 Entering Gaussian System, Link 0=g16
 Input=/Volumes/SSD-PMU3/b3lyp_6-31gd_freq/ASIOMLZOLVBKAC-JTQLQIEISA-N_calculating/gaussianinput0.gjf
 Output=/Volumes/SSD-PMU3/b3lyp_6-31gd_freq/ASIOMLZOLVBKAC-JTQLQIEISA-N_calculating/gaussianinput0.log
 Initial command:
 /Applications/g16/l1.exe "/Users/macmini_m1_2022/PycharmProjects/sphere_model/sphere_model_lib/Gau-87684.inp" -scrdir="/Users/macmini_m1_2022/PycharmProjects/sphere_model/sphere_model_lib/"
 Entering Link 1 = /Applications/g16/l1.exe PID=     87685.
  
 Copyright (c) 1988,1990,1992,1993,1995,1998,2003,2009,2016,
            Gaussian, Inc.  All Rights Reserved.
  
 This is part of the Gaussian(R) 16 program.  It is based on
 the Gaussian(R) 09 system (copyright 2009, Gaussian, Inc.),
 the Gaussian(R) 03 system (copyright 2003, Gaussian, Inc.),
 the Gaussian(R) 98 system (copyright 1998, Gaussian, Inc.),
 the Gaussian(R) 94 system (copyright 1995, Gaussian, Inc.),
 the Gaussian 92(TM) system (copyright 1992, Gaussian, Inc.),
 the Gaussian 90(TM) system (copyright 1990, Gaussian, Inc.),
 the Gaussian 88(TM) system (copyright 1988, Gaussian, Inc.),
 the Gaussian 86(TM) system (copyright 1986, Carnegie Mellon
 University), and the Gaussian 82(TM) system (copyright 1983,
 Carnegie Mellon University). Gaussian is a federally registered
 trademark of Gaussian, Inc.
  
 This software contains proprietary and confidential information,
 including trade secrets, belonging to Gaussian, Inc.
  
 This software is provided under written license and may be
 used, copied, transmitted, or stored only in accord with that
 written license.
  
 The following legend is applicable only to US Government
 contracts under FAR:
  
                    RESTRICTED RIGHTS LEGEND
  
 Use, reproduction and disclosure by the US Government is
 subject to restrictions as set forth in subparagraphs (a)
 and (c) of the Commercial Computer Software - Restricted
 Rights clause in FAR 52.227-19.
  
 Gaussian, Inc.
 340 Quinnipiac St., Bldg. 40, Wallingford CT 06492
  
  
 ---------------------------------------------------------------
 Warning -- This program may not be used in any manner that
 competes with the business of Gaussian, Inc. or will provide
 assistance to any competitor of Gaussian, Inc.  The licensee
 of this program is prohibited from giving any competitor of
 Gaussian, Inc. access to this program.  By using this program,
 the user acknowledges that Gaussian, Inc. is engaged in the
 business of creating and licensing software in the field of
 computational chemistry and represents and warrants to the
 licensee that it is not a competitor of Gaussian, Inc. and that
 it will not use this program in any manner prohibited above.
 ---------------------------------------------------------------
  

 Cite this work as:
 Gaussian 16, Revision A.03,
 M. J. Frisch, G. W. Trucks, H. B. Schlegel, G. E. Scuseria, 
 M. A. Robb, J. R. Cheeseman, G. Scalmani, V. Barone, 
 G. A. Petersson, H. Nakatsuji, X. Li, M. Caricato, A. V. Marenich, 
 J. Bloino, B. G. Janesko, R. Gomperts, B. Mennucci, H. P. Hratchian, 
 J. V. Ortiz, A. F. Izmaylov, J. L. Sonnenberg, D. Williams-Young, 
 F. Ding, F. Lipparini, F. Egidi, J. Goings, B. Peng, A. Petrone, 
 T. Henderson, D. Ranasinghe, V. G. Zakrzewski, J. Gao, N. Rega, 
 G. Zheng, W. Liang, M. Hada, M. Ehara, K. Toyota, R. Fukuda, 
 J. Hasegawa, M. Ishida, T. Nakajima, Y. Honda, O. Kitao, H. Nakai, 
 T. Vreven, K. Throssell, J. A. Montgomery, Jr., J. E. Peralta, 
 F. Ogliaro, M. J. Bearpark, J. J. Heyd, E. N. Brothers, K. N. Kudin, 
 V. N. Staroverov, T. A. Keith, R. Kobayashi, J. Normand, 
 K. Raghavachari, A. P. Rendell, J. C. Burant, S. S. Iyengar, 
 J. Tomasi, M. Cossi, J. M. Millam, M. Klene, C. Adamo, R. Cammi, 
 J. W. Ochterski, R. L. Martin, K. Morokuma, O. Farkas, 
 J. B. Foresman, and D. J. Fox, Gaussian, Inc., Wallingford CT, 2016.
 
 ******************************************
 Gaussian 16:  EM64M-G16RevA.03 25-Dec-2016
                24-Feb-2024 
 ******************************************
 %nprocshared=10
 Will use up to   10 processors via shared memory.
 %mem=12GB
 %chk= 0.chk
 ---------------------
 # freq b3lyp/6-31g(d)
 ---------------------
 1/10=4,30=1,38=1/1,3;
 2/12=2,17=6,18=5,40=1/2;
 3/5=1,6=6,7=1,11=2,25=1,30=1,71=2,74=-5,140=1/1,2,3;
 4//1;
 5/5=2,38=5,98=1/2;
 8/6=4,10=90,11=11/1;
 11/6=1,8=1,9=11,15=111,16=1/1,2,10;
 10/6=1/2;
 6/7=2,8=2,9=2,10=2,28=1/1;
 7/8=1,10=1,25=1/1,2,3,16;
 1/10=4,30=1/3;
 99//99;
 ---------
 good luck
 ---------
 Symbolic Z-matrix:
 Charge =  0 Multiplicity = 1
 O                     1.21727   0.        0. 
 C                     0.        0.        0. 
 C                    -0.82009  -1.28129  -0.00568 
 C                    -1.86288  -1.30691  -1.15712 
 C                    -2.79576  -2.51598  -0.96906 
 C                    -1.13592  -1.44428  -2.51056 
 C                    -2.698    -0.00377  -1.1026 
 C                    -1.87486   1.29851  -1.13334 
 C                    -2.80306   2.5266   -1.04666 
 C                    -2.13059   3.90555  -1.16356 
 C                    -1.4372    4.1736   -2.5069 
 C                    -0.8785    5.59651  -2.61391 
 C                    -0.81562   1.28565  -0.00568 
 H                    -0.13765  -2.13547  -0.06356 
 H                    -1.35499  -1.34228   0.95466 
 H                    -2.22929  -3.4551   -0.96996 
 H                    -3.3421   -2.45365  -0.01994 
 H                    -3.53443  -2.57068  -1.77834 
 H                    -0.40162  -0.64839  -2.67507 
 H                    -1.85185  -1.41847  -3.34114 
 H                    -0.59647  -2.39733  -2.56262 
 H                    -3.30154  -0.01367  -0.18138 
 H                    -3.41341  -0.00129  -1.9366 
 H                    -1.34083   1.34263  -2.09205 
 H                    -3.35145   2.47964  -0.09397 
 H                    -3.56238   2.43887  -1.83775 
 H                    -2.90223   4.67289  -1.00785 
 H                    -1.40727   4.04373  -0.34792 
 H                    -2.15267   3.99817  -3.32344 
 H                    -0.62044   3.45522  -2.65797 
 H                    -0.13817   5.79147  -1.82827 
 H                    -0.38902   5.76268  -3.58022 
 H                    -1.67489   6.34382  -2.50999 
 H                    -1.3364    1.36045   0.96283 
 H                    -0.12238   2.12802  -0.07728 
 

 GradGradGradGradGradGradGradGradGradGradGradGradGradGradGradGradGradGrad
 Berny optimization.
 Initialization pass.
 Trust Radius=3.00D-01 FncErr=1.00D-07 GrdErr=1.00D-07 EigMax=2.50D+02 EigMin=1.00D-04
 Number of steps in this run=      2 maximum allowed number of steps=      2.
 GradGradGradGradGradGradGradGradGradGradGradGradGradGradGradGradGradGrad

                          Input orientation:                          
 ---------------------------------------------------------------------
 Center     Atomic      Atomic             Coordinates (Angstroms)
 Number     Number       Type             X           Y           Z
 ---------------------------------------------------------------------
      1          8           0        1.217274    0.000000    0.000000
      2          6           0        0.000000    0.000000    0.000000
      3          6           0       -0.820093   -1.281289   -0.005679
      4          6           0       -1.862884   -1.306911   -1.157122
      5          6           0       -2.795759   -2.515982   -0.969060
      6          6           0       -1.135922   -1.444278   -2.510562
      7          6           0       -2.698004   -0.003772   -1.102597
      8          6           0       -1.874858    1.298509   -1.133337
      9          6           0       -2.803060    2.526596   -1.046662
     10          6           0       -2.130591    3.905548   -1.163556
     11          6           0       -1.437195    4.173603   -2.506896
     12          6           0       -0.878503    5.596508   -2.613906
     13          6           0       -0.815620    1.285646   -0.005679
     14          1           0       -0.137646   -2.135466   -0.063557
     15          1           0       -1.354989   -1.342276    0.954657
     16          1           0       -2.229289   -3.455098   -0.969964
     17          1           0       -3.342102   -2.453652   -0.019935
     18          1           0       -3.534426   -2.570676   -1.778336
     19          1           0       -0.401622   -0.648391   -2.675072
     20          1           0       -1.851850   -1.418468   -3.341143
     21          1           0       -0.596465   -2.397327   -2.562618
     22          1           0       -3.301540   -0.013670   -0.181376
     23          1           0       -3.413406   -0.001294   -1.936595
     24          1           0       -1.340832    1.342629   -2.092053
     25          1           0       -3.351451    2.479636   -0.093971
     26          1           0       -3.562376    2.438870   -1.837753
     27          1           0       -2.902233    4.672887   -1.007845
     28          1           0       -1.407271    4.043733   -0.347922
     29          1           0       -2.152668    3.998172   -3.323439
     30          1           0       -0.620435    3.455217   -2.657965
     31          1           0       -0.138169    5.791472   -1.828271
     32          1           0       -0.389019    5.762678   -3.580217
     33          1           0       -1.674893    6.343816   -2.509987
     34          1           0       -1.336401    1.360452    0.962831
     35          1           0       -0.122375    2.128023   -0.077276
 ---------------------------------------------------------------------
                    Distance matrix (angstroms):
                    1          2          3          4          5
     1  O    0.000000
     2  C    1.217274   0.000000
     3  C    2.406782   1.521278   0.000000
     4  C    3.540384   2.552897   1.553670   0.000000
     5  C    4.834633   3.884007   2.521076   1.538660   0.000000
     6  C    3.731808   3.111138   2.529971   1.542447   2.505960
     7  C    4.067571   2.914611   2.522267   1.548732   2.517655
     8  C    3.540037   2.546698   3.006576   2.605556   3.927517
     9  C    4.862332   3.916163   4.417668   3.948659   5.043180
    10  C    5.274028   4.598542   5.473697   5.219333   6.458818
    11  C    5.545241   5.076319   6.032640   5.660312   6.997227
    12  C    6.522706   6.239004   7.355974   7.123792   8.496698
    13  C    2.405322   1.522548   2.566939   3.023894   4.393339
    14  H    2.529835   2.140841   1.094853   2.204276   2.833777
    15  H    3.054441   2.132855   1.100944   2.172284   2.674713
    16  H    4.975674   4.224720   2.764258   2.187233   1.096735
    17  H    5.177713   4.146137   2.781217   2.190045   1.096911
    18  H    5.687663   4.718371   3.488902   2.185649   1.097063
    19  H    3.193313   2.781676   2.775128   2.207512   3.482853
    20  H    4.753400   4.074879   3.494089   2.186896   2.778899
    21  H    3.950169   3.559488   2.798837   2.183631   2.718529
    22  H    4.522473   3.306547   2.792008   2.166630   2.671671
    23  H    5.019323   3.924505   3.477369   2.171712   2.764284
    24  H    3.566966   2.824388   3.392502   2.857743   4.273968
    25  H    5.199103   4.170090   4.534327   4.205242   5.102036
    26  H    5.671902   4.692115   4.971538   4.169221   5.088505
    27  H    6.310465   5.592368   6.386850   6.071286   7.189762
    28  H    4.833328   4.295723   5.368218   5.430633   6.733764
    29  H    6.195735   5.627131   6.376205   5.737666   6.956355
    30  H    4.730801   4.403208   5.432216   5.145296   6.575686
    31  H    6.222616   6.074769   7.335585   7.335675   8.764406
    32  H    6.971843   6.795421   7.910791   7.617267   9.008149
    33  H    7.410038   7.024906   8.071212   7.771693   9.062385
    34  H    3.049447   2.136315   2.860661   3.447638   4.570412
    35  H    2.515773   2.132939   3.480710   3.999276   5.432223
                    6          7          8          9         10
     6  C    0.000000
     7  C    2.549024   0.000000
     8  C    3.156843   1.540925   0.000000
     9  C    4.548647   2.533166   1.541840   0.000000
    10  C    5.605750   3.950754   2.619726   1.538632   0.000000
    11  C    5.625955   4.583902   3.216268   2.590464   1.535322
    12  C    7.046248   6.079291   4.653773   3.947725   2.555501
    13  C    3.718806   2.531639   1.547179   2.563888   3.151780
    14  H    2.731690   3.489865   3.994311   5.459464   6.455670
    15  H    3.473635   2.797781   3.406425   4.590246   5.712096
    16  H    2.759038   3.485532   4.769601   6.009639   7.363853
    17  H    3.476965   2.754801   4.179854   5.113473   6.573816
    18  H    2.749136   2.783024   4.259200   5.201195   6.655087
    19  H    1.095306   2.856848   2.887523   4.301066   5.100233
    20  H    1.096852   2.780005   3.500986   4.661864   5.758883
    21  H    1.096369   3.503888   4.163693   5.604659   6.636049
    22  H    3.487355   1.101364   2.159506   2.729497   4.206670
    23  H    2.756551   1.098799   2.168373   2.748587   4.184091
    24  H    2.825595   2.152611   1.098302   2.152378   2.838024
    25  H    5.113275   2.758919   2.157700   1.100254   2.160494
    26  H    4.628087   2.693342   2.155074   1.100037   2.157706
    27  H    6.541997   4.682075   3.529543   2.148932   1.099312
    28  H    5.904990   4.314838   2.893401   2.176734   1.098884
    29  H    5.595963   4.609239   3.487392   2.787877   2.161981
    30  H    4.928743   4.324357   2.923945   2.867488   2.171780
    31  H    7.336015   6.376850   4.866800   4.286254   2.822818
    32  H    7.324086   6.687448   5.303182   4.766416   3.510307
    33  H    7.806721   6.581746   5.233572   4.240902   2.822355
    34  H    4.468911   2.825077   2.165108   2.747552   3.410245
    35  H    4.439537   3.497098   2.207839   2.878305   2.893533
                   11         12         13         14         15
    11  C    0.000000
    12  C    1.532399   0.000000
    13  C    3.870754   5.038882   0.000000
    14  H    6.889346   8.175364   3.488124   0.000000
    15  H    6.512605   7.817186   2.849410   1.774214   0.000000
    16  H    7.822190   9.298319   5.040135   2.634003   2.988743
    17  H    7.330358   8.809261   4.512833   3.220510   2.476611
    18  H    7.100315   8.628731   5.040381   3.829881   3.705154
    19  H    4.934807   6.263379   3.322281   3.016801   3.816454
    20  H    5.669141   7.119422   4.417163   3.767645   4.325110
    21  H    6.624730   7.998973   4.488904   2.554289   3.749629
    22  H    5.139755   6.577416   2.810496   3.811315   2.616262
    23  H    4.654075   6.182222   3.483266   4.335155   3.794028
    24  H    2.862830   4.310634   2.152220   4.202332   4.060955
    25  H    3.515126   4.709611   2.804255   5.623934   4.437622
    26  H    2.823729   4.216191   3.497297   5.983402   5.192993
    27  H    2.154710   2.743718   4.102645   7.408663   6.513644
    28  H    2.163084   2.797390   2.841518   6.314690   5.541529
    29  H    1.099736   2.163703   4.489212   7.232473   6.889033
    30  H    1.098179   2.157236   3.432165   6.182214   6.050334
    31  H    2.183003   1.096963   4.907469   8.120995   7.753431
    32  H    2.185372   1.095885   5.744835   8.649322   8.484017
    33  H    2.183194   1.097044   5.709202   8.958034   8.436949
    34  H    4.467995   5.562993   1.102189   3.835613   2.702804
    35  H    3.437470   4.363096   1.093304   4.263538   3.824552
                   16         17         18         19         20
    16  H    0.000000
    17  H    1.773077   0.000000
    18  H    1.771736   1.772754   0.000000
    19  H    3.758373   4.353750   3.783355   0.000000
    20  H    3.148462   3.784558   2.569243   1.771957   0.000000
    21  H    2.514267   3.742584   3.045778   1.763345   1.772077
    22  H    3.689854   2.445653   3.023706   3.876972   3.749558
    23  H    3.776939   3.113315   2.577094   3.167795   2.533692
    24  H    5.006658   4.765554   4.497136   2.277320   3.073275
    25  H    6.103088   4.933852   5.326933   5.014791   5.290382
    26  H    6.104837   5.223960   5.009976   4.496960   4.479413
    27  H    8.155883   7.208121   7.311808   6.111358   6.606980
    28  H    7.569354   6.787279   7.093749   5.333196   6.244410
    29  H    7.816390   7.345334   6.888132   5.007703   5.425016
    30  H    7.293162   7.020072   6.751035   4.109473   5.073058
    31  H    9.518851   9.028695   9.025662   6.500640   7.563645
    32  H    9.755378   9.428912   9.087637   6.474662   7.332523
    33  H    9.934674   9.293836   9.135718   7.109109   7.808661
    34  H    5.265213   4.419961   5.272483   4.259531   5.149007
    35  H    6.033839   5.600150   6.050906   3.812479   5.120694
                   21         22         23         24         25
    21  H    0.000000
    22  H    4.320829   0.000000
    23  H    3.750738   1.758824   0.000000
    24  H    3.842237   3.055259   2.475047   0.000000
    25  H    6.121187   2.495337   3.090973   3.054129   0.000000
    26  H    5.719341   2.970955   2.446704   2.490315   1.756965
    27  H    7.597487   4.775596   4.792895   3.834592   2.418122
    28  H    6.859267   4.480905   4.786513   3.215956   2.508132
    29  H    6.625936   5.223729   4.416846   3.037647   3.764638
    30  H    5.853370   5.035374   4.502058   2.302663   3.870952
    31  H    8.234423   6.813138   6.655453   4.616079   4.929628
    32  H    8.225827   7.307605   6.713552   4.759980   5.631011
    33  H    8.807574   6.963192   6.603910   5.029725   4.855911
    34  H    5.205497   2.656914   3.817718   3.054939   2.535711
    35  H    5.184639   3.834681   4.338426   2.482097   3.248206
                   26         27         28         29         30
    26  H    0.000000
    27  H    2.472927   0.000000
    28  H    3.072403   1.751070   0.000000
    29  H    2.574094   2.525681   3.067800   0.000000
    30  H    3.218808   3.067934   2.510331   1.756529   0.000000
    31  H    4.792204   3.092633   2.618520   3.083773   2.525680
    32  H    4.914680   3.757790   3.799913   2.507962   2.495692
    33  H    4.388974   2.560234   3.168048   2.528244   3.078601
    34  H    3.736472   4.160243   2.987155   5.098624   4.243915
    35  H    3.876791   3.881997   2.322531   4.261117   2.944395
                   31         32         33         34         35
    31  H    0.000000
    32  H    1.770048   0.000000
    33  H    1.769560   1.771041   0.000000
    34  H    5.372146   6.396594   6.083499   0.000000
    35  H    4.060430   5.054939   5.108944   1.773372   0.000000
 Stoichiometry    C12H22O
 Framework group  C1[X(C12H22O)]
 Deg. of freedom    99
 Full point group                 C1      NOp   1
 Largest Abelian subgroup         C1      NOp   1
 Largest concise Abelian subgroup C1      NOp   1
                         Standard orientation:                         
 ---------------------------------------------------------------------
 Center     Atomic      Atomic             Coordinates (Angstroms)
 Number     Number       Type             X           Y           Z
 ---------------------------------------------------------------------
      1          8           0       -1.188838    2.791527    0.172602
      2          6           0       -1.186063    1.671799   -0.304849
      3          6           0       -2.442072    0.819139   -0.403323
      4          6           0       -2.250741   -0.585313    0.232914
      5          6           0       -3.471564   -1.461711   -0.097227
      6          6           0       -2.135677   -0.447982    1.764920
      7          6           0       -0.978573   -1.234780   -0.365709
      8          6           0        0.304828   -0.391758   -0.236687
      9          6           0        1.497487   -1.120099   -0.888110
     10          6           0        2.872586   -0.443099   -0.753355
     11          6           0        3.384198   -0.302347    0.687359
     12          6           0        4.800905    0.277096    0.761073
     13          6           0        0.080069    1.015779   -0.838423
     14          1           0       -3.272140    1.360550    0.062042
     15          1           0       -2.679365    0.692261   -1.470878
     16          1           0       -4.395420   -1.011419    0.285600
     17          1           0       -3.585580   -1.594186   -1.180124
     18          1           0       -3.373123   -2.456857    0.353929
     19          1           0       -1.324756    0.223832    2.066201
     20          1           0       -1.954225   -1.424375    2.230554
     21          1           0       -3.063648   -0.043276    2.185764
     22          1           0       -1.158237   -1.436025   -1.433522
     23          1           0       -0.819412   -2.213755    0.107191
     24          1           0        0.525248   -0.266322    0.831932
     25          1           0        1.275429   -1.261282   -1.956434
     26          1           0        1.560138   -2.129716   -0.455871
     27          1           0        3.599341   -1.035404   -1.327366
     28          1           0        2.855032    0.546640   -1.230487
     29          1           0        3.365308   -1.288011    1.174730
     30          1           0        2.704577    0.336920    1.266539
     31          1           0        4.844679    1.275194    0.308070
     32          1           0        5.142760    0.367790    1.798317
     33          1           0        5.517666   -0.359417    0.227584
     34          1           0       -0.025352    0.915217   -1.930940
     35          1           0        0.919484    1.689086   -0.645149
 ---------------------------------------------------------------------
 Rotational constants (GHZ):           1.2454862           0.4045941           0.3571681
 Standard basis: 6-31G(d) (6D, 7F)
 There are   239 symmetry adapted cartesian basis functions of A   symmetry.
 There are   239 symmetry adapted basis functions of A   symmetry.
   239 basis functions,   452 primitive gaussians,   239 cartesian basis functions
    51 alpha electrons       51 beta electrons
       nuclear repulsion energy       849.4487467952 Hartrees.
 NAtoms=   35 NActive=   35 NUniq=   35 SFac= 1.00D+00 NAtFMM=   60 NAOKFM=F Big=F
 Integral buffers will be    131072 words long.
 Raffenetti 2 integral format.
 Two-electron integral symmetry is turned on.
 One-electron integrals computed using PRISM.
 NBasis=   239 RedAO= T EigKep=  2.56D-03  NBF=   239
 NBsUse=   239 1.00D-06 EigRej= -1.00D+00 NBFU=   239
 ExpMin= 1.61D-01 ExpMax= 5.48D+03 ExpMxC= 8.25D+02 IAcc=3 IRadAn=         5 AccDes= 0.00D+00
 Harris functional with IExCor=  402 and IRadAn=       5 diagonalized for initial guess.
 HarFok:  IExCor=  402 AccDes= 0.00D+00 IRadAn=         5 IDoV= 1 UseB2=F ITyADJ=14
 ICtDFT=  3500011 ScaDFX=  1.000000  1.000000  1.000000  1.000000
 FoFCou: FMM=F IPFlag=           0 FMFlag=      100000 FMFlg1=           0
         NFxFlg=           0 DoJE=T BraDBF=F KetDBF=T FulRan=T
         wScrn=  0.000000 ICntrl=       500 IOpCl=  0 I1Cent=   200000004 NGrid=           0
         NMat0=    1 NMatS0=      1 NMatT0=    0 NMatD0=    1 NMtDS0=    0 NMtDT0=    0
 Petite list used in FoFCou.
 Requested convergence on RMS density matrix=1.00D-08 within 128 cycles.
 Requested convergence on MAX density matrix=1.00D-06.
 Requested convergence on             energy=1.00D-06.
 No special actions if energy rises.
 Integral accuracy reduced to 1.0D-05 until final iterations.
 Initial convergence to 1.0D-05 achieved.  Increase integral accuracy.
 SCF Done:  E(RB3LYP) =  -545.772333095     A.U. after   13 cycles
            NFock= 13  Conv=0.84D-08     -V/T= 2.0099
 DoSCS=F DFT=T ScalE2(SS,OS)=  1.000000  1.000000
 Range of M.O.s used for correlation:     1   239
 NBasis=   239 NAE=    51 NBE=    51 NFC=     0 NFV=     0
 NROrb=    239 NOA=    51 NOB=    51 NVA=   188 NVB=   188
 Symmetrizing basis deriv contribution to polar:
 IMax=3 JMax=2 DiffMx= 0.00D+00
 G2DrvN: will do    36 centers at a time, making    1 passes.
 Calling FoFCou, ICntrl=  3107 FMM=F I1Cent=   0 AccDes= 0.00D+00.
 End of G2Drv F.D. properties file   721 does not exist.
 End of G2Drv F.D. properties file   722 does not exist.
 End of G2Drv F.D. properties file   788 does not exist.
          IDoAtm=11111111111111111111111111111111111
          Differentiating once with respect to electric field.
                with respect to dipole field.
          Differentiating once with respect to nuclear coordinates.
 Keep R1 ints in memory in canonical form, NReq=421970847.
          There are   108 degrees of freedom in the 1st order CPHF.  IDoFFX=6 NUNeed=     3.
    105 vectors produced by pass  0 Test12= 9.59D-15 1.00D-09 XBig12= 8.94D+01 2.75D+00.
 AX will form   105 AO Fock derivatives at one time.
    105 vectors produced by pass  1 Test12= 9.59D-15 1.00D-09 XBig12= 1.04D+01 8.38D-01.
    105 vectors produced by pass  2 Test12= 9.59D-15 1.00D-09 XBig12= 8.17D-02 3.56D-02.
    105 vectors produced by pass  3 Test12= 9.59D-15 1.00D-09 XBig12= 2.16D-04 1.97D-03.
    105 vectors produced by pass  4 Test12= 9.59D-15 1.00D-09 XBig12= 2.28D-07 3.69D-05.
     44 vectors produced by pass  5 Test12= 9.59D-15 1.00D-09 XBig12= 1.30D-10 9.46D-07.
      3 vectors produced by pass  6 Test12= 9.59D-15 1.00D-09 XBig12= 7.07D-14 2.26D-08.
 InvSVY:  IOpt=1 It=  1 EMax= 1.24D-14
 Solved reduced A of dimension   572 with   108 vectors.
 Isotropic polarizability for W=    0.000000      125.69 Bohr**3.
 End of Minotr F.D. properties file   721 does not exist.
 End of Minotr F.D. properties file   722 does not exist.
 End of Minotr F.D. properties file   788 does not exist.

 **********************************************************************

            Population analysis using the SCF density.

 **********************************************************************

 Orbital symmetries:
       Occupied  (A) (A) (A) (A) (A) (A) (A) (A) (A) (A) (A) (A)
                 (A) (A) (A) (A) (A) (A) (A) (A) (A) (A) (A) (A)
                 (A) (A) (A) (A) (A) (A) (A) (A) (A) (A) (A) (A)
                 (A) (A) (A) (A) (A) (A) (A) (A) (A) (A) (A) (A)
                 (A) (A) (A)
       Virtual   (A) (A) (A) (A) (A) (A) (A) (A) (A) (A) (A) (A)
                 (A) (A) (A) (A) (A) (A) (A) (A) (A) (A) (A) (A)
                 (A) (A) (A) (A) (A) (A) (A) (A) (A) (A) (A) (A)
                 (A) (A) (A) (A) (A) (A) (A) (A) (A) (A) (A) (A)
                 (A) (A) (A) (A) (A) (A) (A) (A) (A) (A) (A) (A)
                 (A) (A) (A) (A) (A) (A) (A) (A) (A) (A) (A) (A)
                 (A) (A) (A) (A) (A) (A) (A) (A) (A) (A) (A) (A)
                 (A) (A) (A) (A) (A) (A) (A) (A) (A) (A) (A) (A)
                 (A) (A) (A) (A) (A) (A) (A) (A) (A) (A) (A) (A)
                 (A) (A) (A) (A) (A) (A) (A) (A) (A) (A) (A) (A)
                 (A) (A) (A) (A) (A) (A) (A) (A) (A) (A) (A) (A)
                 (A) (A) (A) (A) (A) (A) (A) (A) (A) (A) (A) (A)
                 (A) (A) (A) (A) (A) (A) (A) (A) (A) (A) (A) (A)
                 (A) (A) (A) (A) (A) (A) (A) (A) (A) (A) (A) (A)
                 (A) (A) (A) (A) (A) (A) (A) (A) (A) (A) (A) (A)
                 (A) (A) (A) (A) (A) (A) (A) (A)
 The electronic state is 1-A.
 Alpha  occ. eigenvalues --  -19.13045 -10.26628 -10.20669 -10.19622 -10.18660
 Alpha  occ. eigenvalues --  -10.18561 -10.18510 -10.18414 -10.18105 -10.18082
 Alpha  occ. eigenvalues --  -10.17837 -10.17685 -10.17342  -1.02901  -0.84759
 Alpha  occ. eigenvalues --   -0.80633  -0.77439  -0.73688  -0.70915  -0.68910
 Alpha  occ. eigenvalues --   -0.68621  -0.63891  -0.59698  -0.56073  -0.55301
 Alpha  occ. eigenvalues --   -0.52265  -0.47776  -0.46839  -0.46053  -0.45406
 Alpha  occ. eigenvalues --   -0.44118  -0.43268  -0.42223  -0.41764  -0.41039
 Alpha  occ. eigenvalues --   -0.39721  -0.38772  -0.38227  -0.37496  -0.37095
 Alpha  occ. eigenvalues --   -0.35993  -0.35444  -0.35016  -0.34451  -0.33694
 Alpha  occ. eigenvalues --   -0.32795  -0.32118  -0.31357  -0.30900  -0.30257
 Alpha  occ. eigenvalues --   -0.23254
 Alpha virt. eigenvalues --   -0.00998   0.07117   0.08920   0.09928   0.11061
 Alpha virt. eigenvalues --    0.11958   0.12272   0.13213   0.14047   0.14956
 Alpha virt. eigenvalues --    0.15037   0.15707   0.16260   0.16789   0.17152
 Alpha virt. eigenvalues --    0.17552   0.17762   0.18703   0.19057   0.20175
 Alpha virt. eigenvalues --    0.20843   0.21123   0.21619   0.21743   0.23262
 Alpha virt. eigenvalues --    0.24000   0.24164   0.25065   0.25211   0.26447
 Alpha virt. eigenvalues --    0.27317   0.27744   0.29463   0.31049   0.34094
 Alpha virt. eigenvalues --    0.36632   0.48790   0.49904   0.50258   0.51037
 Alpha virt. eigenvalues --    0.52234   0.53530   0.54136   0.55305   0.55726
 Alpha virt. eigenvalues --    0.57873   0.58710   0.61394   0.62128   0.63408
 Alpha virt. eigenvalues --    0.63912   0.65281   0.66796   0.67513   0.68978
 Alpha virt. eigenvalues --    0.69807   0.71138   0.71731   0.73674   0.74397
 Alpha virt. eigenvalues --    0.76236   0.76893   0.78599   0.81045   0.83028
 Alpha virt. eigenvalues --    0.83622   0.85193   0.85307   0.86274   0.87220
 Alpha virt. eigenvalues --    0.88043   0.88072   0.88797   0.89348   0.89622
 Alpha virt. eigenvalues --    0.91110   0.91180   0.92010   0.92188   0.92463
 Alpha virt. eigenvalues --    0.93330   0.93698   0.95244   0.95793   0.96657
 Alpha virt. eigenvalues --    0.96781   0.98087   0.98454   0.99120   1.02066
 Alpha virt. eigenvalues --    1.02368   1.02524   1.06519   1.09127   1.12379
 Alpha virt. eigenvalues --    1.14377   1.17114   1.19971   1.22375   1.22949
 Alpha virt. eigenvalues --    1.32627   1.34690   1.39489   1.43100   1.44986
 Alpha virt. eigenvalues --    1.48760   1.49908   1.51715   1.53144   1.55336
 Alpha virt. eigenvalues --    1.58747   1.61488   1.64074   1.65969   1.70073
 Alpha virt. eigenvalues --    1.72619   1.74692   1.75683   1.78924   1.80753
 Alpha virt. eigenvalues --    1.81086   1.83111   1.84377   1.85701   1.86822
 Alpha virt. eigenvalues --    1.88493   1.90796   1.92157   1.93294   1.94036
 Alpha virt. eigenvalues --    1.96403   1.97445   1.98171   1.99561   2.01561
 Alpha virt. eigenvalues --    2.01908   2.03913   2.04477   2.08103   2.09236
 Alpha virt. eigenvalues --    2.10681   2.10774   2.14110   2.17290   2.18750
 Alpha virt. eigenvalues --    2.22529   2.23435   2.24258   2.24441   2.27281
 Alpha virt. eigenvalues --    2.27549   2.30196   2.32061   2.35733   2.38650
 Alpha virt. eigenvalues --    2.41117   2.42746   2.45702   2.48187   2.52171
 Alpha virt. eigenvalues --    2.54461   2.55319   2.58895   2.59856   2.62138
 Alpha virt. eigenvalues --    2.69071   2.69925   2.71374   2.72810   2.77799
 Alpha virt. eigenvalues --    2.80196   2.83440   2.87916   2.99116   3.02464
 Alpha virt. eigenvalues --    4.03200   4.12120   4.16608   4.22888   4.25860
 Alpha virt. eigenvalues --    4.30771   4.33319   4.40954   4.42426   4.51882
 Alpha virt. eigenvalues --    4.59325   4.66577   4.72281
          Condensed to atoms (all electrons):
               1          2          3          4          5          6
     1  O    8.009731   0.584375  -0.077950   0.000230  -0.000065   0.000231
     2  C    0.584375   4.474809   0.321099  -0.019194   0.002675  -0.001371
     3  C   -0.077950   0.321099   5.378703   0.353090  -0.049856  -0.067510
     4  C    0.000230  -0.019194   0.353090   4.781272   0.375027   0.384190
     5  C   -0.000065   0.002675  -0.049856   0.375027   5.163117  -0.065398
     6  C    0.000231  -0.001371  -0.067510   0.384190  -0.065398   5.166819
     7  C    0.000072  -0.013889  -0.056245   0.378216  -0.051216  -0.058165
     8  C    0.000738  -0.020866  -0.006857  -0.026817   0.004313  -0.005077
     9  C   -0.000048   0.002437  -0.000089   0.003687  -0.000116   0.000107
    10  C   -0.000003   0.000144  -0.000007  -0.000103   0.000001   0.000004
    11  C    0.000001  -0.000012  -0.000001   0.000003  -0.000000  -0.000005
    12  C   -0.000000   0.000000   0.000000  -0.000000  -0.000000   0.000000
    13  C   -0.079829   0.320178  -0.132847  -0.005271   0.000035  -0.001324
    14  H    0.004460  -0.022816   0.338420  -0.026769  -0.004154  -0.005805
    15  H    0.001760  -0.026165   0.338057  -0.030935  -0.008539   0.006494
    16  H   -0.000001   0.000031  -0.004531  -0.027651   0.364914  -0.004625
    17  H    0.000000   0.000050  -0.005706  -0.027616   0.364382   0.005772
    18  H    0.000001  -0.000085   0.005195  -0.028226   0.364795  -0.004177
    19  H    0.000534   0.005590  -0.005964  -0.027743   0.005569   0.366648
    20  H    0.000006   0.000089   0.005533  -0.029842  -0.004251   0.367648
    21  H    0.000016  -0.000300  -0.004323  -0.028540  -0.005765   0.367121
    22  H    0.000000  -0.000531  -0.004798  -0.038376  -0.006627   0.006285
    23  H    0.000001   0.000263   0.005657  -0.030699  -0.004067  -0.006767
    24  H    0.000486  -0.001737   0.000211  -0.006322   0.000009   0.003462
    25  H   -0.000000   0.000007   0.000009  -0.000029  -0.000005   0.000001
    26  H    0.000001  -0.000059   0.000004   0.000095   0.000001  -0.000012
    27  H   -0.000000  -0.000003   0.000000   0.000001  -0.000000  -0.000000
    28  H    0.000001   0.000035  -0.000001   0.000002   0.000000  -0.000000
    29  H    0.000000   0.000001  -0.000000   0.000000  -0.000000   0.000000
    30  H   -0.000001  -0.000044   0.000001   0.000008  -0.000000  -0.000008
    31  H    0.000000   0.000000  -0.000000   0.000000  -0.000000   0.000000
    32  H   -0.000000   0.000000   0.000000   0.000000  -0.000000  -0.000000
    33  H    0.000000  -0.000000  -0.000000   0.000000   0.000000  -0.000000
    34  H    0.001665  -0.026678   0.003115  -0.001414  -0.000048   0.000082
    35  H    0.005562  -0.023141   0.006710   0.000039   0.000011  -0.000052
               7          8          9         10         11         12
     1  O    0.000072   0.000738  -0.000048  -0.000003   0.000001  -0.000000
     2  C   -0.013889  -0.020866   0.002437   0.000144  -0.000012   0.000000
     3  C   -0.056245  -0.006857  -0.000089  -0.000007  -0.000001   0.000000
     4  C    0.378216  -0.026817   0.003687  -0.000103   0.000003  -0.000000
     5  C   -0.051216   0.004313  -0.000116   0.000001  -0.000000  -0.000000
     6  C   -0.058165  -0.005077   0.000107   0.000004  -0.000005   0.000000
     7  C    5.124499   0.371318  -0.037757   0.003832   0.000121  -0.000002
     8  C    0.371318   4.950150   0.374972  -0.036594  -0.004387   0.000175
     9  C   -0.037757   0.374972   5.038865   0.367419  -0.039718   0.003830
    10  C    0.003832  -0.036594   0.367419   5.000534   0.389599  -0.043178
    11  C    0.000121  -0.004387  -0.039718   0.389599   4.956804   0.373396
    12  C   -0.000002   0.000175   0.003830  -0.043178   0.373396   5.062719
    13  C   -0.047836   0.340355  -0.040464  -0.002506  -0.001370  -0.000006
    14  H    0.005123  -0.000054   0.000010  -0.000000   0.000000   0.000000
    15  H   -0.003844  -0.001101  -0.000024   0.000000  -0.000000   0.000000
    16  H    0.005226  -0.000141   0.000001  -0.000000   0.000000  -0.000000
    17  H   -0.005951   0.000012  -0.000003   0.000000   0.000000   0.000000
    18  H   -0.005255   0.000016   0.000001  -0.000000   0.000000   0.000000
    19  H   -0.004790   0.001511  -0.000029   0.000006  -0.000007   0.000000
    20  H   -0.005569  -0.000223  -0.000028   0.000000   0.000000  -0.000000
    21  H    0.005326   0.000101  -0.000001  -0.000000   0.000000   0.000000
    22  H    0.360749  -0.042528  -0.005462   0.000019   0.000004   0.000000
    23  H    0.355588  -0.032022  -0.004257   0.000015  -0.000008  -0.000000
    24  H   -0.044091   0.375659  -0.045642  -0.005789   0.004309  -0.000118
    25  H   -0.005966  -0.039015   0.362666  -0.033395   0.004720  -0.000143
    26  H   -0.005057  -0.038003   0.365762  -0.038819  -0.006425   0.000032
    27  H   -0.000099   0.004690  -0.031962   0.369604  -0.041948  -0.003855
    28  H    0.000044  -0.008740  -0.036458   0.371302  -0.041000  -0.002498
    29  H   -0.000052  -0.000996  -0.002351  -0.042763   0.376699  -0.038254
    30  H   -0.000004   0.002471  -0.004451  -0.038992   0.377651  -0.037598
    31  H   -0.000000  -0.000017   0.000077  -0.004384  -0.034701   0.378026
    32  H   -0.000000   0.000001  -0.000139   0.004165  -0.027821   0.372580
    33  H    0.000000   0.000003  -0.000002  -0.004615  -0.034859   0.377120
    34  H   -0.004060  -0.036763  -0.007039  -0.000644   0.000086   0.000001
    35  H    0.004422  -0.025010  -0.004880   0.001455   0.000465  -0.000054
              13         14         15         16         17         18
     1  O   -0.079829   0.004460   0.001760  -0.000001   0.000000   0.000001
     2  C    0.320178  -0.022816  -0.026165   0.000031   0.000050  -0.000085
     3  C   -0.132847   0.338420   0.338057  -0.004531  -0.005706   0.005195
     4  C   -0.005271  -0.026769  -0.030935  -0.027651  -0.027616  -0.028226
     5  C    0.000035  -0.004154  -0.008539   0.364914   0.364382   0.364795
     6  C   -0.001324  -0.005805   0.006494  -0.004625   0.005772  -0.004177
     7  C   -0.047836   0.005123  -0.003844   0.005226  -0.005951  -0.005255
     8  C    0.340355  -0.000054  -0.001101  -0.000141   0.000012   0.000016
     9  C   -0.040464   0.000010  -0.000024   0.000001  -0.000003   0.000001
    10  C   -0.002506  -0.000000   0.000000  -0.000000   0.000000  -0.000000
    11  C   -0.001370   0.000000  -0.000000   0.000000   0.000000   0.000000
    12  C   -0.000006   0.000000   0.000000  -0.000000   0.000000   0.000000
    13  C    5.363860   0.006709   0.002489  -0.000002  -0.000014   0.000012
    14  H    0.006709   0.569992  -0.027834   0.003587  -0.000199  -0.000044
    15  H    0.002489  -0.027834   0.593576  -0.000176   0.004998   0.000073
    16  H   -0.000002   0.003587  -0.000176   0.575699  -0.030049  -0.030278
    17  H   -0.000014  -0.000199   0.004998  -0.030049   0.580368  -0.029839
    18  H    0.000012  -0.000044   0.000073  -0.030278  -0.029839   0.578092
    19  H   -0.000137  -0.000026   0.000024  -0.000050  -0.000190  -0.000056
    20  H    0.000080   0.000005  -0.000175  -0.000179  -0.000049   0.003900
    21  H    0.000013   0.004065  -0.000072   0.004463  -0.000013  -0.000158
    22  H   -0.005890  -0.000083   0.004086   0.000011   0.005525  -0.000151
    23  H    0.005312  -0.000157  -0.000078  -0.000090  -0.000192   0.004267
    24  H   -0.052526  -0.000033   0.000049   0.000003  -0.000001  -0.000006
    25  H   -0.008571  -0.000000  -0.000004   0.000000  -0.000000   0.000000
    26  H    0.005239  -0.000000  -0.000000   0.000000   0.000000  -0.000002
    27  H    0.000029   0.000000  -0.000000   0.000000  -0.000000   0.000000
    28  H    0.003978  -0.000000   0.000000  -0.000000   0.000000  -0.000000
    29  H    0.000082   0.000000   0.000000   0.000000   0.000000  -0.000000
    30  H    0.000358  -0.000000  -0.000000   0.000000  -0.000000  -0.000000
    31  H    0.000003   0.000000  -0.000000   0.000000   0.000000  -0.000000
    32  H   -0.000000   0.000000  -0.000000   0.000000  -0.000000  -0.000000
    33  H   -0.000001   0.000000  -0.000000   0.000000  -0.000000  -0.000000
    34  H    0.338916  -0.000139   0.001415   0.000001  -0.000003  -0.000001
    35  H    0.339852  -0.000184  -0.000129  -0.000000  -0.000000  -0.000000
              19         20         21         22         23         24
     1  O    0.000534   0.000006   0.000016   0.000000   0.000001   0.000486
     2  C    0.005590   0.000089  -0.000300  -0.000531   0.000263  -0.001737
     3  C   -0.005964   0.005533  -0.004323  -0.004798   0.005657   0.000211
     4  C   -0.027743  -0.029842  -0.028540  -0.038376  -0.030699  -0.006322
     5  C    0.005569  -0.004251  -0.005765  -0.006627  -0.004067   0.000009
     6  C    0.366648   0.367648   0.367121   0.006285  -0.006767   0.003462
     7  C   -0.004790  -0.005569   0.005326   0.360749   0.355588  -0.044091
     8  C    0.001511  -0.000223   0.000101  -0.042528  -0.032022   0.375659
     9  C   -0.000029  -0.000028  -0.000001  -0.005462  -0.004257  -0.045642
    10  C    0.000006   0.000000  -0.000000   0.000019   0.000015  -0.005789
    11  C   -0.000007   0.000000   0.000000   0.000004  -0.000008   0.004309
    12  C    0.000000  -0.000000   0.000000   0.000000  -0.000000  -0.000118
    13  C   -0.000137   0.000080   0.000013  -0.005890   0.005312  -0.052526
    14  H   -0.000026   0.000005   0.004065  -0.000083  -0.000157  -0.000033
    15  H    0.000024  -0.000175  -0.000072   0.004086  -0.000078   0.000049
    16  H   -0.000050  -0.000179   0.004463   0.000011  -0.000090   0.000003
    17  H   -0.000190  -0.000049  -0.000013   0.005525  -0.000192  -0.000001
    18  H   -0.000056   0.003900  -0.000158  -0.000151   0.004267  -0.000006
    19  H    0.560226  -0.030191  -0.029176  -0.000060  -0.000209   0.003683
    20  H   -0.030191   0.576754  -0.029768  -0.000001   0.004723   0.000407
    21  H   -0.029176  -0.029768   0.570107  -0.000169  -0.000036  -0.000095
    22  H   -0.000060  -0.000001  -0.000169   0.623577  -0.035907   0.006257
    23  H   -0.000209   0.004723  -0.000036  -0.035907   0.606425  -0.004348
    24  H    0.003683   0.000407  -0.000095   0.006257  -0.004348   0.618558
    25  H   -0.000000   0.000001   0.000000   0.006103  -0.000337   0.006189
    26  H    0.000002  -0.000002  -0.000000  -0.000316   0.005737  -0.003138
    27  H   -0.000000  -0.000000   0.000000  -0.000006  -0.000002  -0.000016
    28  H   -0.000000  -0.000000   0.000000   0.000002   0.000002   0.000034
    29  H   -0.000001   0.000000  -0.000000   0.000000   0.000003   0.000408
    30  H    0.000003  -0.000001   0.000000  -0.000001   0.000003   0.002822
    31  H   -0.000000  -0.000000  -0.000000   0.000000  -0.000000   0.000007
    32  H   -0.000000  -0.000000   0.000000   0.000000   0.000000   0.000007
    33  H   -0.000000   0.000000  -0.000000  -0.000000   0.000000   0.000001
    34  H    0.000019   0.000000   0.000001   0.004909  -0.000057   0.006404
    35  H    0.000039  -0.000002  -0.000001  -0.000048  -0.000152  -0.004199
              25         26         27         28         29         30
     1  O   -0.000000   0.000001  -0.000000   0.000001   0.000000  -0.000001
     2  C    0.000007  -0.000059  -0.000003   0.000035   0.000001  -0.000044
     3  C    0.000009   0.000004   0.000000  -0.000001  -0.000000   0.000001
     4  C   -0.000029   0.000095   0.000001   0.000002   0.000000   0.000008
     5  C   -0.000005   0.000001  -0.000000   0.000000  -0.000000  -0.000000
     6  C    0.000001  -0.000012  -0.000000  -0.000000   0.000000  -0.000008
     7  C   -0.005966  -0.005057  -0.000099   0.000044  -0.000052  -0.000004
     8  C   -0.039015  -0.038003   0.004690  -0.008740  -0.000996   0.002471
     9  C    0.362666   0.365762  -0.031962  -0.036458  -0.002351  -0.004451
    10  C   -0.033395  -0.038819   0.369604   0.371302  -0.042763  -0.038992
    11  C    0.004720  -0.006425  -0.041948  -0.041000   0.376699   0.377651
    12  C   -0.000143   0.000032  -0.003855  -0.002498  -0.038254  -0.037598
    13  C   -0.008571   0.005239   0.000029   0.003978   0.000082   0.000358
    14  H   -0.000000  -0.000000   0.000000  -0.000000   0.000000  -0.000000
    15  H   -0.000004  -0.000000  -0.000000   0.000000   0.000000  -0.000000
    16  H    0.000000   0.000000   0.000000  -0.000000   0.000000   0.000000
    17  H   -0.000000   0.000000  -0.000000   0.000000   0.000000  -0.000000
    18  H    0.000000  -0.000002   0.000000  -0.000000  -0.000000  -0.000000
    19  H   -0.000000   0.000002  -0.000000  -0.000000  -0.000001   0.000003
    20  H    0.000001  -0.000002  -0.000000  -0.000000   0.000000  -0.000001
    21  H    0.000000  -0.000000   0.000000   0.000000  -0.000000   0.000000
    22  H    0.006103  -0.000316  -0.000006   0.000002   0.000000  -0.000001
    23  H   -0.000337   0.005737  -0.000002   0.000002   0.000003   0.000003
    24  H    0.006189  -0.003138  -0.000016   0.000034   0.000408   0.002822
    25  H    0.619915  -0.036713  -0.003939  -0.002672   0.000019  -0.000074
    26  H   -0.036713   0.615524  -0.003640   0.005649   0.005610  -0.000214
    27  H   -0.003939  -0.003640   0.614317  -0.038875  -0.004979   0.005845
    28  H   -0.002672   0.005649  -0.038875   0.607002   0.006024  -0.005833
    29  H    0.000019   0.005610  -0.004979   0.006024   0.613451  -0.040441
    30  H   -0.000074  -0.000214   0.005845  -0.005833  -0.040441   0.600697
    31  H    0.000003   0.000008  -0.000393   0.004710   0.005215  -0.004500
    32  H    0.000002  -0.000000  -0.000006  -0.000063  -0.002716  -0.002634
    33  H   -0.000006   0.000001   0.005366  -0.000402  -0.004518   0.005152
    34  H    0.006234   0.000072  -0.000059   0.000370  -0.000001  -0.000023
    35  H   -0.000104  -0.000026  -0.000037   0.002513  -0.000016   0.000824
              31         32         33         34         35
     1  O    0.000000  -0.000000   0.000000   0.001665   0.005562
     2  C    0.000000   0.000000  -0.000000  -0.026678  -0.023141
     3  C   -0.000000   0.000000  -0.000000   0.003115   0.006710
     4  C    0.000000   0.000000   0.000000  -0.001414   0.000039
     5  C   -0.000000  -0.000000   0.000000  -0.000048   0.000011
     6  C    0.000000  -0.000000  -0.000000   0.000082  -0.000052
     7  C   -0.000000  -0.000000   0.000000  -0.004060   0.004422
     8  C   -0.000017   0.000001   0.000003  -0.036763  -0.025010
     9  C    0.000077  -0.000139  -0.000002  -0.007039  -0.004880
    10  C   -0.004384   0.004165  -0.004615  -0.000644   0.001455
    11  C   -0.034701  -0.027821  -0.034859   0.000086   0.000465
    12  C    0.378026   0.372580   0.377120   0.000001  -0.000054
    13  C    0.000003  -0.000000  -0.000001   0.338916   0.339852
    14  H    0.000000   0.000000   0.000000  -0.000139  -0.000184
    15  H   -0.000000  -0.000000  -0.000000   0.001415  -0.000129
    16  H    0.000000   0.000000   0.000000   0.000001  -0.000000
    17  H    0.000000  -0.000000  -0.000000  -0.000003  -0.000000
    18  H   -0.000000  -0.000000  -0.000000  -0.000001  -0.000000
    19  H   -0.000000  -0.000000  -0.000000   0.000019   0.000039
    20  H   -0.000000  -0.000000   0.000000   0.000000  -0.000002
    21  H   -0.000000   0.000000  -0.000000   0.000001  -0.000001
    22  H    0.000000   0.000000  -0.000000   0.004909  -0.000048
    23  H   -0.000000   0.000000   0.000000  -0.000057  -0.000152
    24  H    0.000007   0.000007   0.000001   0.006404  -0.004199
    25  H    0.000003   0.000002  -0.000006   0.006234  -0.000104
    26  H    0.000008  -0.000000   0.000001   0.000072  -0.000026
    27  H   -0.000393  -0.000006   0.005366  -0.000059  -0.000037
    28  H    0.004710  -0.000063  -0.000402   0.000370   0.002513
    29  H    0.005215  -0.002716  -0.004518  -0.000001  -0.000016
    30  H   -0.004500  -0.002634   0.005152  -0.000023   0.000824
    31  H    0.575602  -0.031008  -0.032628  -0.000000   0.000004
    32  H   -0.031008   0.575295  -0.031171   0.000000  -0.000000
    33  H   -0.032628  -0.031171   0.579159  -0.000000   0.000001
    34  H   -0.000000   0.000000  -0.000000   0.595283  -0.027827
    35  H    0.000004  -0.000000   0.000001  -0.027827   0.560235
 Mulliken charges:
               1
     1  O   -0.451974
     2  C    0.445108
     3  C   -0.339122
     4  C    0.079686
     5  C   -0.444743
     6  C   -0.454568
     7  C   -0.264690
     8  C   -0.101276
     9  C   -0.258913
    10  C   -0.256308
    11  C   -0.251595
    12  C   -0.442174
    13  C   -0.348909
    14  H    0.155924
    15  H    0.146057
    16  H    0.143835
    17  H    0.138717
    18  H    0.141925
    19  H    0.154774
    20  H    0.141135
    21  H    0.147203
    22  H    0.123429
    23  H    0.131388
    24  H    0.139096
    25  H    0.125107
    26  H    0.128689
    27  H    0.129967
    28  H    0.134877
    29  H    0.129574
    30  H    0.138985
    31  H    0.143978
    32  H    0.143509
    33  H    0.141398
    34  H    0.146181
    35  H    0.163728
 Sum of Mulliken charges =  -0.00000
 Mulliken charges with hydrogens summed into heavy atoms:
               1
     1  O   -0.451974
     2  C    0.445108
     3  C   -0.037141
     4  C    0.079686
     5  C   -0.020266
     6  C   -0.011456
     7  C   -0.009872
     8  C    0.037820
     9  C   -0.005117
    10  C    0.008536
    11  C    0.016965
    12  C   -0.013289
    13  C   -0.039000
 APT charges:
               1
     1  O   -0.651097
     2  C    0.757819
     3  C   -0.096630
     4  C    0.146313
     5  C    0.061752
     6  C    0.032280
     7  C    0.067500
     8  C    0.099739
     9  C    0.131474
    10  C    0.107565
    11  C    0.112299
    12  C    0.102185
    13  C   -0.094754
    14  H   -0.025390
    15  H   -0.012578
    16  H   -0.031198
    17  H   -0.026286
    18  H   -0.028651
    19  H   -0.013320
    20  H   -0.020543
    21  H   -0.022377
    22  H   -0.047246
    23  H   -0.042760
    24  H   -0.042871
    25  H   -0.064058
    26  H   -0.057879
    27  H   -0.066852
    28  H   -0.041348
    29  H   -0.055247
    30  H   -0.049057
    31  H   -0.027298
    32  H   -0.041911
    33  H   -0.034519
    34  H   -0.007119
    35  H   -0.017936
 Sum of APT charges =  -0.00000
 APT charges with hydrogens summed into heavy atoms:
               1
     1  O   -0.651097
     2  C    0.757819
     3  C   -0.134597
     4  C    0.146313
     5  C   -0.024382
     6  C   -0.023961
     7  C   -0.022506
     8  C    0.056868
     9  C    0.009537
    10  C   -0.000636
    11  C    0.007995
    12  C   -0.001543
    13  C   -0.119810
 Electronic spatial extent (au):  <R**2>=           3424.6606
 Charge=             -0.0000 electrons
 Dipole moment (field-independent basis, Debye):
    X=              0.1938    Y=             -2.8968    Z=             -0.8399  Tot=              3.0223
 Quadrupole moment (field-independent basis, Debye-Ang):
   XX=            -81.0642   YY=            -93.4090   ZZ=            -81.4225
   XY=              3.1605   XZ=              0.8966   YZ=             -2.2433
 Traceless Quadrupole moment (field-independent basis, Debye-Ang):
   XX=              4.2343   YY=             -8.1104   ZZ=              3.8761
   XY=              3.1605   XZ=              0.8966   YZ=             -2.2433
 Octapole moment (field-independent basis, Debye-Ang**2):
  XXX=            -12.9964  YYY=            -26.1905  ZZZ=             -2.1739  XYY=             12.9890
  XXY=              0.8682  XXZ=              0.2032  XZZ=             -3.2991  YZZ=              4.8600
  YYZ=             -3.3039  XYZ=              2.5446
 Hexadecapole moment (field-independent basis, Debye-Ang**3):
 XXXX=          -3371.6329 YYYY=           -924.5458 ZZZZ=           -465.3160 XXXY=            -35.6899
 XXXZ=            -11.4004 YYYX=             30.8386 YYYZ=            -17.7446 ZZZX=              8.9069
 ZZZY=              2.2331 XXYY=           -711.3509 XXZZ=           -632.3512 YYZZ=           -212.4216
 XXYZ=             -0.5920 YYXZ=              2.2482 ZZXY=             -5.3498
 N-N= 8.494487467952D+02 E-N=-2.963122562231D+03  KE= 5.404278198382D+02
  Exact polarizability: 144.713   1.940 122.192  -1.311   2.599 110.178
 Approx polarizability: 170.149  -0.878 185.179  -1.223   7.563 167.857
 Calling FoFJK, ICntrl=    100127 FMM=F ISym2X=0 I1Cent= 0 IOpClX= 0 NMat=1 NMatS=1 NMatT=0.
 Full mass-weighted force constant matrix:
 Low frequencies ---   -7.6861   -0.0009   -0.0003    0.0005    0.9065    6.1700
 Low frequencies ---   31.0138   58.9516   77.0701
 Diagonal vibrational polarizability:
       13.5346552       5.3537790      13.6228368
 Harmonic frequencies (cm**-1), IR intensities (KM/Mole), Raman scattering
 activities (A**4/AMU), depolarization ratios for plane and unpolarized
 incident light, reduced masses (AMU), force constants (mDyne/A),
 and normal coordinates:
                      1                      2                      3
                      A                      A                      A
 Frequencies --     30.9610                58.9489                77.0698
 Red. masses --      3.3193                 3.2994                 1.6799
 Frc consts  --      0.0019                 0.0068                 0.0059
 IR Inten    --      0.3015                 0.2908                 0.0457
  Atom  AN      X      Y      Z        X      Y      Z        X      Y      Z
     1   8     0.12  -0.04   0.10    -0.12   0.01   0.01    -0.02  -0.01   0.02
     2   6     0.08  -0.02   0.06    -0.05   0.01   0.01    -0.01  -0.00   0.00
     3   6     0.05   0.03  -0.01    -0.02  -0.02  -0.09    -0.01  -0.01   0.00
     4   6    -0.03   0.01  -0.03    -0.04   0.00  -0.03     0.00  -0.01  -0.00
     5   6    -0.05   0.07  -0.10     0.01  -0.04  -0.09     0.01  -0.02  -0.00
     6   6    -0.08  -0.03  -0.03    -0.16   0.06  -0.02     0.00  -0.01  -0.00
     7   6    -0.03  -0.03  -0.00     0.02   0.01   0.09     0.01   0.00  -0.00
     8   6    -0.01  -0.08   0.05     0.01   0.03   0.12     0.00   0.02  -0.00
     9   6    -0.01  -0.12   0.08    -0.00   0.02   0.10     0.00   0.02   0.00
    10   6    -0.02  -0.09  -0.01     0.01   0.02   0.01     0.01   0.01  -0.01
    11   6    -0.03   0.15  -0.03     0.15  -0.05  -0.03    -0.06   0.16   0.00
    12   6    -0.04   0.19  -0.12     0.17  -0.07  -0.16     0.07  -0.15  -0.00
    13   6     0.06  -0.06   0.06     0.01   0.03   0.12    -0.01   0.01  -0.01
    14   1     0.06   0.06  -0.02    -0.08  -0.03  -0.19    -0.01  -0.02   0.00
    15   1     0.08   0.07  -0.02     0.09  -0.06  -0.11    -0.01  -0.01   0.00
    16   1    -0.05   0.10  -0.13    -0.03  -0.05  -0.18     0.01  -0.03  -0.00
    17   1    -0.02   0.10  -0.11     0.09  -0.07  -0.10     0.02  -0.02  -0.01
    18   1    -0.11   0.05  -0.13    -0.00  -0.02  -0.06     0.02  -0.02  -0.01
    19   1    -0.07  -0.08   0.02    -0.18   0.07   0.01    -0.01  -0.01   0.00
    20   1    -0.14  -0.05  -0.04    -0.20   0.08   0.03     0.01  -0.01  -0.00
    21   1    -0.08  -0.00  -0.05    -0.19   0.08  -0.11    -0.00  -0.02  -0.00
    22   1    -0.01  -0.00  -0.01     0.09  -0.04   0.08     0.01   0.00   0.00
    23   1    -0.09  -0.04  -0.01     0.01   0.03   0.13     0.02   0.01   0.00
    24   1    -0.03  -0.10   0.06    -0.00   0.02   0.12     0.00   0.02  -0.00
    25   1    -0.03  -0.21   0.10    -0.05  -0.00   0.12     0.01   0.00   0.00
    26   1     0.00  -0.08   0.16     0.02   0.03   0.12     0.01   0.03   0.02
    27   1    -0.01  -0.17   0.08    -0.05   0.05  -0.09     0.02  -0.07   0.09
    28   1    -0.02  -0.16  -0.17    -0.04   0.05   0.06     0.05  -0.04  -0.12
    29   1    -0.01   0.23   0.13     0.20  -0.08  -0.08    -0.31   0.26   0.19
    30   1    -0.04   0.23  -0.14     0.22  -0.08   0.07     0.04   0.42  -0.16
    31   1    -0.06   0.12  -0.29     0.13  -0.05  -0.11     0.35  -0.27  -0.24
    32   1    -0.04   0.37  -0.14     0.29  -0.13  -0.19    -0.01   0.01   0.01
    33   1    -0.02   0.12  -0.02     0.10  -0.05  -0.27    -0.04  -0.45   0.21
    34   1     0.08  -0.04   0.06     0.10   0.05   0.11    -0.02   0.01  -0.01
    35   1     0.09  -0.10   0.09    -0.02   0.05   0.20    -0.01   0.02  -0.02
                      4                      5                      6
                      A                      A                      A
 Frequencies --     88.0516               113.7477               160.0417
 Red. masses --      4.6730                 2.7364                 2.7829
 Frc consts  --      0.0213                 0.0209                 0.0420
 IR Inten    --      2.7692                 0.8091                 0.1333
  Atom  AN      X      Y      Z        X      Y      Z        X      Y      Z
     1   8     0.05  -0.20   0.31    -0.11   0.01   0.00     0.04   0.03  -0.04
     2   6    -0.01  -0.05  -0.03    -0.00  -0.00   0.04     0.04   0.01   0.02
     3   6    -0.01  -0.03  -0.18     0.04  -0.04  -0.11     0.05  -0.01   0.04
     4   6    -0.00   0.04  -0.02     0.03   0.01  -0.02     0.02  -0.01   0.06
     5   6     0.02  -0.02   0.06     0.02  -0.01   0.08     0.08  -0.04  -0.09
     6   6    -0.03   0.22  -0.04     0.08   0.12  -0.04    -0.16  -0.00   0.07
     7   6     0.02  -0.01   0.06     0.01  -0.02  -0.04     0.07  -0.01   0.18
     8   6     0.00   0.04  -0.06     0.03  -0.06   0.03     0.06   0.03   0.03
     9   6     0.01   0.02  -0.03    -0.01  -0.02  -0.09    -0.01   0.03  -0.10
    10   6     0.01   0.02  -0.01    -0.01  -0.04  -0.06     0.00  -0.01  -0.12
    11   6    -0.01  -0.01  -0.00    -0.08  -0.00  -0.04    -0.08  -0.02  -0.09
    12   6    -0.01   0.00   0.03    -0.09   0.01   0.03    -0.10  -0.01   0.06
    13   6    -0.05  -0.01  -0.17     0.10   0.03   0.22     0.02   0.01  -0.00
    14   1    -0.07  -0.02  -0.29    -0.04  -0.05  -0.24     0.04  -0.01   0.01
    15   1     0.11  -0.13  -0.19     0.18  -0.10  -0.14     0.07  -0.02   0.04
    16   1     0.01  -0.00   0.01     0.03   0.02   0.07     0.02  -0.09  -0.17
    17   1     0.03  -0.14   0.08    -0.02  -0.09   0.09     0.20   0.00  -0.11
    18   1     0.04   0.03   0.17     0.03   0.02   0.15     0.07  -0.05  -0.12
    19   1    -0.03   0.27  -0.11     0.08   0.15  -0.11    -0.10  -0.11   0.17
    20   1    -0.03   0.28   0.08     0.11   0.15   0.03    -0.37  -0.02   0.11
    21   1    -0.03   0.28  -0.10     0.09   0.14  -0.04    -0.16   0.14  -0.06
    22   1     0.02  -0.15   0.09     0.00   0.04  -0.05     0.08  -0.19   0.21
    23   1     0.05   0.06   0.19    -0.02  -0.04  -0.08     0.12   0.06   0.32
    24   1     0.03   0.14  -0.08     0.05  -0.21   0.04     0.16   0.06   0.00
    25   1     0.03   0.00  -0.03    -0.05   0.08  -0.09    -0.09   0.11  -0.10
    26   1    -0.00   0.03  -0.01    -0.01  -0.06  -0.18    -0.00  -0.00  -0.18
    27   1     0.01   0.03  -0.02     0.01  -0.06  -0.02     0.01  -0.03  -0.09
    28   1     0.01   0.03   0.01     0.02  -0.05  -0.09     0.04  -0.01  -0.12
    29   1     0.00  -0.03  -0.03    -0.11   0.01  -0.01    -0.12  -0.02  -0.10
    30   1    -0.02  -0.04   0.01    -0.11   0.02  -0.10    -0.13  -0.03  -0.13
    31   1    -0.02   0.02   0.07    -0.06  -0.01  -0.01    -0.06  -0.00   0.08
    32   1    -0.03  -0.03   0.04    -0.16   0.05   0.04    -0.21  -0.03   0.09
    33   1     0.00   0.04   0.02    -0.05  -0.01   0.10    -0.04   0.01   0.12
    34   1    -0.15  -0.10  -0.15     0.29   0.20   0.18    -0.03  -0.03   0.00
    35   1    -0.04   0.01  -0.27     0.07   0.00   0.45     0.03   0.01  -0.06
                      7                      8                      9
                      A                      A                      A
 Frequencies --    181.3728               224.6076               241.4382
 Red. masses --      2.5812                 1.2005                 1.2888
 Frc consts  --      0.0500                 0.0357                 0.0443
 IR Inten    --      0.1639                 0.2456                 0.0172
  Atom  AN      X      Y      Z        X      Y      Z        X      Y      Z
     1   8     0.08  -0.03  -0.05     0.05   0.00  -0.01    -0.02  -0.01  -0.01
     2   6     0.05  -0.05  -0.00     0.02   0.00  -0.00    -0.01  -0.01   0.01
     3   6     0.03  -0.02  -0.02    -0.00   0.02   0.02    -0.01  -0.01   0.01
     4   6    -0.02  -0.02   0.00     0.00   0.01  -0.00    -0.01  -0.01   0.01
     5   6    -0.10   0.08   0.03     0.05  -0.05  -0.02    -0.06   0.06   0.01
     6   6    -0.02   0.01   0.00    -0.00   0.02  -0.00    -0.03  -0.01   0.01
     7   6    -0.04  -0.09   0.01     0.00   0.02  -0.00    -0.01  -0.02   0.01
     8   6    -0.02  -0.11   0.02    -0.00  -0.00   0.03     0.01  -0.02  -0.01
     9   6     0.04   0.03  -0.03    -0.02  -0.01   0.03     0.03   0.03  -0.05
    10   6    -0.06   0.24  -0.02    -0.04   0.03  -0.02     0.05   0.01  -0.01
    11   6    -0.01   0.08  -0.02    -0.04   0.01  -0.02     0.06  -0.04  -0.00
    12   6     0.03  -0.04   0.03    -0.03  -0.02  -0.01     0.03   0.03   0.03
    13   6     0.02  -0.10   0.04     0.01  -0.01   0.01    -0.02  -0.01   0.00
    14   1     0.03   0.00  -0.05     0.02   0.02   0.05    -0.00  -0.01   0.02
    15   1     0.06  -0.03  -0.02    -0.04   0.04   0.02    -0.02  -0.00   0.02
    16   1    -0.05   0.18   0.02    -0.01   0.02  -0.24    -0.06   0.27  -0.25
    17   1    -0.11   0.06   0.03     0.21  -0.24  -0.02     0.10  -0.18   0.02
    18   1    -0.19   0.08   0.06    -0.02   0.04   0.17    -0.27   0.15   0.25
    19   1     0.06  -0.09  -0.00    -0.30   0.39  -0.03    -0.12   0.10   0.02
    20   1    -0.16  -0.00   0.03     0.47   0.09  -0.03     0.11   0.01  -0.00
    21   1     0.03   0.15  -0.02    -0.17  -0.42   0.04    -0.08  -0.14   0.02
    22   1    -0.04  -0.10   0.02     0.01   0.05  -0.01    -0.02  -0.03   0.01
    23   1    -0.07  -0.08   0.04    -0.02  -0.00  -0.03    -0.01  -0.02   0.02
    24   1    -0.01  -0.14   0.02    -0.02  -0.00   0.03     0.02  -0.03  -0.01
    25   1     0.03   0.05  -0.04    -0.04  -0.05   0.04     0.04   0.11  -0.07
    26   1     0.19   0.02  -0.08     0.01   0.00   0.06     0.02  -0.01  -0.13
    27   1     0.00   0.43  -0.14    -0.03   0.06  -0.03     0.03   0.02  -0.04
    28   1    -0.23   0.30   0.13    -0.08   0.03  -0.01     0.06   0.03   0.04
    29   1    -0.06   0.02  -0.12    -0.06   0.00  -0.03     0.10  -0.05  -0.03
    30   1     0.04   0.06   0.07    -0.03   0.01  -0.01     0.03  -0.09   0.01
    31   1     0.10   0.05   0.23    -0.03   0.03   0.11     0.07  -0.13  -0.32
    32   1     0.09  -0.28   0.03     0.02  -0.16  -0.01    -0.15   0.41   0.05
    33   1    -0.04   0.00  -0.13    -0.06   0.03  -0.11     0.15  -0.13   0.38
    34   1     0.06  -0.08   0.04     0.02  -0.03   0.01    -0.03  -0.01   0.00
    35   1     0.03  -0.12   0.07     0.01  -0.01   0.00    -0.01  -0.01  -0.01
                     10                     11                     12
                      A                      A                      A
 Frequencies --    254.8049               269.9663               281.8918
 Red. masses --      1.3551                 1.7333                 1.9649
 Frc consts  --      0.0518                 0.0744                 0.0920
 IR Inten    --      0.2051                 0.1277                 0.0246
  Atom  AN      X      Y      Z        X      Y      Z        X      Y      Z
     1   8    -0.06  -0.01   0.01    -0.01  -0.01  -0.01    -0.04  -0.01   0.02
     2   6    -0.02   0.00  -0.00    -0.02  -0.02   0.01    -0.01   0.01  -0.03
     3   6     0.01  -0.02  -0.00    -0.04   0.02   0.02     0.02  -0.01  -0.03
     4   6     0.00  -0.01   0.01    -0.04   0.01   0.00     0.03   0.00  -0.01
     5   6    -0.05   0.07   0.01    -0.05   0.01   0.02     0.01   0.04  -0.02
     6   6     0.01  -0.04   0.01    -0.05   0.04   0.00     0.08  -0.05  -0.01
     7   6     0.01  -0.01   0.01    -0.03   0.00  -0.01     0.02   0.03   0.01
     8   6     0.01   0.02  -0.02     0.01  -0.03   0.00    -0.00   0.05   0.05
     9   6     0.01  -0.01  -0.01     0.04  -0.02   0.00    -0.02  -0.05   0.15
    10   6     0.06  -0.07  -0.03     0.08  -0.03  -0.10    -0.05   0.05  -0.10
    11   6     0.01   0.05  -0.02     0.07   0.03  -0.09    -0.00  -0.03  -0.12
    12   6     0.03   0.01   0.04     0.07   0.02   0.11    -0.03  -0.02   0.07
    13   6    -0.01   0.02  -0.02    -0.01  -0.03   0.02     0.01   0.03  -0.02
    14   1    -0.01  -0.03  -0.02    -0.02   0.03   0.04    -0.00  -0.02  -0.06
    15   1     0.01  -0.04  -0.00    -0.07   0.04   0.02     0.04  -0.05  -0.03
    16   1    -0.05   0.30  -0.25     0.01  -0.17   0.35     0.01   0.11  -0.09
    17   1     0.11  -0.16   0.02    -0.28   0.31   0.00     0.06  -0.01  -0.02
    18   1    -0.28   0.16   0.26     0.13  -0.11  -0.29    -0.07   0.06   0.04
    19   1     0.05  -0.11   0.03    -0.22   0.24  -0.01     0.18  -0.17  -0.01
    20   1    -0.06  -0.07  -0.02     0.19   0.09   0.01    -0.02  -0.10  -0.06
    21   1     0.03   0.00   0.02    -0.15  -0.19   0.00     0.15   0.04   0.05
    22   1     0.01  -0.02   0.01    -0.03   0.03  -0.01     0.06   0.04  -0.00
    23   1     0.03   0.00   0.02    -0.06  -0.01  -0.03     0.03   0.02  -0.00
    24   1     0.02   0.03  -0.02    -0.01  -0.04   0.01    -0.05   0.11   0.06
    25   1     0.01  -0.03  -0.00     0.00  -0.08   0.01    -0.11  -0.36   0.21
    26   1    -0.02   0.00   0.02     0.06   0.00   0.05     0.07   0.07   0.43
    27   1     0.03  -0.20   0.07     0.04  -0.09  -0.08    -0.08   0.12  -0.21
    28   1     0.14  -0.13  -0.15     0.09  -0.06  -0.16    -0.19   0.07  -0.06
    29   1    -0.05   0.09   0.05     0.03   0.03  -0.08    -0.01  -0.08  -0.21
    30   1     0.00   0.12  -0.10     0.03   0.03  -0.14    -0.04  -0.11  -0.07
    31   1     0.01   0.17   0.39     0.14   0.08   0.23     0.06  -0.06  -0.02
    32   1     0.12  -0.37   0.04    -0.08  -0.09   0.18    -0.24   0.09   0.13
    33   1    -0.03   0.18  -0.25     0.15   0.08   0.16     0.09  -0.07   0.28
    34   1    -0.01   0.03  -0.02    -0.02  -0.03   0.02     0.02  -0.02  -0.02
    35   1    -0.01   0.03  -0.02    -0.02  -0.02   0.01    -0.00   0.04  -0.03
                     13                     14                     15
                      A                      A                      A
 Frequencies --    288.8406               317.5094               371.8706
 Red. masses --      1.7396                 2.5636                 2.6710
 Frc consts  --      0.0855                 0.1523                 0.2176
 IR Inten    --      0.6853                 0.2686                 1.2137
  Atom  AN      X      Y      Z        X      Y      Z        X      Y      Z
     1   8    -0.06  -0.02   0.01     0.03  -0.03   0.00     0.13   0.07  -0.00
     2   6    -0.00  -0.00  -0.02     0.07   0.00  -0.08     0.01   0.06   0.01
     3   6     0.05  -0.04  -0.05     0.07  -0.04  -0.08    -0.01   0.04  -0.10
     4   6     0.04  -0.01   0.02    -0.02  -0.01   0.03    -0.05  -0.00  -0.09
     5   6    -0.05   0.13  -0.05    -0.05  -0.03   0.15    -0.05  -0.09   0.06
     6   6     0.07  -0.05   0.02    -0.15  -0.13   0.06     0.07  -0.10  -0.11
     7   6     0.04  -0.04   0.09    -0.02   0.08  -0.05    -0.01  -0.05   0.09
     8   6     0.01   0.02   0.02     0.00   0.08  -0.04    -0.05   0.03   0.11
     9   6    -0.01   0.02  -0.01    -0.01   0.03   0.01    -0.08   0.11   0.00
    10   6    -0.02  -0.00   0.03    -0.01   0.01   0.00     0.00  -0.03  -0.02
    11   6    -0.03  -0.01   0.03    -0.01  -0.01   0.00     0.03   0.00  -0.03
    12   6    -0.04  -0.01  -0.04    -0.01  -0.00  -0.01     0.03   0.02   0.03
    13   6     0.00   0.01  -0.02     0.12   0.09  -0.04    -0.06  -0.02   0.04
    14   1    -0.00  -0.05  -0.14     0.04   0.05  -0.23    -0.08   0.01  -0.18
    15   1     0.13  -0.12  -0.06     0.17  -0.17  -0.09     0.11   0.06  -0.13
    16   1     0.04   0.12   0.18     0.00  -0.04   0.28    -0.04  -0.10   0.11
    17   1    -0.19   0.44  -0.07    -0.20  -0.08   0.18    -0.16  -0.23   0.09
    18   1    -0.08   0.00  -0.33     0.03  -0.01   0.18     0.06  -0.02   0.18
    19   1    -0.10   0.16   0.01    -0.26  -0.09   0.24     0.12  -0.16  -0.13
    20   1     0.38  -0.03  -0.05    -0.11  -0.18  -0.05     0.10  -0.15  -0.24
    21   1    -0.02  -0.35   0.11    -0.25  -0.30   0.01     0.13  -0.12   0.04
    22   1     0.07  -0.19   0.11    -0.07   0.17  -0.06     0.14  -0.24   0.10
    23   1     0.08   0.03   0.22     0.05   0.04  -0.15    -0.02   0.04   0.28
    24   1     0.05   0.06   0.00    -0.04   0.08  -0.03    -0.03   0.04   0.11
    25   1    -0.01   0.08  -0.02    -0.00  -0.01   0.01    -0.14   0.29  -0.01
    26   1    -0.03   0.00  -0.06    -0.03   0.04   0.05    -0.12   0.03  -0.17
    27   1    -0.01  -0.00   0.04    -0.01   0.01  -0.00    -0.09  -0.17   0.01
    28   1     0.01   0.00   0.04     0.00   0.02   0.01     0.13  -0.06  -0.08
    29   1    -0.03  -0.01   0.04    -0.00  -0.02  -0.01     0.02   0.02   0.00
    30   1    -0.02   0.00   0.04    -0.01  -0.02   0.02     0.02   0.02  -0.05
    31   1    -0.07  -0.02  -0.07    -0.02  -0.01  -0.03     0.04   0.03   0.06
    32   1     0.04   0.01  -0.07    -0.01   0.02  -0.01    -0.03  -0.00   0.05
    33   1    -0.07  -0.02  -0.09    -0.01  -0.01  -0.00     0.07   0.04   0.05
    34   1    -0.01  -0.01  -0.02     0.27   0.16  -0.06    -0.12  -0.13   0.06
    35   1     0.01   0.01  -0.04     0.10   0.08   0.13    -0.01  -0.04  -0.08
                     16                     17                     18
                      A                      A                      A
 Frequencies --    391.7250               418.5941               435.8804
 Red. masses --      2.8658                 2.4447                 2.4393
 Frc consts  --      0.2591                 0.2524                 0.2731
 IR Inten    --      0.5112                 0.1752                 0.3036
  Atom  AN      X      Y      Z        X      Y      Z        X      Y      Z
     1   8    -0.04   0.16   0.03    -0.00   0.05   0.02     0.04  -0.04  -0.02
     2   6     0.03   0.11   0.13     0.00   0.05   0.00     0.06  -0.03  -0.03
     3   6     0.10  -0.01   0.03     0.05   0.00  -0.08     0.03  -0.07   0.09
     4   6     0.04  -0.07  -0.06    -0.01   0.06   0.10    -0.06  -0.11   0.02
     5   6    -0.03  -0.04   0.06     0.09  -0.01  -0.06    -0.11  -0.08  -0.07
     6   6    -0.06   0.02  -0.07     0.05  -0.03   0.12     0.06   0.07  -0.01
     7   6     0.03  -0.14  -0.01    -0.12  -0.01   0.01    -0.03  -0.04   0.03
     8   6    -0.03  -0.03  -0.15    -0.10  -0.06  -0.09    -0.07   0.08  -0.06
     9   6     0.04  -0.09   0.02    -0.08  -0.06  -0.05    -0.09   0.05   0.01
    10   6    -0.01   0.01   0.01    -0.06  -0.01   0.02    -0.05  -0.01   0.01
    11   6    -0.00  -0.00   0.01     0.07   0.03   0.00     0.03   0.01  -0.01
    12   6    -0.00  -0.01  -0.00     0.09   0.03   0.06     0.04   0.02   0.03
    13   6    -0.04   0.06  -0.04    -0.03  -0.00  -0.01     0.10   0.11  -0.02
    14   1     0.00  -0.11  -0.02    -0.10   0.03  -0.38     0.14  -0.02   0.22
    15   1     0.23   0.10  -0.01     0.31  -0.21  -0.12    -0.12   0.03   0.11
    16   1     0.03   0.02   0.14    -0.03  -0.15  -0.21    -0.12  -0.06  -0.12
    17   1    -0.16  -0.11   0.08     0.31   0.02  -0.09    -0.03  -0.01  -0.09
    18   1    -0.01  -0.01   0.12     0.15  -0.03  -0.10    -0.18  -0.11  -0.13
    19   1    -0.16   0.13  -0.05     0.07  -0.06   0.13     0.10   0.12  -0.24
    20   1    -0.02   0.08   0.03     0.08  -0.07   0.02     0.11   0.16   0.17
    21   1    -0.14  -0.03  -0.19     0.07  -0.07   0.22     0.12   0.18   0.03
    22   1    -0.00  -0.40   0.04    -0.24  -0.03   0.04    -0.04  -0.20   0.06
    23   1     0.11  -0.02   0.21    -0.12  -0.01   0.02     0.12   0.04   0.15
    24   1    -0.05   0.00  -0.14    -0.08  -0.08  -0.09    -0.08   0.11  -0.06
    25   1     0.13  -0.35   0.04     0.01  -0.02  -0.07    -0.06   0.04   0.01
    26   1     0.06   0.02   0.26    -0.10  -0.07  -0.08    -0.14   0.05   0.03
    27   1     0.04   0.09  -0.01    -0.07   0.02  -0.02    -0.10  -0.08   0.00
    28   1    -0.10   0.02   0.03    -0.12  -0.01   0.02     0.00  -0.03  -0.03
    29   1     0.01  -0.01  -0.01     0.09   0.04   0.02     0.04   0.01  -0.01
    30   1    -0.00  -0.02   0.03     0.09   0.03   0.03     0.04   0.00   0.01
    31   1     0.00  -0.01  -0.01     0.15   0.05   0.10     0.07   0.02   0.05
    32   1     0.01   0.00  -0.01     0.01  -0.00   0.09    -0.02   0.00   0.05
    33   1    -0.01  -0.02  -0.00     0.13   0.04   0.10     0.07   0.02   0.06
    34   1    -0.22   0.20  -0.03    -0.02   0.10  -0.02     0.34   0.30  -0.06
    35   1     0.06  -0.04  -0.10     0.03  -0.09   0.05     0.06   0.07   0.29
                     19                     20                     21
                      A                      A                      A
 Frequencies --    441.3415               499.8767               525.7292
 Red. masses --      1.9568                 2.5212                 2.7375
 Frc consts  --      0.2246                 0.3712                 0.4458
 IR Inten    --      0.9733                 1.3928                 8.2598
  Atom  AN      X      Y      Z        X      Y      Z        X      Y      Z
     1   8    -0.02  -0.03   0.02     0.08   0.04  -0.02     0.15  -0.00  -0.01
     2   6    -0.04   0.01  -0.07    -0.02   0.00   0.07    -0.12   0.02  -0.07
     3   6    -0.11   0.10  -0.01    -0.05  -0.03  -0.04    -0.09  -0.03  -0.03
     4   6    -0.05   0.09  -0.03    -0.12  -0.02   0.07     0.11  -0.03   0.01
     5   6     0.01  -0.01   0.02    -0.12  -0.08  -0.06     0.10   0.08   0.01
     6   6     0.02  -0.06  -0.03     0.04   0.01   0.07    -0.02  -0.00   0.04
     7   6    -0.01   0.01   0.10    -0.04   0.05   0.02     0.03  -0.12  -0.06
     8   6     0.04  -0.03  -0.08     0.05   0.02  -0.03    -0.09   0.00  -0.06
     9   6     0.06  -0.10  -0.04     0.14   0.02   0.02     0.01   0.09   0.06
    10   6     0.01   0.01   0.01     0.14   0.04  -0.02     0.05   0.00  -0.01
    11   6    -0.00   0.01   0.02    -0.04  -0.03   0.01    -0.01  -0.02  -0.01
    12   6     0.00  -0.00  -0.00    -0.08  -0.03  -0.04    -0.03  -0.01  -0.01
    13   6     0.05   0.03   0.02    -0.03   0.02   0.02    -0.11   0.03   0.07
    14   1     0.01   0.15   0.14    -0.19  -0.00  -0.33    -0.17  -0.17   0.00
    15   1    -0.29   0.14   0.02     0.25  -0.16  -0.10    -0.12  -0.12  -0.01
    16   1    -0.03  -0.08   0.01    -0.18  -0.14  -0.14     0.14   0.15   0.02
    17   1     0.01  -0.09   0.03     0.01  -0.03  -0.08     0.10   0.14   0.01
    18   1     0.11   0.03   0.08    -0.13  -0.10  -0.10     0.01   0.06  -0.02
    19   1     0.06  -0.12   0.01     0.12   0.00  -0.11    -0.09   0.02   0.17
    20   1     0.04  -0.13  -0.20     0.13   0.03   0.07    -0.10   0.00   0.08
    21   1     0.05  -0.12   0.11     0.14   0.04   0.25    -0.10  -0.01  -0.13
    22   1     0.01  -0.31   0.16    -0.08   0.10   0.02    -0.04  -0.20  -0.03
    23   1    -0.03   0.14   0.39    -0.03   0.02  -0.04     0.07  -0.07   0.02
    24   1     0.11  -0.02  -0.09     0.05   0.03  -0.03    -0.20  -0.02  -0.03
    25   1     0.12  -0.19  -0.04     0.15  -0.20   0.05     0.03  -0.07   0.07
    26   1     0.08  -0.05   0.05     0.21   0.10   0.21     0.03   0.14   0.18
    27   1     0.09   0.13  -0.01     0.17   0.00   0.05    -0.02  -0.15   0.06
    28   1    -0.09   0.04   0.06     0.20   0.04  -0.02     0.19  -0.03  -0.08
    29   1     0.00   0.00   0.02    -0.07  -0.05  -0.03    -0.02  -0.03  -0.03
    30   1     0.00   0.01   0.03    -0.08  -0.04  -0.03    -0.03  -0.03  -0.02
    31   1    -0.00  -0.01  -0.01    -0.14  -0.05  -0.10    -0.05  -0.02  -0.03
    32   1     0.03   0.00  -0.01     0.03   0.02  -0.08    -0.01   0.01  -0.02
    33   1    -0.02  -0.01  -0.02    -0.13  -0.04  -0.10    -0.03  -0.01  -0.02
    34   1     0.27   0.21  -0.02    -0.09   0.06   0.02     0.23   0.26   0.02
    35   1    -0.02   0.05   0.28    -0.05   0.06  -0.01    -0.19   0.02   0.46
                     22                     23                     24
                      A                      A                      A
 Frequencies --    555.7955               622.6636               745.8409
 Red. masses --      2.8749                 3.8549                 1.1853
 Frc consts  --      0.5233                 0.8806                 0.3885
 IR Inten    --      5.8106                 0.8696                 4.5962
  Atom  AN      X      Y      Z        X      Y      Z        X      Y      Z
     1   8     0.13   0.01  -0.05     0.01   0.13   0.13    -0.00   0.01   0.01
     2   6    -0.09  -0.05   0.09    -0.06   0.25  -0.23     0.00   0.01  -0.01
     3   6    -0.09  -0.07  -0.01    -0.05   0.02  -0.05    -0.02   0.01  -0.02
     4   6     0.02  -0.05  -0.01     0.03  -0.12   0.04     0.01  -0.01   0.00
     5   6    -0.04   0.01   0.00    -0.09  -0.07  -0.03    -0.02  -0.01  -0.00
     6   6    -0.01  -0.00  -0.02     0.01  -0.00   0.09     0.00  -0.00   0.02
     7   6     0.11   0.11   0.01     0.06  -0.09  -0.01     0.03   0.01   0.00
     8   6     0.11   0.07  -0.03     0.05  -0.07   0.12     0.03  -0.01  -0.02
     9   6    -0.05  -0.15  -0.08     0.04  -0.09  -0.03    -0.03   0.00  -0.03
    10   6    -0.12  -0.05   0.03    -0.01  -0.02   0.00    -0.05   0.04   0.00
    11   6     0.02   0.03   0.02    -0.00   0.00  -0.00    -0.03   0.06   0.02
    12   6     0.06   0.03   0.03     0.00   0.00   0.00     0.01   0.02   0.00
    13   6    -0.06   0.05   0.05     0.04   0.02  -0.05     0.01  -0.02   0.02
    14   1    -0.24  -0.18  -0.16    -0.02  -0.07   0.11    -0.00   0.01   0.01
    15   1     0.11  -0.12  -0.05    -0.31  -0.09   0.02    -0.06   0.02  -0.01
    16   1     0.04   0.14   0.05    -0.06  -0.00  -0.03    -0.00   0.01   0.00
    17   1    -0.11   0.06   0.01    -0.08   0.01  -0.04    -0.03  -0.00  -0.00
    18   1    -0.17  -0.00  -0.01    -0.22  -0.12  -0.09    -0.04  -0.02  -0.01
    19   1    -0.02   0.02  -0.05    -0.00   0.05   0.01     0.00   0.00   0.02
    20   1     0.00   0.02   0.02    -0.00   0.07   0.24     0.00   0.00   0.02
    21   1    -0.02   0.01  -0.06     0.00   0.07   0.02    -0.00  -0.00   0.02
    22   1     0.15   0.17  -0.00     0.09   0.19  -0.07     0.04   0.04  -0.00
    23   1     0.16   0.08  -0.07     0.04  -0.22  -0.27     0.04  -0.00  -0.03
    24   1     0.25   0.05  -0.06     0.07  -0.08   0.11     0.10  -0.05  -0.03
    25   1    -0.03  -0.09  -0.09    -0.03   0.12  -0.04    -0.00  -0.14  -0.02
    26   1    -0.18  -0.15  -0.08     0.03  -0.17  -0.21     0.03   0.06   0.09
    27   1    -0.02   0.20  -0.09     0.07   0.15  -0.08    -0.05  -0.26   0.31
    28   1    -0.38  -0.00   0.13    -0.17   0.02   0.09     0.18  -0.12  -0.32
    29   1     0.05   0.06   0.09    -0.02   0.03   0.06     0.30  -0.13  -0.35
    30   1     0.07   0.06   0.03     0.00   0.05  -0.04    -0.07  -0.33   0.38
    31   1     0.11   0.04   0.07     0.01   0.01   0.02     0.25  -0.01  -0.03
    32   1     0.00  -0.02   0.05    -0.00  -0.01   0.00     0.04  -0.06   0.00
    33   1     0.08   0.03   0.06     0.01   0.01  -0.00    -0.13  -0.17   0.03
    34   1    -0.11   0.11   0.04     0.24  -0.20  -0.05    -0.03  -0.05   0.02
    35   1    -0.19   0.21   0.04     0.06  -0.01  -0.04     0.04  -0.04  -0.04
                     25                     26                     27
                      A                      A                      A
 Frequencies --    774.2251               807.0033               837.8862
 Red. masses --      2.8894                 1.5848                 2.4867
 Frc consts  --      1.0204                 0.6081                 1.0286
 IR Inten    --      0.1557                 2.1008                 2.3960
  Atom  AN      X      Y      Z        X      Y      Z        X      Y      Z
     1   8    -0.02  -0.04  -0.03     0.00   0.00  -0.01     0.02  -0.07  -0.02
     2   6     0.04  -0.06   0.04    -0.02  -0.02   0.05     0.00  -0.03  -0.08
     3   6    -0.03   0.15  -0.11    -0.03   0.01   0.03     0.18   0.05  -0.03
     4   6     0.01   0.02  -0.04    -0.02   0.02  -0.01     0.01   0.01  -0.01
     5   6    -0.08  -0.06  -0.03     0.00   0.01   0.00    -0.03  -0.01  -0.01
     6   6     0.02   0.02   0.22     0.00   0.01   0.02     0.00   0.01   0.02
     7   6     0.14  -0.07  -0.13    -0.00  -0.03  -0.05    -0.03  -0.05   0.02
     8   6     0.04   0.03  -0.06     0.01  -0.00   0.02    -0.03   0.04   0.06
     9   6    -0.02   0.06   0.03     0.08  -0.03   0.10     0.02  -0.07  -0.04
    10   6    -0.06  -0.03   0.02     0.01  -0.04   0.06     0.07  -0.04  -0.04
    11   6     0.01  -0.02  -0.02    -0.00   0.05  -0.09    -0.02   0.03   0.04
[...]
 00045956,0.00005486,-0.00062163,-0.00058492,0.00082555,0.02419589,-0.0
 2049467,-0.00462705,0.02220374,-0.02134622,-0.05519804,-0.00191164,0.0
 0172407,0.00007686,0.00020481,0.00029846,0.00000291,-0.00001064,-0.000
 02961,-0.00000589,-0.00000191,0.00000044,-0.00000476,0.00000304,-0.000
 00345,0.00000071,0.00000407,0.00000351,-0.00000137,-0.00001072,-0.0000
 0426,-0.00000424,0.00000420,0.00000184,0.00002870,-0.00001809,-0.00001
 182,-0.00001016,-0.00000094,-0.00000242,-0.00000234,-0.00002615,-0.000
 10571,-0.00000044,-0.00004165,-0.00003964,-0.00002725,0.00004672,0.000
 64606,0.00024201,-0.00022373,-0.00002193,0.00002981,0.00005676,0.00012
 959,-0.00000755,0.00332189,0.00112092,-0.00535141,-0.00074373,-0.00042
 295,0.00135163,-0.01863118,0.01684556,0.00348328,-0.02818685,0.0215598
 2,0.05819395,0.00001093,0.00001042,0.00001027,0.00001286,-0.00000641,0
 .00000288,-0.00000436,0.00001028,-0.00000410,-0.00000589,0.00000583,-0
 .00001305,0.00000117,-0.00000047,0.00000340,0.00000572,0.00000261,-0.0
 0000256,-0.00001736,0.00001912,0.00002652,0.00005281,0.,-0.00009148,0.
 00015192,-0.00006832,0.00032420,0.00010884,0.00072524,-0.00109343,-0.0
 0850536,-0.00208033,-0.00816055,-0.16830630,-0.02793137,-0.12580361,-0
 .00005464,-0.00002662,0.00001569,0.00000340,0.00000377,0.00000100,-0.0
 0000207,0.00000067,0.00000268,0.00000086,-0.00000207,-0.00000071,-0.00
 000256,-0.00000036,0.00000201,0.00000320,0.00000230,0.00000158,-0.0000
 0901,0.00000121,-0.00000369,0.00000487,0.00000536,0.00000554,0.0000001
 8,-0.00000531,0.00000249,-0.00001070,-0.00001408,0.00000845,0.00001135
 ,0.00000727,0.00000246,-0.00004265,0.00005329,0.00004146,-0.00001796,-
 0.00005943,0.00006169,0.00016463,0.00019876,0.00003450,-0.00010736,-0.
 00003693,-0.00003158,0.00009056,-0.00032883,0.00083404,0.00050388,-0.0
 0254640,0.00057612,0.00080806,-0.00004352,0.00050735,0.17961503,0.0000
 5814,0.00003478,-0.00001273,-0.00003011,-0.00001777,0.00001160,-0.0000
 0226,0.00001672,0.00000243,-0.00001495,0.00001033,-0.00001420,0.000004
 55,-0.00000386,0.00000517,0.00000121,-0.00000665,-0.00000255,-0.000004
 74,0.00001108,0.00002525,0.00003739,0.00002033,-0.00009827,0.00012661,
 -0.00013330,-0.00001132,0.00046499,0.00136434,-0.00155716,-0.02296667,
 -0.00576136,-0.02414378,-0.02769110,-0.05596515,-0.03034969,-0.0000839
 2,-0.00010601,0.00001568,0.00000560,0.00000619,0.00000334,0.00000015,0
 .00000191,0.00000092,0.,-0.00000353,-0.00000045,-0.00000146,0.00000015
 ,0.00000049,0.00000480,0.00000376,0.00000228,-0.00001023,0.00000343,-0
 .00000600,0.00000819,0.00000900,0.00000780,0.00000155,-0.00000642,0.00
 000283,-0.00000840,-0.00001032,0.00000999,0.00002289,0.00001703,0.0000
 0703,-0.00007232,0.00004063,0.00001822,0.00005726,-0.00000134,0.000101
 11,0.00023842,0.00015931,0.00009554,-0.00000639,-0.00000258,0.00020897
 ,0.00017996,0.00007940,0.00094366,-0.00266178,-0.00611846,0.00090377,0
 .00070319,0.00137556,-0.00026096,0.03346558,0.06081877,0.00009864,0.00
 000401,-0.00001011,-0.00010624,0.00003417,0.00001016,0.00000941,-0.000
 00032,-0.00000256,-0.00002482,0.00000771,-0.00000724,0.00001056,-0.000
 00685,0.00000069,0.00000179,-0.00000759,0.00000180,0.00003181,-0.00001
 261,0.00001419,-0.00006068,-0.00000453,-0.00004322,0.00017068,0.000059
 79,0.00023652,0.00070672,0.00014596,0.00096167,0.00233611,-0.00013167,
 0.00181391,-0.12595629,-0.03065955,-0.18487254,-0.00000836,-0.00006900
 ,0.00000105,0.00000449,-0.00000485,0.00000228,-0.00000062,0.00000337,-
 0.00000060,0.00000019,-0.00000863,0.00000006,-0.00000117,0.00000194,0.
 00000019,0.00000200,0.00000322,0.00000136,-0.00000953,0.00000411,-0.00
 000209,0.00000496,0.00000606,0.00000424,0.00000269,-0.00000860,-0.0000
 0028,-0.00000286,-0.00000424,0.00000140,0.00000975,0.00000733,0.000003
 69,-0.00001241,0.00002240,0.00000991,-0.00004967,-0.00007258,0.0000162
 5,0.00003933,0.00008134,-0.00013739,0.00001204,-0.00003655,0.00000120,
 -0.00037389,-0.00010109,0.00045103,0.00081886,0.00054388,0.00109108,0.
 00005131,-0.00054110,0.00004273,0.13967412,0.03367581,0.19775646,0.000
 07030,-0.00003950,-0.00000275,-0.00007250,0.00009631,0.00001453,0.0000
 0240,-0.00001471,-0.00001366,-0.00004859,0.00000268,0.00000261,0.00002
 351,-0.00001322,-0.00000290,0.00001266,-0.00000845,0.00000965,0.000101
 21,-0.00004521,0.00000987,-0.00019135,-0.00002592,0.00002977,0.0003108
 2,0.00011189,0.00094311,-0.00041262,-0.00275525,-0.00096264,-0.0060670
 3,-0.00059878,0.01017641,-0.10149281,-0.01573144,0.10326298,0.00001494
 ,-0.00006456,-0.00001353,0.00000604,-0.00001002,0.00000238,-0.00000241
 ,0.00000275,-0.00000311,-0.00000103,-0.00001573,0.00000142,-0.00000012
 ,0.00000382,-0.00000100,-0.00000454,0.00000180,-0.00000217,-0.00000686
 ,0.00000261,0.00000699,-0.00000764,0.00000025,-0.00000233,0.00000432,-
 0.00001026,-0.00000487,0.00000256,0.00000468,-0.00000605,-0.00000519,0
 .00000353,-0.00000339,0.00002239,0.00001286,-0.00000601,-0.00014887,-0
 .00026700,0.00005842,0.00000513,0.00005937,-0.00005413,0.00040457,-0.0
 0006849,-0.00047103,0.00014271,-0.00003409,0.00037543,-0.00012553,0.00
 043379,-0.00004148,0.00061599,0.00007273,-0.00045166,0.01172188,0.0037
 3367,-0.02071963,0.10585284,0.00014208,-0.00004357,-0.00002477,-0.0001
 5596,0.00012623,0.00003474,0.00001396,-0.00002065,-0.00001523,-0.00005
 598,0.00001686,0.00000435,0.00002916,-0.00001716,-0.00000752,0.0000077
 5,-0.00002675,0.00001047,0.00010585,-0.00005141,-0.00000286,-0.0002043
 4,0.00020320,0.00007468,-0.00077839,0.00044690,0.00198620,-0.00162851,
 -0.00642653,-0.00190073,-0.01402900,-0.00375896,0.02996935,-0.01543136
 ,-0.05373963,0.03187895,0.00005085,-0.00010601,-0.00002141,0.00000805,
 -0.00001533,0.00000481,-0.00000183,0.00000486,-0.00000668,-0.00000096,
 -0.00001995,0.00000218,0.00000157,0.00000643,-0.00000355,-0.00000478,0
 .00000290,-0.00000085,-0.00000509,0.00000604,0.00001177,-0.00000834,0.
 00000074,-0.00000186,0.00000730,-0.00001250,-0.00000819,0.00001580,0.0
 0001667,-0.00002210,-0.00000445,0.00000739,0.00000211,0.00005860,-0.00
 001301,-0.00005559,-0.00035687,-0.00068877,0.00012593,-0.00001567,0.00
 002117,-0.00007410,-0.00029434,0.00017998,-0.00014581,0.00028905,0.000
 00026,-0.00013002,0.00022707,0.00132993,-0.00052426,0.00081573,0.00117
 163,0.00003707,0.00317189,-0.00006220,-0.00447138,0.01933256,0.0578008
 6,-0.00012466,0.00005223,0.00002045,0.00015477,-0.00012804,-0.00002285
 ,-0.00001467,0.00002468,0.00001189,0.00004555,-0.00001578,-0.00001483,
 -0.00002387,0.00001357,0.00000666,-0.00000653,0.00001503,-0.00000616,-
 0.00008369,0.00002183,-0.00000013,0.00013145,0.00000824,-0.00001926,-0
 .00001098,-0.00046729,-0.00002590,0.00010555,0.00102454,0.00109871,-0.
 00076605,-0.00052981,-0.00004589,0.10347330,0.03253098,-0.25624218,-0.
 00006524,0.00006523,0.00001286,-0.00000600,0.00001744,-0.00000307,0.00
 000115,-0.00000440,0.00000493,-0.00000014,0.00001816,-0.00000200,-0.00
 000103,-0.00000505,0.00000204,0.00000486,-0.00000270,0.00000155,0.0000
 1025,-0.00000654,-0.00000900,0.00000500,-0.00000371,0.00000113,-0.0000
 0579,0.00001417,0.00000347,-0.00000036,0.00000070,0.00000269,0.0000015
 4,-0.00000515,-0.00000070,-0.00000563,-0.00002220,0.00000334,0.0000458
 0,0.00010227,-0.00002820,0.00005903,0.00010269,0.00001232,-0.00013017,
 -0.00010385,0.00003985,-0.00003459,-0.00020734,0.00042796,0.00024713,0
 .00036995,0.00066239,-0.00026265,0.00050617,0.00014859,0.01107949,0.00
 283724,-0.02039608,-0.11422378,-0.03577749,0.27599058,0.00002380,0.000
 03150,-0.00001312,-0.00002392,-0.00003447,0.00000357,0.00000347,0.0000
 1175,0.00000501,-0.00000782,0.00000133,-0.00000168,0.00000034,-0.00000
 356,0.00000183,-0.00000194,-0.00000325,-0.00000068,-0.00000271,0.00000
 193,0.00005585,-0.00003476,-0.00014360,-0.00000505,0.00022827,-0.00005
 653,-0.00026677,0.00095267,-0.00030558,-0.00045132,0.01039166,-0.00924
 255,-0.00096253,-0.19076574,0.12848680,0.01777158,-0.00004318,-0.00002
 200,0.00000168,-0.00000020,0.00000388,0.00000167,0.00000190,0.00000024
 ,-0.00000177,-0.00000129,0.00000130,-0.00000047,0.00000155,0.00000016,
 -0.00000283,0.00000233,0.00000071,0.00000202,0.00000242,0.00000366,-0.
 00000087,0.00000115,-0.00000088,0.00000146,-0.00000153,0.00000148,-0.0
 0000049,-0.00000887,-0.00001663,-0.00000076,0.00000236,0.00000249,-0.0
 0000041,-0.00003467,0.00005680,0.00004593,0.00002123,0.00009848,-0.000
 03136,-0.00001351,-0.00000059,0.00000071,0.00013872,0.00036841,-0.0002
 8253,-0.00007636,0.00004894,0.00007746,0.00094995,0.00077618,0.0000005
 1,0.00028867,-0.00323811,0.00056528,-0.01621119,0.01438430,0.00334856,
 -0.01070065,0.00874919,0.00035705,0.20490120,0.00002276,-0.00004667,0.
 00002548,-0.00004184,0.00009597,-0.00001256,0.00000191,-0.00001830,-0.
 00001273,0.00000424,0.00002561,-0.00000411,0.00000510,0.00000306,0.000
 00385,0.00002762,0.00001659,-0.00000081,-0.00007721,0.00010918,0.00012
 912,0.00026222,-0.00001658,-0.00031044,-0.00034619,0.00019133,-0.00011
 686,0.00171304,0.00105501,-0.00134644,0.02389242,-0.02256968,-0.002698
 21,0.12802483,-0.16502390,-0.01627306,-0.00002421,0.00003340,0.0000268
 4,0.00000174,-0.00001018,-0.00000150,-0.00000317,0.00000169,0.00000285
 ,0.00000277,-0.00000653,-0.00000108,-0.00000318,0.00000004,0.00000432,
 -0.00000282,0.00000047,-0.00000394,-0.00002561,0.00000185,0.00000222,-
 0.00000045,0.00000596,0.00000112,-0.00000205,-0.00001587,0.00000384,-0
 .00003958,-0.00006414,0.00001996,-0.00000191,-0.00000843,-0.00001442,-
 0.00012238,0.00017673,0.00022324,-0.00004898,-0.00001414,0.00004185,0.
 00001813,-0.00002939,-0.00002488,-0.00105599,0.00039647,0.00092226,-0.
 00010007,0.00000656,0.00008024,-0.00009850,0.00134865,-0.00040915,-0.0
 0331823,-0.00559113,0.00057537,-0.00450376,0.00422006,0.00151933,-0.00
 417014,0.00364146,-0.00042849,-0.13996323,0.18212817,0.00002875,-0.000
 00449,-0.00000053,-0.00002755,0.00002574,0.00000094,-0.00000034,-0.000
 00149,-0.00000236,-0.00001586,-0.00000160,-0.00000310,0.00000752,-0.00
 000374,0.00000176,0.00000493,-0.00000084,0.00000453,0.00003882,-0.0000
 1837,-0.00000454,-0.00004000,0.00000548,-0.00005311,0.00012184,-0.0000
 3138,0.00002985,-0.00110037,0.00070324,0.00034377,-0.00145548,0.000928
 34,-0.00062502,0.01787666,-0.01637300,-0.05294908,-0.00000870,-0.00003
 413,-0.00000489,0.00000230,-0.00000192,0.00000067,-0.00000040,0.000001
 24,-0.00000045,-0.00000058,-0.00000485,0.00000025,-0.00000058,0.000000
 71,0.00000024,-0.00000094,0.00000065,-0.00000112,-0.00000395,-0.000000
 07,-0.00000024,-0.00000085,0.00000093,-0.00000062,0.00000110,-0.000003
 47,-0.00000136,-0.00000006,0.00000700,0.00000042,0.00000072,0.00000187
 ,-0.00000099,0.00001877,-0.00002942,-0.00000443,-0.00000953,-0.0000116
 5,-0.00000215,-0.00002952,-0.00002732,-0.00002694,0.00028150,-0.000043
 07,0.00014480,-0.00003434,0.00007314,0.00000637,0.00039332,-0.00029203
 ,-0.00003459,0.00008603,0.00041931,0.00081939,-0.01801225,0.01754215,0
 .00304687,0.02210386,-0.02093069,-0.00163737,-0.02022289,0.01809837,0.
 05094698,-0.00113507,0.00410003,-0.00300947,-0.01208851,-0.00071512,0.
 01687232,0.00025307,-0.00024875,-0.00107714,-0.00004611,-0.00027330,-0
 .00003081,-0.00005272,0.00000044,-0.00002532,-0.00007577,0.00002039,-0
 .00000910,0.00137658,0.00034979,-0.00011805,0.00950170,-0.00186455,-0.
 02205094,0.00181920,-0.00004694,-0.00062685,0.00006746,0.00008956,0.00
 015313,-0.00008798,0.00000533,-0.00012211,-0.00001110,0.00001762,0.000
 05438,-0.10174438,0.00552665,0.11002642,-0.00005616,-0.00008829,-0.000
 36280,0.00062682,0.00032487,-0.00030804,0.00000164,0.00002046,0.000001
 93,0.00000835,-0.00001159,0.00000483,-0.00001023,-0.00002183,0.0000038
 8,-0.00005062,0.00003866,-0.00001320,0.00003545,0.00003330,-0.00001148
 ,-0.00000912,-0.00002188,0.00004145,-0.00012125,0.00005396,0.00039309,
 0.00016112,0.00033000,0.00022608,-0.00278771,0.00006322,-0.00372843,-0
 .00010483,-0.00016943,0.00060127,0.00032082,-0.00036410,0.00015737,0.0
 0002678,-0.00000919,0.00002641,-0.00010962,-0.00002719,0.00002416,0.00
 007894,-0.00002660,-0.00000247,-0.00004158,-0.00003174,-0.00006969,-0.
 00000473,0.00002105,0.00000525,-0.00001145,-0.00001885,0.00000332,0.00
 001272,-0.00000244,0.00000196,0.11338130,0.00281557,-0.00294614,0.0035
 3686,0.01331926,0.00225114,-0.02805126,-0.00136470,-0.00035952,0.00311
 605,0.00038824,0.00025585,0.00011887,0.00004081,-0.00000221,0.00000749
 ,0.00003760,0.00017494,0.00000380,0.00056613,0.00009188,-0.00102531,-0
 .00096155,0.00029277,0.00115534,-0.00057839,0.00029734,0.00119731,0.00
 002383,0.00004952,0.00011500,-0.00011599,0.00014423,0.00002498,0.00004
 395,-0.00001285,-0.00004336,0.00718444,-0.05289373,-0.01958333,0.00004
 090,0.00041520,0.00042690,-0.00038616,-0.00157329,-0.00003470,-0.00001
 674,0.00001712,0.00001547,-0.00001600,-0.00002958,0.00001547,0.0000109
 8,-0.00000136,0.00000035,-0.00000387,-0.00001844,0.00006925,-0.0000380
 7,-0.00001325,0.00000740,-0.00000791,0.00001063,0.00001842,-0.00025506
 ,0.00007175,0.00001193,-0.00002314,0.00000768,0.00013334,0.00057623,0.
 00064093,0.00039240,0.00014424,0.00021151,-0.00014613,-0.00004277,-0.0
 0007130,-0.00011466,0.00002840,-0.00001856,-0.00003915,-0.00018464,-0.
 00008249,-0.00001010,0.00005116,-0.00005384,-0.00004278,0.00006868,0.0
 0001138,-0.00015998,-0.00001346,0.00001607,0.00000931,0.00000420,0.000
 01021,-0.00000584,0.00000361,-0.00002924,0.00001152,-0.00987615,0.0500
 2346,-0.00059035,-0.00057144,-0.00090777,0.00047868,0.00048404,0.00095
 126,0.00061814,0.00014888,-0.00059947,-0.00037697,-0.00004133,-0.00012
 786,0.00004609,-0.00004370,-0.00001350,0.00017927,0.00013070,0.0000219
 4,0.00140949,0.00065143,0.00063098,0.01034073,-0.00100053,-0.02715484,
 0.00191196,-0.00086941,0.00107799,-0.00015596,0.00025958,0.00000314,0.
 00023032,-0.00018048,0.00000593,-0.00010097,0.00002104,0.00006914,0.10
 689554,-0.01474732,-0.23145973,-0.00005649,-0.00014635,0.00023321,-0.0
 0032262,0.00002497,0.00054536,-0.00001597,-0.00001505,0.00000715,-0.00
 003650,-0.00002469,0.00003139,0.00000101,-0.00000072,0.00001463,-0.000
 14560,0.00003173,0.00006411,0.00001169,0.00001739,0.00004199,-0.000044
 98,-0.00006765,0.00004114,-0.00079365,-0.00065588,0.00050969,-0.000159
 33,0.00015302,0.00044601,-0.00455889,-0.00030986,-0.00291147,-0.001070
 04,0.00066683,0.00057502,-0.00003453,-0.00030270,0.00053021,-0.0000033
 3,0.00008111,0.00000829,0.00011680,0.00012720,-0.00010670,-0.00001632,
 -0.00001807,0.00003560,-0.00016348,-0.00000653,0.00008499,0.00001783,0
 .00000662,-0.00000248,-0.00000410,-0.00001859,0.00000398,0.00000298,0.
 00005109,-0.00000366,-0.11436688,0.01589954,0.25887885,0.00193465,-0.0
 0122415,0.00004026,0.01110209,0.01595233,-0.00169635,-0.00200684,0.002
 63398,0.00027909,-0.00038615,0.00028507,-0.00010595,0.00015486,-0.0000
 8044,0.00003715,0.00003532,-0.00009640,0.00006950,-0.00198848,0.001718
 09,-0.00408296,-0.01229876,-0.01592406,0.00349365,0.00010237,-0.001002
 12,0.00037096,-0.00064669,-0.00024496,-0.00076934,0.00023759,0.0002602
 4,-0.00009839,0.00002878,0.00004368,0.00000264,-0.15750014,-0.13394947
 ,0.01375286,0.00055783,0.00087017,0.00005945,-0.00007202,-0.00004903,-
 0.00005216,-0.00000546,-0.00011685,0.00000549,-0.00000184,0.00002167,-
 0.00000615,0.00004669,0.00005750,0.00001724,-0.00000772,0.00000537,-0.
 00001122,-0.00001195,0.00002258,0.00005598,0.00004875,-0.00004872,-0.0
 0005665,0.00031403,0.00035991,0.00005360,-0.00069103,-0.00136277,-0.00
 022338,0.00111326,0.00031358,0.00007904,-0.00002416,0.00003530,-0.0000
 9540,0.00013393,0.00017478,-0.00006260,0.00039125,0.00005697,0.0003481
 3,0.00018589,0.00114495,0.00051513,0.00002106,-0.00009141,0.00018927,0
 .00001278,0.00000348,-0.00022292,0.00003000,0.00003485,-0.00001310,-0.
 00001505,-0.00003174,0.00004061,0.00000392,-0.00002485,-0.00000390,-0.
 00912298,-0.01146361,0.00075645,0.16832422,-0.00005508,0.00611714,-0.0
 0051435,-0.02244708,-0.02704562,0.00310698,0.00491266,-0.00328998,-0.0
 0060054,0.00042355,0.00015595,0.00049502,-0.00004387,0.00009785,-0.000
 13780,-0.00016926,-0.00006527,0.00002519,0.00067241,0.00065188,0.00003
 764,0.00121384,0.00219145,-0.00154587,-0.00001658,0.00004778,-0.000433
 32,0.00045572,-0.00087095,0.00018446,-0.00002481,0.00008829,-0.0000060
 2,0.00005139,-0.00001329,-0.00001135,-0.12974131,-0.20648709,0.0166094
 6,-0.00089537,-0.00149529,-0.00013609,0.00010739,0.00044620,0.00013884
 ,0.00003562,0.00004913,0.00002493,0.00001775,0.00000539,0.00000839,-0.
 00010900,-0.00001836,-0.00005372,0.00003676,0.00000861,-0.00002019,0.0
 0000409,0.00001090,-0.00008655,0.00001067,0.00003439,0.00002874,-0.000
 01667,-0.00005072,0.00004980,0.00010584,0.00009787,0.00017948,-0.00013
 245,0.00025621,-0.00031982,0.00005827,-0.00001213,0.00002022,-0.000146
 13,0.00006752,0.00004650,0.00008951,0.00007701,0.00005578,0.00107844,-
 0.00094692,0.00059393,0.00001588,0.00002121,-0.00002190,-0.00000604,0.
 00003082,-0.00009570,-0.00001595,-0.00000993,0.00001142,-0.00000674,0.
 00000871,-0.00001142,-0.00000215,-0.00001409,-0.00000614,0.00282262,0.
 00311216,0.00026513,0.14171609,0.22674315,-0.00049057,0.00024263,-0.00
 123344,0.00054382,-0.00185601,-0.00056378,0.00002467,0.00039966,0.0012
 5937,-0.00026867,0.00066161,-0.00013175,0.00017418,-0.00008646,0.00002
 794,0.00000690,-0.00008153,0.00006284,-0.00290314,0.00143237,-0.003854
 65,-0.01509151,-0.02059666,0.00260055,0.00071761,-0.00026450,0.0004932
 4,-0.00013667,0.00052416,0.00036140,-0.00035096,0.00030108,0.00007375,
 0.00012304,0.00000632,-0.00001550,0.01339712,0.01624534,-0.05227088,0.
 00004530,0.00010969,0.00039334,-0.00037838,-0.00039745,0.00024051,0.00
 000605,-0.00009170,0.00003201,-0.00001442,0.00000935,0.00000002,0.0000
 4609,0.00006319,0.00003444,-0.00000141,0.00000912,-0.00001286,0.000007
 91,0.00002192,0.00004715,0.00003881,-0.00002780,-0.00004785,-0.0002971
 0,-0.00011376,0.00022464,-0.00101504,-0.00126484,0.00009059,0.00090638
 ,-0.00032859,0.00100055,-0.00006000,0.00010281,0.00000629,0.00010473,-
 0.00008863,-0.00004733,0.00011450,0.00001843,-0.00004676,-0.00023155,0
 .00024848,0.00006072,0.00013823,-0.00013573,0.00001295,0.00019813,-0.0
 0010861,-0.00032205,-0.00001874,0.00002922,0.00000584,-0.00000721,0.00
 000108,-0.00000181,0.00000240,-0.00007267,0.00000969,0.01733555,0.0229
 6959,-0.00152451,-0.01266606,-0.01788114,0.05303534\\0.00009208,0.0000
 0848,0.00000278,-0.00009487,-0.00001283,-0.00002685,0.00004395,0.00000
 361,0.00002210,-0.00001331,-0.00001517,-0.00002850,0.00000467,-0.00000
 262,0.00001541,0.00000526,-0.00000470,-0.00002057,0.00001600,0.0000006
 8,0.00002714,-0.00002612,0.00000467,-0.00004926,0.00001069,0.00001392,
 0.00002276,0.00000988,-0.00001482,0.00001971,-0.00001940,-0.00001551,-
 0.00000860,0.00000829,0.00000843,0.00000390,0.00003311,0.00001747,0.00
 006273,-0.00000526,0.00000406,-0.00000184,-0.00001355,-0.00000473,-0.0
 0000710,-0.00000084,0.00000425,0.00000021,0.00000132,0.00000120,-0.000
 00583,-0.00000311,0.00000902,0.00000134,-0.00001298,-0.00000344,0.0000
 0332,-0.00000265,-0.00000359,0.00000194,-0.00000549,0.00000239,0.00000
 561,-0.00000158,0.00000724,-0.00000341,0.00000281,-0.00001255,-0.00000
 116,0.00000121,0.00001301,-0.00000724,0.00000796,0.00000439,-0.0000001
 5,0.00000090,0.00000363,-0.00000263,-0.00000733,-0.00000290,-0.0000048
 4,-0.00000840,0.00000637,-0.00001364,-0.00000597,0.00000667,0.00000370
 ,0.00000274,-0.00000325,-0.00000231,0.00000234,-0.00000254,0.00000343,
 -0.00000126,-0.00000439,-0.00000733,-0.00000692,-0.00000146,-0.0000029
 2,-0.00000863,-0.00000120,-0.00000534,-0.00000554,-0.00001379,0.000003
 42\\\@


 IT PROBABLY IS NOT POSSIBLE FOR A SCIENTIST TO INTERROGATE NATURE 
 FROM A WHOLLY DISINTERESTED VIEWPOINT.
 EVEN IF HE HAS NO PARTICULAR AXE TO GRIND, HE IS LIKELY TO HAVE 
 A DISTINCTIVE WAY OF VIEWING NATURE.

                                                   -- JOHN LOSEE
 Job cpu time:       0 days  0 hours  3 minutes 48.6 seconds.
 Elapsed time:       0 days  0 hours  3 minutes 53.5 seconds.
 File lengths (MBytes):  RWF=    238 Int=      0 D2E=      0 Chk=     16 Scr=      1
 Normal termination of Gaussian 16 at Sat Feb 24 02:56:37 2024.
