 Entering Gaussian System, Link 0=g16
 Input=/Volumes/SSD-PMU3/b3lyp_6-31gd_freq/ASIOMLZOLVBKAC-JTQLQIEISA-N_calculating/gaussianinput1.gjf
 Output=/Volumes/SSD-PMU3/b3lyp_6-31gd_freq/ASIOMLZOLVBKAC-JTQLQIEISA-N_calculating/gaussianinput1.log
 Initial command:
 /Applications/g16/l1.exe "/Users/macmini_m1_2022/PycharmProjects/sphere_model/sphere_model_lib/Gau-87856.inp" -scrdir="/Users/macmini_m1_2022/PycharmProjects/sphere_model/sphere_model_lib/"
 Entering Link 1 = /Applications/g16/l1.exe PID=     87857.
  
 Copyright (c) 1988,1990,1992,1993,1995,1998,2003,2009,2016,
            Gaussian, Inc.  All Rights Reserved.
  
 This is part of the Gaussian(R) 16 program.  It is based on
 the Gaussian(R) 09 system (copyright 2009, Gaussian, Inc.),
 the Gaussian(R) 03 system (copyright 2003, Gaussian, Inc.),
 the Gaussian(R) 98 system (copyright 1998, Gaussian, Inc.),
 the Gaussian(R) 94 system (copyright 1995, Gaussian, Inc.),
 the Gaussian 92(TM) system (copyright 1992, Gaussian, Inc.),
 the Gaussian 90(TM) system (copyright 1990, Gaussian, Inc.),
 the Gaussian 88(TM) system (copyright 1988, Gaussian, Inc.),
 the Gaussian 86(TM) system (copyright 1986, Carnegie Mellon
 University), and the Gaussian 82(TM) system (copyright 1983,
 Carnegie Mellon University). Gaussian is a federally registered
 trademark of Gaussian, Inc.
  
 This software contains proprietary and confidential information,
 including trade secrets, belonging to Gaussian, Inc.
  
 This software is provided under written license and may be
 used, copied, transmitted, or stored only in accord with that
 written license.
  
 The following legend is applicable only to US Government
 contracts under FAR:
  
                    RESTRICTED RIGHTS LEGEND
  
 Use, reproduction and disclosure by the US Government is
 subject to restrictions as set forth in subparagraphs (a)
 and (c) of the Commercial Computer Software - Restricted
 Rights clause in FAR 52.227-19.
  
 Gaussian, Inc.
 340 Quinnipiac St., Bldg. 40, Wallingford CT 06492
  
  
 ---------------------------------------------------------------
 Warning -- This program may not be used in any manner that
 competes with the business of Gaussian, Inc. or will provide
 assistance to any competitor of Gaussian, Inc.  The licensee
 of this program is prohibited from giving any competitor of
 Gaussian, Inc. access to this program.  By using this program,
 the user acknowledges that Gaussian, Inc. is engaged in the
 business of creating and licensing software in the field of
 computational chemistry and represents and warrants to the
 licensee that it is not a competitor of Gaussian, Inc. and that
 it will not use this program in any manner prohibited above.
 ---------------------------------------------------------------
  

 Cite this work as:
 Gaussian 16, Revision A.03,
 M. J. Frisch, G. W. Trucks, H. B. Schlegel, G. E. Scuseria, 
 M. A. Robb, J. R. Cheeseman, G. Scalmani, V. Barone, 
 G. A. Petersson, H. Nakatsuji, X. Li, M. Caricato, A. V. Marenich, 
 J. Bloino, B. G. Janesko, R. Gomperts, B. Mennucci, H. P. Hratchian, 
 J. V. Ortiz, A. F. Izmaylov, J. L. Sonnenberg, D. Williams-Young, 
 F. Ding, F. Lipparini, F. Egidi, J. Goings, B. Peng, A. Petrone, 
 T. Henderson, D. Ranasinghe, V. G. Zakrzewski, J. Gao, N. Rega, 
 G. Zheng, W. Liang, M. Hada, M. Ehara, K. Toyota, R. Fukuda, 
 J. Hasegawa, M. Ishida, T. Nakajima, Y. Honda, O. Kitao, H. Nakai, 
 T. Vreven, K. Throssell, J. A. Montgomery, Jr., J. E. Peralta, 
 F. Ogliaro, M. J. Bearpark, J. J. Heyd, E. N. Brothers, K. N. Kudin, 
 V. N. Staroverov, T. A. Keith, R. Kobayashi, J. Normand, 
 K. Raghavachari, A. P. Rendell, J. C. Burant, S. S. Iyengar, 
 J. Tomasi, M. Cossi, J. M. Millam, M. Klene, C. Adamo, R. Cammi, 
 J. W. Ochterski, R. L. Martin, K. Morokuma, O. Farkas, 
 J. B. Foresman, and D. J. Fox, Gaussian, Inc., Wallingford CT, 2016.
 
 ******************************************
 Gaussian 16:  EM64M-G16RevA.03 25-Dec-2016
                24-Feb-2024 
 ******************************************
 %nprocshared=10
 Will use up to   10 processors via shared memory.
 %mem=12GB
 %chk= 1.chk
 ---------------------
 # freq b3lyp/6-31g(d)
 ---------------------
 1/10=4,30=1,38=1/1,3;
 2/12=2,17=6,18=5,40=1/2;
 3/5=1,6=6,7=1,11=2,25=1,30=1,71=2,74=-5,140=1/1,2,3;
 4//1;
 5/5=2,38=5,98=1/2;
 8/6=4,10=90,11=11/1;
 11/6=1,8=1,9=11,15=111,16=1/1,2,10;
 10/6=1/2;
 6/7=2,8=2,9=2,10=2,28=1/1;
 7/8=1,10=1,25=1/1,2,3,16;
 1/10=4,30=1/3;
 99//99;
 ---------
 good luck
 ---------
 Symbolic Z-matrix:
 Charge =  0 Multiplicity = 1
 O                     1.21721   0.        0. 
 C                     0.        0.        0. 
 C                    -0.82172  -1.28029  -0.00634 
 C                    -1.86297  -1.30361  -1.15931 
 C                    -2.79547  -2.51364  -0.97459 
 C                    -1.13291  -1.43904  -2.51138 
 C                    -2.70209  -0.00176  -1.1081 
 C                    -1.87767   1.29948  -1.13509 
 C                    -2.75201   2.56393  -1.02774 
 C                    -3.68891   2.81475  -2.21782 
 C                    -4.46209   4.13582  -2.10582 
 C                    -5.40201   4.3871   -3.28928 
 C                    -0.8189    1.28211  -0.00634 
 H                    -1.35759  -1.34118   0.95341 
 H                    -0.14089  -2.13572  -0.06449 
 H                    -3.34398  -2.45271  -0.02659 
 H                    -2.22831  -3.45231  -0.97506 
 H                    -3.53233  -2.56839  -1.78554 
 H                    -0.39884  -0.64248  -2.67343 
 H                    -0.59261  -2.39164  -2.56288 
 H                    -1.84678  -1.41313  -3.34371 
 H                    -3.30666  -0.01052  -0.18729 
 H                    -3.41404  -0.01148  -1.94293 
 H                    -1.34003   1.35227  -2.09297 
 H                    -3.34318   2.51219  -0.10043 
 H                    -2.08877   3.43388  -0.91518 
 H                    -3.10128   2.81804  -3.14808 
 H                    -4.40828   1.99014  -2.3144 
 H                    -3.74774   4.96697  -2.02201 
 H                    -5.04112   4.13806  -1.17142 
 H                    -5.93738   5.33708  -3.18035 
 H                    -4.84754   4.42401  -4.23502 
 H                    -6.15148   3.59088  -3.37694 
 H                    -0.13594   2.13405  -0.08055 
 H                    -1.34005   1.35375   0.96195 
 

 GradGradGradGradGradGradGradGradGradGradGradGradGradGradGradGradGradGrad
 Berny optimization.
 Initialization pass.
 Trust Radius=3.00D-01 FncErr=1.00D-07 GrdErr=1.00D-07 EigMax=2.50D+02 EigMin=1.00D-04
 Number of steps in this run=      2 maximum allowed number of steps=      2.
 GradGradGradGradGradGradGradGradGradGradGradGradGradGradGradGradGradGrad

                          Input orientation:                          
 ---------------------------------------------------------------------
 Center     Atomic      Atomic             Coordinates (Angstroms)
 Number     Number       Type             X           Y           Z
 ---------------------------------------------------------------------
      1          8           0        1.217211    0.000000    0.000000
      2          6           0        0.000000    0.000000    0.000000
      3          6           0       -0.821724   -1.280285   -0.006337
      4          6           0       -1.862968   -1.303609   -1.159309
      5          6           0       -2.795469   -2.513644   -0.974591
      6          6           0       -1.132911   -1.439043   -2.511376
      7          6           0       -2.702089   -0.001758   -1.108097
      8          6           0       -1.877667    1.299481   -1.135091
      9          6           0       -2.752007    2.563932   -1.027740
     10          6           0       -3.688911    2.814745   -2.217824
     11          6           0       -4.462090    4.135823   -2.105824
     12          6           0       -5.402013    4.387104   -3.289284
     13          6           0       -0.818899    1.282107   -0.006337
     14          1           0       -1.357594   -1.341177    0.953408
     15          1           0       -0.140890   -2.135721   -0.064487
     16          1           0       -3.343976   -2.452709   -0.026591
     17          1           0       -2.228306   -3.452313   -0.975060
     18          1           0       -3.532328   -2.568385   -1.785537
     19          1           0       -0.398840   -0.642479   -2.673431
     20          1           0       -0.592607   -2.391643   -2.562881
     21          1           0       -1.846781   -1.413125   -3.343707
     22          1           0       -3.306661   -0.010515   -0.187286
     23          1           0       -3.414042   -0.011483   -1.942931
     24          1           0       -1.340027    1.352270   -2.092967
     25          1           0       -3.343183    2.512188   -0.100425
     26          1           0       -2.088770    3.433877   -0.915179
     27          1           0       -3.101284    2.818041   -3.148079
     28          1           0       -4.408278    1.990137   -2.314399
     29          1           0       -3.747742    4.966973   -2.022013
     30          1           0       -5.041121    4.138060   -1.171417
     31          1           0       -5.937375    5.337078   -3.180346
     32          1           0       -4.847538    4.424011   -4.235024
     33          1           0       -6.151475    3.590882   -3.376943
     34          1           0       -0.135939    2.134050   -0.080548
     35          1           0       -1.340049    1.353748    0.961949
 ---------------------------------------------------------------------
                    Distance matrix (angstroms):
                    1          2          3          4          5
     1  O    0.000000
     2  C    1.217211   0.000000
     3  C    2.407577   1.521315   0.000000
     4  C    3.539901   2.552262   1.553730   0.000000
     5  C    4.834236   3.883668   2.520786   1.538786   0.000000
     6  C    3.728395   3.108270   2.529281   1.542534   2.506107
     7  C    4.072934   2.920474   2.526713   1.549698   2.517164
     8  C    3.543353   2.550042   3.007373   2.603244   3.925308
     9  C    4.835772   3.899172   4.421228   3.970589   5.078040
    10  C    6.075489   5.142917   5.466325   4.627673   5.543969
    11  C    7.334438   6.438150   6.855242   6.102356   6.947858
    12  C    8.595359   7.697260   7.992252   7.031774   7.731248
    13  C    2.406155   1.521326   2.562394   3.017508   4.387718
    14  H    3.055710   2.133261   1.100897   2.172645   2.675695
    15  H    2.531778   2.141334   1.094846   2.203769   2.831590
    16  H    5.178891   4.147127   2.781500   2.190175   1.096940
    17  H    4.974012   4.223098   2.763079   2.187315   1.096710
    18  H    5.687079   4.718271   3.488858   2.185997   1.097083
    19  H    3.189300   2.778324   2.774710   2.207562   3.482980
    20  H    3.945093   3.555207   2.797057   2.183495   2.718483
    21  H    4.750300   4.072824   3.493770   2.187201   2.779184
    22  H    4.527759   3.311977   2.796421   2.168218   2.673354
    23  H    5.022312   3.928205   3.475682   2.165522   2.753384
    24  H    3.570520   2.829279   3.398972   2.863368   4.279529
    25  H    5.207530   4.183067   4.555157   4.227597   5.130609
    26  H    4.853718   4.122138   4.965352   4.749143   5.989654
    27  H    6.041619   5.241156   5.644751   4.740953   5.765799
    28  H    6.400251   5.361903   5.374586   4.319907   4.967925
    29  H    7.308222   6.542547   7.186986   6.604304   7.613380
    30  H    7.593581   6.626361   6.965571   6.301791   7.023308
    31  H    9.475606   8.593685   8.946156   8.048857   8.739037
    32  H    8.619077   7.810629   8.162595   7.153552   7.935519
    33  H    8.865422   7.882818   7.968406   6.874972   7.368806
    34  H    2.528176   2.139892   3.483316   3.995479   5.428948
    35  H    3.049190   2.133943   2.853834   3.440164   4.563459
                    6          7          8          9         10
     6  C    0.000000
     7  C    2.548980   0.000000
     8  C    3.154098   1.540657   0.000000
     9  C    4.565792   2.567433   1.541049   0.000000
    10  C    4.971320   3.184023   2.597872   1.535251   0.000000
    11  C    6.505923   4.605718   3.958080   2.560760   1.534795
    12  C    7.264596   5.595469   5.157032   3.932057   2.560285
    13  C    3.711938   2.531519   1.547701   2.534412   3.934034
    14  H    3.473440   2.802055   3.406667   4.595564   5.723936
    15  H    2.730702   3.493231   3.995397   5.461916   6.460064
    16  H    3.477137   2.754784   4.178249   5.149700   5.715466
    17  H    2.759241   3.485470   4.767400   6.039225   6.553918
    18  H    2.749447   2.781330   4.256920   5.246316   5.402729
    19  H    1.095279   2.857578   2.885243   4.304273   4.794220
    20  H    1.096370   3.503978   4.161053   5.619376   6.067342
    21  H    1.096840   2.778752   3.498167   4.690429   4.747203
    22  H    3.488162   1.101579   2.157880   2.764377   3.500185
    23  H    2.750385   1.097233   2.175243   2.812228   2.852838
    24  H    2.830087   2.158373   1.099714   2.143950   2.769779
    25  H    5.129348   2.783223   2.165394   1.100945   2.166667
    26  H    5.216020   3.495278   2.156055   1.099708   2.154219
    27  H    4.733143   3.503163   2.802746   2.163886   1.100314
    28  H    4.746167   2.886848   2.876068   2.174389   1.098542
    29  H    6.936415   5.159159   4.211212   2.784721   2.161918
    30  H    6.940726   4.755331   4.250446   2.781828   2.162083
    31  H    8.333439   6.577573   6.080007   4.740319   3.513432
    32  H    7.151561   5.828212   5.309652   4.258851   2.828648
    33  H    7.157886   5.472932   5.342458   4.257906   2.830224
    34  H    4.435073   3.493230   2.200496   2.815277   4.201774
    35  H    4.461678   2.824472   2.165538   2.723423   4.214572
                   11         12         13         14         15
    11  C    0.000000
    12  C    1.532049   0.000000
    13  C    5.081770   6.436123   0.000000
    14  H    6.999595   8.195789   2.844806   0.000000
    15  H    7.884928   8.979197   3.484914   1.774198   0.000000
    16  H    6.998724   7.852625   4.508356   2.478228   3.218956
    17  H    7.990509   8.768381   5.033844   2.988984   2.630563
    18  H    6.775946   7.357704   5.035329   3.706390   3.827671
    19  H    6.297964   7.120935   3.315701   3.815934   3.017101
    20  H    7.601948   8.343228   4.481469   3.748729   2.551767
    21  H    6.258036   6.803330   4.411219   4.325469   3.766363
    22  H    4.712528   5.775114   2.809373   2.621203   3.814929
    23  H    4.280781   5.011214   3.486910   3.792868   4.330642
    24  H    4.182775   5.209714   2.151865   4.066370   4.209364
    25  H    2.812431   4.233546   2.809619   4.461115   5.644380
    26  H    2.746454   4.186000   2.658699   5.179515   5.961404
    27  H    2.162091   2.788414   4.175993   6.096043   6.543106
    28  H    2.156471   2.771888   4.325748   5.575203   6.347866
    29  H    1.099149   2.163062   5.120479   7.372835   8.203021
    30  H    1.099272   2.162782   5.228866   6.935798   8.037281
    31  H    2.184966   1.095870   7.260573   9.091832   9.957436
    32  H    2.182914   1.096918   6.631990   8.505112   9.087134
    33  H    2.183283   1.096972   6.717722   8.127634   8.938315
    34  H    5.179230   6.565346   1.094417   3.826057   4.269804
    35  H    5.186358   6.616176   1.101956   2.694996   3.829876
                   16         17         18         19         20
    16  H    0.000000
    17  H    1.772998   0.000000
    18  H    1.772780   1.771631   0.000000
    19  H    4.353909   3.758534   3.783678   0.000000
    20  H    3.742530   2.514301   3.045892   1.763333   0.000000
    21  H    3.784916   3.148704   2.569745   1.771919   1.772044
    22  H    2.447760   3.691803   3.024571   3.877592   4.321957
    23  H    3.104328   3.765907   2.564471   3.165948   3.742993
    24  H    4.771120   5.012262   4.502470   2.280744   3.846601
    25  H    4.965446   6.130515   5.356081   5.024086   6.138153
    26  H    6.084162   6.887864   6.234463   4.750157   6.236193
    27  H    6.130530   6.693388   5.572782   4.416299   5.811775
    28  H    5.109372   6.013848   4.671949   4.809903   5.815590
    29  H    7.693921   8.619117   7.542145   6.565473   8.024752
    30  H    6.901389   8.097175   6.901449   6.830840   8.022622
    31  H    8.795037   9.791520   8.380101   8.166237   9.417056
    32  H    8.201273   8.917635   7.524850   6.920896   8.206926
    33  H    7.458680   8.412306   6.879613   7.176983   8.206968
    34  H    5.597568   6.032048   6.046101   3.808054   5.181932
    35  H    4.413847   5.257302   5.266678   4.252856   5.197216
                   21         22         23         24         25
    21  H    0.000000
    22  H    3.749874   0.000000
    23  H    2.526476   1.758926   0.000000
    24  H    3.077102   3.058832   2.486739   0.000000
    25  H    5.307182   2.524462   3.125502   3.054221   0.000000
    26  H    5.426761   3.725174   3.831857   2.506170   1.756954
    27  H    4.417557   4.099903   3.091344   2.522652   3.072500
    28  H    4.382115   3.121022   2.265607   3.141667   2.511702
    29  H    6.787207   5.323172   4.990254   4.343755   3.143587
    30  H    6.763010   4.602992   4.523420   4.723132   2.583307
    31  H    7.894611   6.669019   6.041979   6.180348   4.918917
    32  H    6.623530   6.198670   5.194440   5.130949   4.797193
    33  H    6.600877   5.589002   4.746258   5.459854   4.448107
    34  H    5.114454   3.829364   4.337942   2.472011   3.229520
    35  H    5.143057   2.655093   3.821470   3.054916   2.546207
                   26         27         28         29         30
    26  H    0.000000
    27  H    2.527901   0.000000
    28  H    3.069580   1.757464   0.000000
    29  H    2.515483   2.510745   3.063225   0.000000
    30  H    3.045966   3.067998   2.514055   1.755973   0.000000
    31  H    4.854371   3.793415   3.780214   2.504637   2.505337
    32  H    4.428604   2.609596   3.131372   2.530173   3.083007
    33  H    4.752947   3.154889   2.594247   3.083406   2.529157
    34  H    2.489921   4.320979   4.823244   4.983960   5.409886
    35  H    2.900195   4.705150   4.533594   5.268435   5.099174
                   31         32         33         34         35
    31  H    0.000000
    32  H    1.770249   0.000000
    33  H    1.770223   1.769367   0.000000
    34  H    7.316064   6.686012   7.012507   0.000000
    35  H    7.359411   6.981226   6.854238   1.773570   0.000000
 Stoichiometry    C12H22O
 Framework group  C1[X(C12H22O)]
 Deg. of freedom    99
 Full point group                 C1      NOp   1
 Largest Abelian subgroup         C1      NOp   1
 Largest concise Abelian subgroup C1      NOp   1
                         Standard orientation:                         
 ---------------------------------------------------------------------
 Center     Atomic      Atomic             Coordinates (Angstroms)
 Number     Number       Type             X           Y           Z
 ---------------------------------------------------------------------
      1          8           0        2.931586   -2.186533    0.572558
      2          6           0        2.226708   -1.402836   -0.036185
      3          6           0        2.725807   -0.046382   -0.510878
      4          6           0        1.809294    1.115062   -0.036399
      5          6           0        2.245550    2.418704   -0.727819
      6          6           0        1.946847    1.290481    1.489942
      7          6           0        0.344855    0.795517   -0.429935
      8          6           0       -0.178247   -0.562412    0.076047
      9          6           0       -1.618415   -0.858365   -0.385644
     10          6           0       -2.694319    0.074620    0.187912
     11          6           0       -4.117772   -0.324864   -0.224143
     12          6           0       -5.193877    0.607028    0.342203
     13          6           0        0.772504   -1.698921   -0.370937
     14          1           0        2.737748   -0.058378   -1.611645
     15          1           0        3.756004    0.090355   -0.166373
     16          1           0        2.153852    2.341211   -1.818169
     17          1           0        3.289999    2.658433   -0.494514
     18          1           0        1.627562    3.263201   -0.398415
     19          1           0        1.717646    0.371603    2.040184
     20          1           0        2.971704    1.577548    1.753170
     21          1           0        1.274489    2.077044    1.853687
     22          1           0        0.266047    0.810243   -1.528593
     23          1           0       -0.299920    1.604841   -0.064996
     24          1           0       -0.182444   -0.547107    1.175646
     25          1           0       -1.654800   -0.827256   -1.485547
     26          1           0       -1.865704   -1.892288   -0.104202
     27          1           0       -2.623871    0.078221    1.285963
     28          1           0       -2.509529    1.108875   -0.132966
     29          1           0       -4.314127   -1.354833    0.105610
     30          1           0       -4.186270   -0.339279   -1.321184
     31          1           0       -6.197364    0.294759    0.031667
     32          1           0       -5.172721    0.616715    1.438874
     33          1           0       -5.045610    1.638692    0.000103
     34          1           0        0.496698   -2.656835    0.080816
     35          1           0        0.694310   -1.809300   -1.464560
 ---------------------------------------------------------------------
 Rotational constants (GHZ):           1.2621194           0.3695134           0.3143959
 Standard basis: 6-31G(d) (6D, 7F)
 There are   239 symmetry adapted cartesian basis functions of A   symmetry.
 There are   239 symmetry adapted basis functions of A   symmetry.
   239 basis functions,   452 primitive gaussians,   239 cartesian basis functions
    51 alpha electrons       51 beta electrons
       nuclear repulsion energy       839.0412008116 Hartrees.
 NAtoms=   35 NActive=   35 NUniq=   35 SFac= 1.00D+00 NAtFMM=   60 NAOKFM=F Big=F
 Integral buffers will be    131072 words long.
 Raffenetti 2 integral format.
 Two-electron integral symmetry is turned on.
 One-electron integrals computed using PRISM.
 NBasis=   239 RedAO= T EigKep=  2.38D-03  NBF=   239
 NBsUse=   239 1.00D-06 EigRej= -1.00D+00 NBFU=   239
 ExpMin= 1.61D-01 ExpMax= 5.48D+03 ExpMxC= 8.25D+02 IAcc=3 IRadAn=         5 AccDes= 0.00D+00
 Harris functional with IExCor=  402 and IRadAn=       5 diagonalized for initial guess.
 HarFok:  IExCor=  402 AccDes= 0.00D+00 IRadAn=         5 IDoV= 1 UseB2=F ITyADJ=14
 ICtDFT=  3500011 ScaDFX=  1.000000  1.000000  1.000000  1.000000
 FoFCou: FMM=F IPFlag=           0 FMFlag=      100000 FMFlg1=           0
         NFxFlg=           0 DoJE=T BraDBF=F KetDBF=T FulRan=T
         wScrn=  0.000000 ICntrl=       500 IOpCl=  0 I1Cent=   200000004 NGrid=           0
         NMat0=    1 NMatS0=      1 NMatT0=    0 NMatD0=    1 NMtDS0=    0 NMtDT0=    0
 Petite list used in FoFCou.
 Requested convergence on RMS density matrix=1.00D-08 within 128 cycles.
 Requested convergence on MAX density matrix=1.00D-06.
 Requested convergence on             energy=1.00D-06.
 No special actions if energy rises.
 Integral accuracy reduced to 1.0D-05 until final iterations.
 Initial convergence to 1.0D-05 achieved.  Increase integral accuracy.
 SCF Done:  E(RB3LYP) =  -545.773474424     A.U. after   13 cycles
            NFock= 13  Conv=0.72D-08     -V/T= 2.0099
 DoSCS=F DFT=T ScalE2(SS,OS)=  1.000000  1.000000
 Range of M.O.s used for correlation:     1   239
 NBasis=   239 NAE=    51 NBE=    51 NFC=     0 NFV=     0
 NROrb=    239 NOA=    51 NOB=    51 NVA=   188 NVB=   188
 Symmetrizing basis deriv contribution to polar:
 IMax=3 JMax=2 DiffMx= 0.00D+00
 G2DrvN: will do    36 centers at a time, making    1 passes.
 Calling FoFCou, ICntrl=  3107 FMM=F I1Cent=   0 AccDes= 0.00D+00.
 End of G2Drv F.D. properties file   721 does not exist.
 End of G2Drv F.D. properties file   722 does not exist.
 End of G2Drv F.D. properties file   788 does not exist.
          IDoAtm=11111111111111111111111111111111111
          Differentiating once with respect to electric field.
                with respect to dipole field.
          Differentiating once with respect to nuclear coordinates.
 Keep R1 ints in memory in canonical form, NReq=421970854.
          There are   108 degrees of freedom in the 1st order CPHF.  IDoFFX=6 NUNeed=     3.
    105 vectors produced by pass  0 Test12= 9.59D-15 1.00D-09 XBig12= 8.32D+01 2.40D+00.
 AX will form   105 AO Fock derivatives at one time.
    105 vectors produced by pass  1 Test12= 9.59D-15 1.00D-09 XBig12= 8.24D+00 6.49D-01.
    105 vectors produced by pass  2 Test12= 9.59D-15 1.00D-09 XBig12= 5.49D-02 2.17D-02.
    105 vectors produced by pass  3 Test12= 9.59D-15 1.00D-09 XBig12= 1.34D-04 1.23D-03.
    105 vectors produced by pass  4 Test12= 9.59D-15 1.00D-09 XBig12= 1.31D-07 3.59D-05.
     46 vectors produced by pass  5 Test12= 9.59D-15 1.00D-09 XBig12= 7.97D-11 5.86D-07.
      3 vectors produced by pass  6 Test12= 9.59D-15 1.00D-09 XBig12= 4.64D-14 1.49D-08.
 InvSVY:  IOpt=1 It=  1 EMax= 5.33D-15
 Solved reduced A of dimension   574 with   108 vectors.
 Isotropic polarizability for W=    0.000000      126.34 Bohr**3.
 End of Minotr F.D. properties file   721 does not exist.
 End of Minotr F.D. properties file   722 does not exist.
 End of Minotr F.D. properties file   788 does not exist.

 **********************************************************************

            Population analysis using the SCF density.

 **********************************************************************

 Orbital symmetries:
       Occupied  (A) (A) (A) (A) (A) (A) (A) (A) (A) (A) (A) (A)
                 (A) (A) (A) (A) (A) (A) (A) (A) (A) (A) (A) (A)
                 (A) (A) (A) (A) (A) (A) (A) (A) (A) (A) (A) (A)
                 (A) (A) (A) (A) (A) (A) (A) (A) (A) (A) (A) (A)
                 (A) (A) (A)
       Virtual   (A) (A) (A) (A) (A) (A) (A) (A) (A) (A) (A) (A)
                 (A) (A) (A) (A) (A) (A) (A) (A) (A) (A) (A) (A)
                 (A) (A) (A) (A) (A) (A) (A) (A) (A) (A) (A) (A)
                 (A) (A) (A) (A) (A) (A) (A) (A) (A) (A) (A) (A)
                 (A) (A) (A) (A) (A) (A) (A) (A) (A) (A) (A) (A)
                 (A) (A) (A) (A) (A) (A) (A) (A) (A) (A) (A) (A)
                 (A) (A) (A) (A) (A) (A) (A) (A) (A) (A) (A) (A)
                 (A) (A) (A) (A) (A) (A) (A) (A) (A) (A) (A) (A)
                 (A) (A) (A) (A) (A) (A) (A) (A) (A) (A) (A) (A)
                 (A) (A) (A) (A) (A) (A) (A) (A) (A) (A) (A) (A)
                 (A) (A) (A) (A) (A) (A) (A) (A) (A) (A) (A) (A)
                 (A) (A) (A) (A) (A) (A) (A) (A) (A) (A) (A) (A)
                 (A) (A) (A) (A) (A) (A) (A) (A) (A) (A) (A) (A)
                 (A) (A) (A) (A) (A) (A) (A) (A) (A) (A) (A) (A)
                 (A) (A) (A) (A) (A) (A) (A) (A) (A) (A) (A) (A)
                 (A) (A) (A) (A) (A) (A) (A) (A)
 The electronic state is 1-A.
 Alpha  occ. eigenvalues --  -19.13007 -10.26586 -10.20692 -10.19709 -10.18661
 Alpha  occ. eigenvalues --  -10.18545 -10.18508 -10.18410 -10.18241 -10.18187
 Alpha  occ. eigenvalues --  -10.17851 -10.17682 -10.17498  -1.02862  -0.84766
 Alpha  occ. eigenvalues --   -0.80626  -0.77780  -0.73729  -0.70824  -0.68890
 Alpha  occ. eigenvalues --   -0.68548  -0.64235  -0.58522  -0.57408  -0.55305
 Alpha  occ. eigenvalues --   -0.52089  -0.48034  -0.46974  -0.45831  -0.45379
 Alpha  occ. eigenvalues --   -0.44417  -0.43369  -0.42158  -0.41478  -0.40914
 Alpha  occ. eigenvalues --   -0.40109  -0.38773  -0.38344  -0.37697  -0.36914
 Alpha  occ. eigenvalues --   -0.35913  -0.35440  -0.35014  -0.34360  -0.33129
 Alpha  occ. eigenvalues --   -0.32892  -0.32621  -0.31770  -0.30888  -0.30460
 Alpha  occ. eigenvalues --   -0.23197
 Alpha virt. eigenvalues --   -0.00943   0.07448   0.08942   0.10007   0.10654
 Alpha virt. eigenvalues --    0.11760   0.12366   0.13481   0.13944   0.14059
 Alpha virt. eigenvalues --    0.14938   0.15385   0.15799   0.16671   0.17442
 Alpha virt. eigenvalues --    0.17763   0.18418   0.18637   0.19077   0.20052
 Alpha virt. eigenvalues --    0.20289   0.21069   0.21284   0.21760   0.22856
 Alpha virt. eigenvalues --    0.23425   0.24269   0.24391   0.25643   0.26827
 Alpha virt. eigenvalues --    0.27178   0.28412   0.29075   0.30941   0.34831
 Alpha virt. eigenvalues --    0.36812   0.47991   0.50046   0.50463   0.51371
 Alpha virt. eigenvalues --    0.52416   0.53090   0.54368   0.55076   0.55283
 Alpha virt. eigenvalues --    0.57252   0.59518   0.61251   0.61832   0.62728
 Alpha virt. eigenvalues --    0.64374   0.65383   0.66973   0.67734   0.68575
 Alpha virt. eigenvalues --    0.69659   0.70133   0.72673   0.73062   0.74362
 Alpha virt. eigenvalues --    0.76626   0.78172   0.79259   0.80617   0.82147
 Alpha virt. eigenvalues --    0.83617   0.84694   0.85111   0.86067   0.86627
 Alpha virt. eigenvalues --    0.87411   0.87827   0.88787   0.89662   0.89809
 Alpha virt. eigenvalues --    0.90882   0.91151   0.91425   0.92233   0.93534
 Alpha virt. eigenvalues --    0.93692   0.94363   0.94837   0.95200   0.96107
 Alpha virt. eigenvalues --    0.96807   0.97058   0.97987   0.98902   1.00061
 Alpha virt. eigenvalues --    1.00915   1.03389   1.06351   1.09067   1.11254
 Alpha virt. eigenvalues --    1.14583   1.16936   1.20348   1.22869   1.25744
 Alpha virt. eigenvalues --    1.34513   1.34808   1.39400   1.42293   1.45750
 Alpha virt. eigenvalues --    1.48266   1.48867   1.50216   1.51418   1.54598
 Alpha virt. eigenvalues --    1.58793   1.63489   1.65966   1.67074   1.70061
 Alpha virt. eigenvalues --    1.71996   1.74499   1.76062   1.78791   1.79885
 Alpha virt. eigenvalues --    1.80726   1.84321   1.85790   1.86989   1.88077
 Alpha virt. eigenvalues --    1.90043   1.90865   1.91736   1.93698   1.93961
 Alpha virt. eigenvalues --    1.95911   1.96812   1.97224   1.99732   2.00972
 Alpha virt. eigenvalues --    2.02513   2.02989   2.04506   2.06663   2.08968
 Alpha virt. eigenvalues --    2.09600   2.10902   2.11360   2.16407   2.22230
 Alpha virt. eigenvalues --    2.23129   2.23263   2.24134   2.24355   2.26076
 Alpha virt. eigenvalues --    2.27296   2.29424   2.31335   2.36082   2.37345
 Alpha virt. eigenvalues --    2.40585   2.42667   2.47695   2.48277   2.51890
 Alpha virt. eigenvalues --    2.53594   2.55604   2.58005   2.61763   2.62814
 Alpha virt. eigenvalues --    2.65049   2.72057   2.72551   2.73853   2.77922
 Alpha virt. eigenvalues --    2.81159   2.83348   2.88450   2.99244   3.02865
 Alpha virt. eigenvalues --    4.03245   4.12209   4.16756   4.23412   4.25019
 Alpha virt. eigenvalues --    4.30791   4.33196   4.40057   4.41687   4.51684
 Alpha virt. eigenvalues --    4.58405   4.66878   4.72211
          Condensed to atoms (all electrons):
               1          2          3          4          5          6
     1  O    8.010012   0.583542  -0.077818   0.000206  -0.000065   0.000229
     2  C    0.583542   4.475465   0.320238  -0.019196   0.002690  -0.001329
     3  C   -0.077818   0.320238   5.380251   0.352642  -0.050076  -0.067651
     4  C    0.000206  -0.019196   0.352642   4.780038   0.375817   0.384362
     5  C   -0.000065   0.002690  -0.050076   0.375817   5.163222  -0.065223
     6  C    0.000229  -0.001329  -0.067651   0.384362  -0.065223   5.166926
     7  C    0.000065  -0.013407  -0.056105   0.380207  -0.052031  -0.058853
     8  C    0.000666  -0.021182  -0.006559  -0.026754   0.004303  -0.004834
     9  C   -0.000050   0.002471  -0.000091   0.003742  -0.000119   0.000120
    10  C    0.000000  -0.000066   0.000002   0.000151   0.000002  -0.000021
    11  C   -0.000000   0.000000   0.000000  -0.000001  -0.000000  -0.000000
    12  C    0.000000  -0.000000   0.000000  -0.000000   0.000000  -0.000000
    13  C   -0.077614   0.318384  -0.132897  -0.005801   0.000056  -0.001340
    14  H    0.001767  -0.026077   0.338030  -0.030956  -0.008491   0.006494
    15  H    0.004441  -0.022677   0.338221  -0.026668  -0.004154  -0.005835
    16  H    0.000000   0.000049  -0.005690  -0.027688   0.364399   0.005770
    17  H   -0.000001   0.000030  -0.004504  -0.027652   0.364957  -0.004657
    18  H    0.000001  -0.000085   0.005203  -0.028161   0.364637  -0.004190
    19  H    0.000551   0.005604  -0.005978  -0.027682   0.005558   0.366887
    20  H    0.000017  -0.000301  -0.004341  -0.028520  -0.005765   0.367162
    21  H    0.000006   0.000090   0.005539  -0.029860  -0.004271   0.367599
    22  H    0.000000  -0.000552  -0.004739  -0.038043  -0.006624   0.006261
    23  H    0.000001   0.000254   0.005589  -0.030859  -0.003948  -0.006682
    24  H    0.000472  -0.001735   0.000303  -0.006640   0.000010   0.003243
    25  H    0.000000  -0.000026   0.000013  -0.000010  -0.000008   0.000002
    26  H   -0.000003   0.000127  -0.000014  -0.000115   0.000002   0.000003
    27  H   -0.000000   0.000000   0.000001  -0.000026  -0.000000  -0.000004
    28  H    0.000000   0.000005  -0.000003  -0.000045   0.000006   0.000009
    29  H    0.000000   0.000000  -0.000000   0.000000   0.000000   0.000000
    30  H   -0.000000   0.000000  -0.000000  -0.000000   0.000000  -0.000000
    31  H   -0.000000   0.000000  -0.000000   0.000000  -0.000000   0.000000
    32  H   -0.000000   0.000000  -0.000000  -0.000000   0.000000   0.000000
    33  H   -0.000000   0.000000  -0.000000   0.000000  -0.000000   0.000000
    34  H    0.004802  -0.022366   0.006640   0.000048   0.000011  -0.000051
    35  H    0.001679  -0.027175   0.003192  -0.001456  -0.000049   0.000085
               7          8          9         10         11         12
     1  O    0.000065   0.000666  -0.000050   0.000000  -0.000000   0.000000
     2  C   -0.013407  -0.021182   0.002471  -0.000066   0.000000  -0.000000
     3  C   -0.056105  -0.006559  -0.000091   0.000002   0.000000   0.000000
     4  C    0.380207  -0.026754   0.003742   0.000151  -0.000001  -0.000000
     5  C   -0.052031   0.004303  -0.000119   0.000002  -0.000000   0.000000
     6  C   -0.058853  -0.004834   0.000120  -0.000021  -0.000000  -0.000000
     7  C    5.128425   0.369841  -0.037609  -0.004421   0.000156   0.000000
     8  C    0.369841   4.946454   0.368119  -0.031691   0.003310  -0.000110
     9  C   -0.037609   0.368119   5.032243   0.376539  -0.035264   0.003457
    10  C   -0.004421  -0.031691   0.376539   4.992624   0.384633  -0.042604
    11  C    0.000156   0.003310  -0.035264   0.384633   4.953189   0.371876
    12  C    0.000000  -0.000110   0.003457  -0.042604   0.371876   5.064420
    13  C   -0.047717   0.339754  -0.037356   0.003482  -0.000097   0.000001
    14  H   -0.003772  -0.001104  -0.000026  -0.000000  -0.000000   0.000000
    15  H    0.005102  -0.000057   0.000010  -0.000000   0.000000  -0.000000
    16  H   -0.005918   0.000015  -0.000003  -0.000000  -0.000000   0.000000
    17  H    0.005281  -0.000142   0.000001   0.000000   0.000000  -0.000000
    18  H   -0.005346   0.000021   0.000002  -0.000002   0.000000  -0.000000
    19  H   -0.004889   0.001587  -0.000025  -0.000001   0.000000   0.000000
    20  H    0.005384   0.000080  -0.000001   0.000000   0.000000  -0.000000
    21  H   -0.005657  -0.000209  -0.000025  -0.000004   0.000000   0.000000
    22  H    0.360309  -0.043064  -0.005208  -0.000449  -0.000031   0.000000
    23  H    0.356809  -0.031446  -0.004786   0.002211  -0.000091   0.000006
    24  H   -0.046629   0.376218  -0.047428  -0.004530   0.000012  -0.000001
    25  H   -0.009075  -0.036817   0.364503  -0.038313  -0.003357   0.000010
    26  H    0.005097  -0.037248   0.368465  -0.040869  -0.004232   0.000063
    27  H   -0.000751  -0.003524  -0.040953   0.372818  -0.039723  -0.002809
    28  H    0.001879  -0.004527  -0.036894   0.371958  -0.039829  -0.002627
    29  H   -0.000000  -0.000014  -0.003749  -0.040271   0.376841  -0.038196
    30  H   -0.000015   0.000077  -0.003278  -0.040780   0.376965  -0.038491
    31  H    0.000000   0.000001  -0.000126   0.004108  -0.027182   0.372183
    32  H    0.000000   0.000002   0.000042  -0.004519  -0.034667   0.377710
    33  H   -0.000002   0.000001   0.000034  -0.004674  -0.034587   0.377283
    34  H    0.004615  -0.026080  -0.004356   0.000008  -0.000003   0.000000
    35  H   -0.004432  -0.035581  -0.007866   0.000110  -0.000003   0.000000
              13         14         15         16         17         18
     1  O   -0.077614   0.001767   0.004441   0.000000  -0.000001   0.000001
     2  C    0.318384  -0.026077  -0.022677   0.000049   0.000030  -0.000085
     3  C   -0.132897   0.338030   0.338221  -0.005690  -0.004504   0.005203
     4  C   -0.005801  -0.030956  -0.026668  -0.027688  -0.027652  -0.028161
     5  C    0.000056  -0.008491  -0.004154   0.364399   0.364957   0.364637
     6  C   -0.001340   0.006494  -0.005835   0.005770  -0.004657  -0.004190
     7  C   -0.047717  -0.003772   0.005102  -0.005918   0.005281  -0.005346
     8  C    0.339754  -0.001104  -0.000057   0.000015  -0.000142   0.000021
     9  C   -0.037356  -0.000026   0.000010  -0.000003   0.000001   0.000002
    10  C    0.003482  -0.000000  -0.000000  -0.000000   0.000000  -0.000002
    11  C   -0.000097  -0.000000   0.000000  -0.000000   0.000000   0.000000
    12  C    0.000001   0.000000  -0.000000   0.000000  -0.000000  -0.000000
    13  C    5.359007   0.002413   0.006750  -0.000014  -0.000003   0.000013
    14  H    0.002413   0.593689  -0.027860   0.004982  -0.000180   0.000072
    15  H    0.006750  -0.027860   0.570125  -0.000198   0.003575  -0.000044
    16  H   -0.000014   0.004982  -0.000198   0.580557  -0.030064  -0.029881
    17  H   -0.000003  -0.000180   0.003575  -0.030064   0.575444  -0.030242
    18  H    0.000013   0.000072  -0.000044  -0.029881  -0.030242   0.578319
    19  H   -0.000136   0.000025  -0.000019  -0.000189  -0.000050  -0.000056
    20  H    0.000012  -0.000072   0.004077  -0.000013   0.004472  -0.000159
    21  H    0.000081  -0.000175   0.000004  -0.000049  -0.000175   0.003882
    22  H   -0.005528   0.004063  -0.000082   0.005504   0.000012  -0.000159
    23  H    0.005095  -0.000076  -0.000155  -0.000206  -0.000098   0.004448
    24  H   -0.049720   0.000045  -0.000035  -0.000000   0.000003  -0.000006
    25  H   -0.004804  -0.000004  -0.000000  -0.000000   0.000000   0.000000
    26  H   -0.003963   0.000001  -0.000000   0.000000  -0.000000  -0.000000
    27  H    0.000080  -0.000000  -0.000000   0.000000  -0.000000   0.000000
    28  H    0.000017   0.000000  -0.000000   0.000001  -0.000000  -0.000004
    29  H   -0.000006   0.000000   0.000000   0.000000  -0.000000  -0.000000
    30  H    0.000002   0.000000  -0.000000   0.000000  -0.000000  -0.000000
    31  H   -0.000000  -0.000000   0.000000  -0.000000   0.000000   0.000000
    32  H    0.000000   0.000000  -0.000000   0.000000  -0.000000  -0.000000
    33  H   -0.000000  -0.000000   0.000000  -0.000000   0.000000  -0.000000
    34  H    0.340163  -0.000124  -0.000183  -0.000000  -0.000000  -0.000000
    35  H    0.339394   0.001406  -0.000139  -0.000002   0.000001  -0.000001
              19         20         21         22         23         24
     1  O    0.000551   0.000017   0.000006   0.000000   0.000001   0.000472
     2  C    0.005604  -0.000301   0.000090  -0.000552   0.000254  -0.001735
     3  C   -0.005978  -0.004341   0.005539  -0.004739   0.005589   0.000303
     4  C   -0.027682  -0.028520  -0.029860  -0.038043  -0.030859  -0.006640
     5  C    0.005558  -0.005765  -0.004271  -0.006624  -0.003948   0.000010
     6  C    0.366887   0.367162   0.367599   0.006261  -0.006682   0.003243
     7  C   -0.004889   0.005384  -0.005657   0.360309   0.356809  -0.046629
     8  C    0.001587   0.000080  -0.000209  -0.043064  -0.031446   0.376218
     9  C   -0.000025  -0.000001  -0.000025  -0.005208  -0.004786  -0.047428
    10  C   -0.000001   0.000000  -0.000004  -0.000449   0.002211  -0.004530
    11  C    0.000000   0.000000   0.000000  -0.000031  -0.000091   0.000012
    12  C    0.000000  -0.000000   0.000000   0.000000   0.000006  -0.000001
    13  C   -0.000136   0.000012   0.000081  -0.005528   0.005095  -0.049720
    14  H    0.000025  -0.000072  -0.000175   0.004063  -0.000076   0.000045
    15  H   -0.000019   0.004077   0.000004  -0.000082  -0.000155  -0.000035
    16  H   -0.000189  -0.000013  -0.000049   0.005504  -0.000206  -0.000000
    17  H   -0.000050   0.004472  -0.000175   0.000012  -0.000098   0.000003
    18  H   -0.000056  -0.000159   0.003882  -0.000159   0.004448  -0.000006
    19  H    0.559687  -0.029198  -0.030113  -0.000064  -0.000202   0.003483
    20  H   -0.029198   0.569959  -0.029740  -0.000170  -0.000038  -0.000084
    21  H   -0.030113  -0.029740   0.576657   0.000001   0.004823   0.000384
    22  H   -0.000064  -0.000170   0.000001   0.623992  -0.036042   0.006361
    23  H   -0.000202  -0.000038   0.004823  -0.036042   0.598464  -0.004211
    24  H    0.003483  -0.000084   0.000384   0.006361  -0.004211   0.625890
    25  H   -0.000001   0.000000   0.000001   0.006294  -0.000039   0.006235
    26  H    0.000006  -0.000000  -0.000000   0.000023  -0.000041  -0.003042
    27  H   -0.000007   0.000000   0.000012   0.000070   0.000495   0.005992
    28  H    0.000002  -0.000000  -0.000006   0.000411   0.003564  -0.000190
    29  H    0.000000   0.000000  -0.000000   0.000001   0.000000   0.000005
    30  H   -0.000000   0.000000   0.000000  -0.000001   0.000012   0.000008
    31  H   -0.000000   0.000000   0.000000  -0.000000  -0.000000   0.000000
    32  H    0.000000  -0.000000  -0.000000  -0.000000   0.000001  -0.000002
    33  H   -0.000000   0.000000  -0.000000   0.000000  -0.000004   0.000000
    34  H    0.000034  -0.000001  -0.000002  -0.000043  -0.000152  -0.004054
    35  H    0.000021   0.000001   0.000000   0.004914  -0.000056   0.006346
              25         26         27         28         29         30
     1  O    0.000000  -0.000003  -0.000000   0.000000   0.000000  -0.000000
     2  C   -0.000026   0.000127   0.000000   0.000005   0.000000   0.000000
     3  C    0.000013  -0.000014   0.000001  -0.000003  -0.000000  -0.000000
     4  C   -0.000010  -0.000115  -0.000026  -0.000045   0.000000  -0.000000
     5  C   -0.000008   0.000002  -0.000000   0.000006   0.000000   0.000000
     6  C    0.000002   0.000003  -0.000004   0.000009   0.000000  -0.000000
     7  C   -0.009075   0.005097  -0.000751   0.001879  -0.000000  -0.000015
     8  C   -0.036817  -0.037248  -0.003524  -0.004527  -0.000014   0.000077
     9  C    0.364503   0.368465  -0.040953  -0.036894  -0.003749  -0.003278
    10  C   -0.038313  -0.040869   0.372818   0.371958  -0.040271  -0.040780
    11  C   -0.003357  -0.004232  -0.039723  -0.039829   0.376841   0.376965
    12  C    0.000010   0.000063  -0.002809  -0.002627  -0.038196  -0.038491
    13  C   -0.004804  -0.003963   0.000080   0.000017  -0.000006   0.000002
    14  H   -0.000004   0.000001  -0.000000   0.000000   0.000000   0.000000
    15  H   -0.000000  -0.000000  -0.000000  -0.000000   0.000000  -0.000000
    16  H   -0.000000   0.000000   0.000000   0.000001   0.000000   0.000000
    17  H    0.000000  -0.000000  -0.000000  -0.000000  -0.000000  -0.000000
    18  H    0.000000  -0.000000   0.000000  -0.000004  -0.000000  -0.000000
    19  H   -0.000001   0.000006  -0.000007   0.000002   0.000000  -0.000000
    20  H    0.000000  -0.000000   0.000000  -0.000000   0.000000   0.000000
    21  H    0.000001  -0.000000   0.000012  -0.000006  -0.000000   0.000000
    22  H    0.006294   0.000023   0.000070   0.000411   0.000001  -0.000001
    23  H   -0.000039  -0.000041   0.000495   0.003564   0.000000   0.000012
    24  H    0.006235  -0.003042   0.005992  -0.000190   0.000005   0.000008
    25  H    0.618578  -0.038759   0.005884  -0.005466  -0.000420   0.004845
    26  H   -0.038759   0.612111  -0.004701   0.005704   0.005642  -0.000458
    27  H    0.005884  -0.004701   0.613997  -0.040691  -0.005551   0.005927
    28  H   -0.005466   0.005704  -0.040691   0.608607   0.005888  -0.005444
    29  H   -0.000420   0.005642  -0.005551   0.005888   0.609315  -0.039904
    30  H    0.004845  -0.000458   0.005927  -0.005444  -0.039904   0.611263
    31  H    0.000002   0.000001  -0.000040  -0.000039  -0.002689  -0.002720
    32  H    0.000005   0.000003   0.004790  -0.000421  -0.004453   0.005236
    33  H    0.000003   0.000008  -0.000391   0.005047   0.005225  -0.004497
    34  H   -0.000242   0.004813  -0.000002   0.000000  -0.000001   0.000000
    35  H    0.005563  -0.000385   0.000010   0.000003   0.000001  -0.000001
              31         32         33         34         35
     1  O   -0.000000  -0.000000  -0.000000   0.004802   0.001679
     2  C    0.000000   0.000000   0.000000  -0.022366  -0.027175
     3  C   -0.000000  -0.000000  -0.000000   0.006640   0.003192
     4  C    0.000000  -0.000000   0.000000   0.000048  -0.001456
     5  C   -0.000000   0.000000  -0.000000   0.000011  -0.000049
     6  C    0.000000   0.000000   0.000000  -0.000051   0.000085
     7  C    0.000000   0.000000  -0.000002   0.004615  -0.004432
     8  C    0.000001   0.000002   0.000001  -0.026080  -0.035581
     9  C   -0.000126   0.000042   0.000034  -0.004356  -0.007866
    10  C    0.004108  -0.004519  -0.004674   0.000008   0.000110
    11  C   -0.027182  -0.034667  -0.034587  -0.000003  -0.000003
    12  C    0.372183   0.377710   0.377283   0.000000   0.000000
    13  C   -0.000000   0.000000  -0.000000   0.340163   0.339394
    14  H   -0.000000   0.000000  -0.000000  -0.000124   0.001406
    15  H    0.000000  -0.000000   0.000000  -0.000183  -0.000139
    16  H   -0.000000   0.000000  -0.000000  -0.000000  -0.000002
    17  H    0.000000  -0.000000   0.000000  -0.000000   0.000001
    18  H    0.000000  -0.000000  -0.000000  -0.000000  -0.000001
    19  H   -0.000000   0.000000  -0.000000   0.000034   0.000021
    20  H    0.000000  -0.000000   0.000000  -0.000001   0.000001
    21  H    0.000000  -0.000000  -0.000000  -0.000002   0.000000
    22  H   -0.000000  -0.000000   0.000000  -0.000043   0.004914
    23  H   -0.000000   0.000001  -0.000004  -0.000152  -0.000056
    24  H    0.000000  -0.000002   0.000000  -0.004054   0.006346
    25  H    0.000002   0.000005   0.000003  -0.000242   0.005563
    26  H    0.000001   0.000003   0.000008   0.004813  -0.000385
    27  H   -0.000040   0.004790  -0.000391  -0.000002   0.000010
    28  H   -0.000039  -0.000421   0.005047   0.000000   0.000003
    29  H   -0.002689  -0.004453   0.005225  -0.000001   0.000001
    30  H   -0.002720   0.005236  -0.004497   0.000000  -0.000001
    31  H    0.575199  -0.031102  -0.031118  -0.000000  -0.000000
    32  H   -0.031102   0.577749  -0.032810   0.000000  -0.000000
    33  H   -0.031118  -0.032810   0.579174  -0.000000   0.000000
    34  H   -0.000000   0.000000  -0.000000   0.565188  -0.027708
    35  H   -0.000000  -0.000000   0.000000  -0.027708   0.595037
 Mulliken charges:
               1
     1  O   -0.452908
     2  C    0.447227
     3  C   -0.339397
     4  C    0.078921
     5  C   -0.444843
     6  C   -0.454484
     7  C   -0.266540
     8  C   -0.099504
     9  C   -0.254535
    10  C   -0.255429
    11  C   -0.247915
    12  C   -0.442171
    13  C   -0.347709
    14  H    0.145929
    15  H    0.155802
    16  H    0.138638
    17  H    0.143992
    18  H    0.141737
    19  H    0.155162
    20  H    0.147240
    21  H    0.141208
    22  H    0.122582
    23  H    0.137363
    24  H    0.133295
    25  H    0.125403
    26  H    0.131762
    27  H    0.129098
    28  H    0.133084
    29  H    0.132338
    30  H    0.131255
    31  H    0.143523
    32  H    0.142437
    33  H    0.141307
    34  H    0.159043
    35  H    0.147091
 Sum of Mulliken charges =  -0.00000
 Mulliken charges with hydrogens summed into heavy atoms:
               1
     1  O   -0.452908
     2  C    0.447227
     3  C   -0.037666
     4  C    0.078921
     5  C   -0.020476
     6  C   -0.010874
     7  C   -0.006595
     8  C    0.033791
     9  C    0.002630
    10  C    0.006752
    11  C    0.015678
    12  C   -0.014904
    13  C   -0.041574
 APT charges:
               1
     1  O   -0.662081
     2  C    0.756451
     3  C   -0.095529
     4  C    0.159830
     5  C    0.058676
     6  C    0.029537
     7  C    0.042538
     8  C    0.127314
     9  C    0.116130
    10  C    0.081961
    11  C    0.149110
    12  C    0.083711
    13  C   -0.093739
    14  H   -0.012498
    15  H   -0.025715
    16  H   -0.026138
    17  H   -0.030002
    18  H   -0.028105
    19  H   -0.010826
    20  H   -0.022058
    21  H   -0.020340
    22  H   -0.045229
    23  H   -0.033545
    24  H   -0.053850
    25  H   -0.051631
    26  H   -0.054860
    27  H   -0.049559
    28  H   -0.042383
    29  H   -0.058749
    30  H   -0.057184
    31  H   -0.045899
    32  H   -0.028454
    33  H   -0.028623
    34  H   -0.023401
    35  H   -0.004859
 Sum of APT charges =  -0.00000
 APT charges with hydrogens summed into heavy atoms:
               1
     1  O   -0.662081
     2  C    0.756451
     3  C   -0.133742
     4  C    0.159830
     5  C   -0.025568
     6  C   -0.023687
     7  C   -0.036237
     8  C    0.073464
     9  C    0.009639
    10  C   -0.009980
    11  C    0.033176
    12  C   -0.019265
    13  C   -0.121999
 Electronic spatial extent (au):  <R**2>=           3715.4947
 Charge=             -0.0000 electrons
 Dipole moment (field-independent basis, Debye):
    X=             -1.9949    Y=              2.0875    Z=             -1.2177  Tot=              3.1337
 Quadrupole moment (field-independent basis, Debye-Ang):
   XX=            -89.9835   YY=            -88.3253   ZZ=            -82.2259
   XY=              8.7688   XZ=             -3.7018   YZ=              2.7001
 Traceless Quadrupole moment (field-independent basis, Debye-Ang):
   XX=             -3.1386   YY=             -1.4804   ZZ=              4.6190
   XY=              8.7688   XZ=             -3.7018   YZ=              2.7001
 Octapole moment (field-independent basis, Debye-Ang**2):
  XXX=            -12.2098  YYY=              5.6184  ZZZ=             -0.2977  XYY=            -17.6003
  XXY=             24.0375  XXZ=            -10.3409  XZZ=              3.1291  YZZ=             -3.0631
  YYZ=             -3.9943  XYZ=              9.9072
 Hexadecapole moment (field-independent basis, Debye-Ang**3):
 XXXX=          -3774.3344 YYYY=          -1005.5235 ZZZZ=           -343.5862 XXXY=             88.4338
 XXXZ=            -12.4891 YYYX=             22.7291 YYYZ=             11.1090 ZZZX=             -0.7700
 ZZZY=             -4.8239 XXYY=           -849.2537 XXZZ=           -677.1140 YYZZ=           -225.2146
 XXYZ=             21.2035 YYXZ=            -14.5446 ZZXY=             -6.5331
 N-N= 8.390412008116D+02 E-N=-2.942274686451D+03  KE= 5.404308816256D+02
  Exact polarizability: 146.868  -0.467 124.084   1.988  -1.895 108.069
 Approx polarizability: 177.072  -6.392 176.014   6.749  -7.565 170.030
 Calling FoFJK, ICntrl=    100127 FMM=F ISym2X=0 I1Cent= 0 IOpClX= 0 NMat=1 NMatS=1 NMatT=0.
 Full mass-weighted force constant matrix:
 Low frequencies ---   -5.6613   -1.4041   -0.0006   -0.0004    0.0010    3.2743
 Low frequencies ---   43.5211   59.8178   74.2327
 Diagonal vibrational polarizability:
       10.5231302       6.8410216      16.6904035
 Harmonic frequencies (cm**-1), IR intensities (KM/Mole), Raman scattering
 activities (A**4/AMU), depolarization ratios for plane and unpolarized
 incident light, reduced masses (AMU), force constants (mDyne/A),
 and normal coordinates:
                      1                      2                      3
                      A                      A                      A
 Frequencies --     43.5160                59.8146                74.2301
 Red. masses --      2.6545                 1.8394                 3.0499
 Frc consts  --      0.0030                 0.0039                 0.0099
 IR Inten    --      0.8483                 0.1600                 0.1036
  Atom  AN      X      Y      Z        X      Y      Z        X      Y      Z
     1   8    -0.09  -0.00   0.13    -0.04  -0.01   0.03     0.04   0.04   0.03
     2   6    -0.03  -0.01   0.04    -0.00  -0.00   0.00     0.04   0.01   0.00
     3   6     0.03  -0.02   0.06     0.02   0.01   0.05     0.00   0.04   0.04
     4   6     0.03   0.00  -0.02    -0.01   0.00   0.01    -0.07  -0.00  -0.00
     5   6     0.08  -0.02  -0.03     0.02   0.01   0.04    -0.12   0.01   0.00
     6   6    -0.05   0.04  -0.02    -0.07  -0.00   0.02    -0.14   0.02   0.00
     7   6     0.04   0.02  -0.08     0.01  -0.00  -0.05    -0.04  -0.08  -0.05
     8   6    -0.00   0.03  -0.09     0.00  -0.01  -0.07     0.01  -0.10  -0.05
     9   6     0.00   0.06  -0.12     0.00  -0.01  -0.06     0.01  -0.12  -0.02
    10   6    -0.00  -0.02   0.01     0.03   0.06  -0.11     0.06  -0.10   0.05
    11   6    -0.00   0.03  -0.04    -0.01  -0.08   0.14     0.02   0.10  -0.02
    12   6    -0.01  -0.12   0.19     0.04   0.03   0.04     0.14   0.20   0.05
    13   6    -0.00   0.02  -0.06     0.01   0.00  -0.07     0.06  -0.05  -0.06
    14   1     0.10  -0.04   0.06     0.07   0.02   0.05     0.06   0.05   0.04
    15   1     0.01  -0.04   0.12     0.00   0.00   0.10    -0.02   0.08   0.10
    16   1     0.14  -0.05  -0.03     0.06   0.01   0.03    -0.08  -0.00   0.00
    17   1     0.08  -0.03   0.02     0.01   0.01   0.08    -0.15   0.08   0.03
    18   1     0.08  -0.00  -0.08     0.00   0.00   0.02    -0.18  -0.02  -0.02
    19   1    -0.09   0.06  -0.01    -0.08  -0.01   0.01    -0.10   0.01   0.00
    20   1    -0.06   0.03   0.03    -0.09   0.01   0.06    -0.17   0.10   0.04
    21   1    -0.05   0.06  -0.07    -0.10  -0.01  -0.01    -0.21  -0.03  -0.03
    22   1     0.09   0.00  -0.09     0.05   0.00  -0.05    -0.01  -0.10  -0.05
    23   1     0.03   0.03  -0.13    -0.01  -0.01  -0.07    -0.09  -0.11  -0.08
    24   1    -0.02   0.03  -0.09     0.00  -0.02  -0.07     0.03  -0.11  -0.05
    25   1    -0.01   0.18  -0.11    -0.00  -0.07  -0.06    -0.03  -0.09  -0.02
    26   1     0.02   0.03  -0.23    -0.01   0.02   0.01     0.01  -0.12  -0.03
    27   1     0.00  -0.18   0.01     0.16   0.26  -0.12     0.04  -0.21   0.05
    28   1    -0.00   0.03   0.16    -0.05   0.00  -0.32     0.15  -0.08   0.16
    29   1     0.03  -0.04  -0.25     0.06  -0.00   0.41    -0.12   0.10  -0.11
    30   1    -0.03   0.26  -0.04    -0.13  -0.34   0.15     0.04   0.21  -0.02
    31   1    -0.01  -0.07   0.14     0.00  -0.09   0.26     0.10   0.37  -0.00
    32   1     0.01  -0.37   0.20     0.18   0.32   0.04     0.12   0.09   0.05
    33   1    -0.04  -0.04   0.43    -0.05  -0.05  -0.24     0.30   0.21   0.15
    34   1    -0.05   0.02  -0.09    -0.01  -0.01  -0.11     0.09  -0.08  -0.10
    35   1     0.06   0.04  -0.07     0.05   0.04  -0.08     0.10  -0.02  -0.07
                      4                      5                      6
                      A                      A                      A
 Frequencies --     88.4628               113.9061               140.3135
 Red. masses --      4.4176                 2.7161                 2.5539
 Frc consts  --      0.0204                 0.0208                 0.0296
 IR Inten    --      2.5800                 0.5704                 0.1762
  Atom  AN      X      Y      Z        X      Y      Z        X      Y      Z
     1   8    -0.10   0.21   0.27    -0.11  -0.05   0.01    -0.05  -0.05  -0.01
     2   6    -0.03   0.04  -0.03    -0.03  -0.01  -0.03    -0.02  -0.02  -0.01
     3   6    -0.04  -0.01  -0.19     0.03   0.00   0.07    -0.00   0.00   0.07
     4   6     0.02  -0.03  -0.02     0.02   0.02   0.01    -0.01   0.01   0.05
     5   6    -0.04   0.02   0.04     0.04  -0.01  -0.05    -0.09  -0.03  -0.09
     6   6     0.17  -0.16  -0.02     0.01   0.10   0.00     0.09   0.13   0.02
     7   6    -0.02   0.01   0.08     0.01   0.03   0.02    -0.04  -0.01   0.16
     8   6     0.00  -0.05  -0.02     0.03   0.00  -0.02     0.01  -0.07   0.05
     9   6     0.00  -0.02  -0.03     0.00   0.02   0.05     0.01  -0.04   0.02
    10   6     0.01  -0.03  -0.00    -0.01  -0.09   0.19     0.03   0.07  -0.13
    11   6     0.00  -0.01   0.01     0.01  -0.07   0.08     0.03   0.04  -0.07
    12   6     0.02   0.03  -0.02    -0.02   0.02  -0.14     0.03  -0.04   0.05
    13   6     0.01  -0.01  -0.13    -0.00   0.04  -0.17     0.01  -0.00  -0.11
    14   1    -0.22  -0.01  -0.19     0.13   0.03   0.07     0.04   0.02   0.07
    15   1     0.01  -0.00  -0.33     0.01  -0.03   0.16    -0.02  -0.00   0.11
    16   1    -0.13   0.11   0.05     0.05  -0.07  -0.05    -0.15  -0.13  -0.08
    17   1    -0.02   0.00  -0.02     0.04  -0.01  -0.05    -0.08   0.03  -0.17
    18   1    -0.01  -0.01   0.16     0.05   0.01  -0.10    -0.10  -0.02  -0.13
    19   1     0.19  -0.20  -0.07    -0.01   0.13   0.04     0.06   0.19   0.11
    20   1     0.21  -0.23  -0.10     0.02   0.09  -0.00     0.13   0.09  -0.06
    21   1     0.24  -0.17   0.11     0.03   0.13  -0.05     0.16   0.21  -0.00
    22   1    -0.12   0.13   0.09    -0.01   0.06   0.02    -0.14   0.10   0.17
    23   1     0.01  -0.03   0.23     0.02   0.02   0.06    -0.02  -0.06   0.30
    24   1     0.02  -0.14  -0.02     0.10  -0.07  -0.02     0.03  -0.18   0.05
    25   1    -0.00   0.01  -0.03    -0.06   0.14   0.05     0.06  -0.15   0.02
    26   1    -0.00  -0.03  -0.06     0.06  -0.02  -0.06    -0.05  -0.00   0.12
    27   1     0.02  -0.04  -0.00    -0.03  -0.26   0.19     0.02   0.23  -0.12
    28   1     0.01  -0.03   0.01    -0.02  -0.04   0.35     0.05   0.02  -0.28
    29   1    -0.02  -0.00   0.04    -0.06  -0.03   0.14     0.08   0.01  -0.11
    30   1     0.00  -0.04   0.01     0.14  -0.16   0.08    -0.04   0.09  -0.07
    31   1     0.02   0.03  -0.00     0.00   0.01  -0.21     0.02  -0.04   0.08
    32   1     0.03   0.06  -0.02    -0.14   0.16  -0.14     0.08  -0.13   0.05
    33   1     0.04   0.01  -0.06     0.04  -0.02  -0.26    -0.02  -0.00   0.14
    34   1     0.01  -0.04  -0.19    -0.04  -0.02  -0.31    -0.00  -0.07  -0.26
    35   1     0.02   0.09  -0.13     0.03   0.21  -0.19     0.03   0.17  -0.13
                      7                      8                      9
                      A                      A                      A
 Frequencies --    171.6830               223.6291               231.5707
 Red. masses --      2.1960                 1.5210                 1.3425
 Frc consts  --      0.0381                 0.0448                 0.0424
 IR Inten    --      0.2727                 0.0611                 0.2335
  Atom  AN      X      Y      Z        X      Y      Z        X      Y      Z
     1   8    -0.05   0.01   0.03    -0.01   0.02  -0.01    -0.03  -0.01  -0.01
     2   6     0.00  -0.00  -0.04    -0.01   0.02  -0.01    -0.01   0.01   0.00
     3   6     0.03   0.00  -0.01    -0.02   0.01  -0.02     0.01   0.01   0.02
     4   6    -0.00  -0.01  -0.03    -0.00   0.02  -0.00     0.01   0.01  -0.00
     5   6     0.01   0.01   0.04     0.12  -0.00   0.03     0.06   0.00  -0.00
     6   6    -0.09  -0.06  -0.02    -0.01   0.02  -0.00     0.03   0.01   0.00
     7   6     0.01  -0.03  -0.08    -0.02   0.05  -0.01     0.00   0.03  -0.00
     8   6     0.04   0.00   0.01    -0.01   0.02  -0.00    -0.01   0.03   0.01
     9   6    -0.00  -0.03   0.19    -0.01  -0.09   0.06    -0.00  -0.05   0.02
    10   6     0.04   0.12   0.03    -0.03  -0.06  -0.04    -0.04  -0.07  -0.05
    11   6     0.06   0.06  -0.02    -0.04  -0.04  -0.02    -0.06  -0.05  -0.02
    12   6    -0.05  -0.07  -0.02     0.04   0.03   0.02     0.03   0.03   0.02
    13   6     0.01   0.01  -0.09    -0.01   0.03  -0.01    -0.01   0.04   0.01
    14   1     0.08   0.02  -0.01    -0.06   0.01  -0.02     0.05   0.01   0.02
    15   1     0.01  -0.00   0.04    -0.01   0.01  -0.06     0.00  -0.00   0.05
    16   1     0.03   0.07   0.03     0.29  -0.03   0.01    -0.26   0.12   0.02
    17   1     0.01   0.00   0.07     0.09  -0.03   0.19     0.17  -0.22  -0.27
    18   1     0.01   0.00   0.06     0.09   0.02  -0.09     0.31   0.09   0.25
    19   1     0.05  -0.12  -0.06    -0.40   0.13   0.03     0.39  -0.09  -0.02
    20   1    -0.14   0.10   0.03     0.08  -0.37   0.04    -0.06   0.37  -0.05
    21   1    -0.23  -0.18  -0.01     0.27   0.29  -0.07    -0.23  -0.24   0.07
    22   1     0.05  -0.10  -0.09    -0.04   0.07  -0.00     0.01   0.01  -0.00
    23   1     0.00  -0.01  -0.15    -0.01   0.04   0.02     0.01   0.04  -0.02
    24   1     0.17   0.03   0.01     0.02   0.03  -0.00    -0.00   0.05   0.01
    25   1    -0.08  -0.29   0.19    -0.03  -0.25   0.06     0.01  -0.13   0.01
    26   1    -0.01   0.04   0.45     0.06  -0.07   0.21     0.05  -0.05   0.08
    27   1    -0.02   0.28   0.03    -0.05   0.03  -0.04    -0.05  -0.02  -0.05
    28   1     0.08   0.06  -0.13    -0.02  -0.09  -0.12    -0.04  -0.08  -0.08
    29   1     0.13   0.03  -0.08    -0.08  -0.03  -0.01    -0.10  -0.03  -0.01
    30   1     0.11   0.10  -0.02    -0.07  -0.04  -0.02    -0.09  -0.04  -0.02
    31   1     0.01  -0.10  -0.17     0.01   0.21  -0.09    -0.00   0.17  -0.01
    32   1    -0.17  -0.21  -0.02    -0.04  -0.11   0.02     0.03  -0.04   0.02
    33   1    -0.08  -0.02   0.12     0.21   0.05   0.16     0.16   0.04   0.10
    34   1     0.01  -0.02  -0.15    -0.01   0.03  -0.01    -0.01   0.03  -0.01
    35   1    -0.01   0.10  -0.09    -0.01   0.04  -0.01    -0.02   0.05   0.00
                     10                     11                     12
                      A                      A                      A
 Frequencies --    249.1159               252.5367               263.2718
 Red. masses --      1.2172                 2.9574                 1.4993
 Frc consts  --      0.0445                 0.1111                 0.0612
 IR Inten    --      0.0145                 0.0059                 0.6450
  Atom  AN      X      Y      Z        X      Y      Z        X      Y      Z
     1   8    -0.02   0.01  -0.00    -0.09  -0.03  -0.02     0.08   0.05   0.01
     2   6    -0.02   0.00  -0.01    -0.10  -0.03  -0.01     0.04   0.00  -0.01
     3   6    -0.02   0.00  -0.01    -0.13  -0.02  -0.04    -0.01   0.01   0.00
     4   6    -0.01   0.01  -0.00    -0.06   0.02  -0.00    -0.02  -0.01   0.02
     5   6     0.04  -0.00   0.01    -0.01   0.01   0.01     0.05  -0.05  -0.01
     6   6    -0.03   0.01  -0.00    -0.09   0.02  -0.00    -0.05   0.03   0.01
     7   6    -0.01   0.01  -0.00    -0.05   0.05   0.01    -0.01  -0.03   0.02
     8   6     0.00   0.01   0.02     0.00   0.04   0.02     0.00  -0.06  -0.02
     9   6     0.01  -0.03   0.04     0.07   0.05  -0.03    -0.02   0.01  -0.02
    10   6     0.00  -0.03   0.02     0.14   0.03   0.02     0.00   0.04   0.02
    11   6     0.02   0.03  -0.08     0.19  -0.06   0.02    -0.01   0.04   0.03
    12   6     0.04  -0.01   0.01     0.19  -0.06  -0.04    -0.08  -0.00  -0.01
    13   6    -0.01   0.01  -0.00    -0.08  -0.01   0.06     0.04  -0.04  -0.03
    14   1    -0.04   0.01  -0.01    -0.22  -0.03  -0.04    -0.03   0.03   0.00
    15   1    -0.02   0.00  -0.03    -0.09  -0.03  -0.13    -0.01   0.03  -0.01
    16   1    -0.01   0.03   0.01    -0.23   0.11   0.02    -0.36   0.08   0.02
    17   1     0.07  -0.09  -0.03     0.07  -0.16  -0.17     0.20  -0.36  -0.36
    18   1     0.12   0.03   0.06     0.18   0.07   0.19     0.40   0.09   0.30
    19   1    -0.08   0.02   0.00    -0.16   0.04   0.00    -0.27   0.10   0.05
    20   1    -0.02  -0.03   0.02    -0.08  -0.03   0.03    -0.01  -0.17   0.06
    21   1    -0.00   0.04  -0.02    -0.05   0.07  -0.04     0.09   0.18  -0.07
    22   1    -0.02   0.01   0.00    -0.08   0.05   0.02    -0.02  -0.00   0.02
    23   1    -0.01   0.01   0.00    -0.06   0.02   0.04    -0.03  -0.05   0.04
    24   1     0.02   0.01   0.02    -0.03   0.05   0.02    -0.00  -0.09  -0.02
    25   1    -0.00  -0.07   0.04     0.09   0.12  -0.02    -0.03   0.05  -0.02
    26   1     0.03  -0.03   0.08     0.04   0.04  -0.09    -0.06   0.01  -0.05
    27   1    -0.07  -0.11   0.03     0.17   0.03   0.02     0.03   0.04   0.01
    28   1     0.06  -0.02   0.11     0.09   0.03   0.01     0.01   0.04   0.01
    29   1     0.00   0.00  -0.18     0.23  -0.05   0.06     0.01   0.04   0.04
    30   1     0.04   0.14  -0.08     0.22  -0.10   0.02    -0.00   0.02   0.03
    31   1    -0.02  -0.30   0.48     0.20   0.05  -0.20    -0.04  -0.05  -0.08
    32   1     0.43   0.32   0.00     0.05  -0.18  -0.03    -0.16  -0.02  -0.01
    33   1    -0.29  -0.08  -0.34     0.32  -0.04   0.09    -0.11   0.01   0.01
    34   1    -0.01   0.01  -0.01    -0.11   0.03   0.14     0.05  -0.06  -0.05
    35   1    -0.03   0.02  -0.00    -0.13  -0.09   0.07     0.06  -0.03  -0.04
                     13                     14                     15
                      A                      A                      A
 Frequencies --    287.4898               317.8516               375.6252
 Red. masses --      1.6984                 2.5420                 2.7869
 Frc consts  --      0.0827                 0.1513                 0.2317
 IR Inten    --      0.8011                 0.4089                 0.0947
  Atom  AN      X      Y      Z        X      Y      Z        X      Y      Z
     1   8     0.06   0.07  -0.01    -0.02   0.02  -0.00    -0.05   0.07  -0.00
     2   6     0.00   0.01  -0.03    -0.05  -0.04  -0.05    -0.00   0.02  -0.13
     3   6    -0.06   0.00  -0.04    -0.07  -0.02  -0.05     0.08  -0.01  -0.09
     4   6    -0.02  -0.01   0.02     0.02   0.02   0.03     0.09  -0.05   0.04
     5   6     0.13  -0.09  -0.04     0.05   0.08   0.14    -0.03  -0.04  -0.01
     6   6    -0.08   0.01   0.03     0.09   0.20   0.01    -0.10   0.04   0.05
     7   6    -0.04   0.02   0.09     0.05  -0.07  -0.05     0.12  -0.11   0.04
     8   6    -0.00  -0.03   0.02     0.02  -0.08  -0.05     0.03  -0.01   0.15
     9   6    -0.00   0.01  -0.02    -0.02  -0.04  -0.01     0.03   0.11   0.04
    10   6     0.01   0.02   0.00     0.01  -0.00   0.00    -0.09   0.01  -0.03
    11   6     0.01   0.01   0.01    -0.01   0.02   0.01    -0.06  -0.08  -0.05
    12   6    -0.01  -0.00  -0.00    -0.04   0.00  -0.00     0.06   0.01   0.01
    13   6     0.01  -0.02  -0.02    -0.04  -0.14  -0.00    -0.03  -0.00  -0.01
    14   1    -0.16   0.02  -0.04    -0.20   0.03  -0.05     0.03   0.13  -0.09
    15   1    -0.03   0.01  -0.13    -0.02  -0.10  -0.16     0.09  -0.10  -0.10
    16   1     0.42  -0.26  -0.05     0.16   0.20   0.12    -0.10  -0.08   0.00
    17   1     0.07  -0.08   0.21     0.02   0.08   0.27    -0.03   0.04  -0.09
    18   1     0.05  -0.03  -0.34     0.00   0.03   0.17    -0.07  -0.08   0.01
    19   1     0.21  -0.07   0.01     0.24   0.26   0.18    -0.26   0.11   0.09
    20   1    -0.18   0.34   0.05     0.07   0.38  -0.11    -0.14   0.02   0.22
    21   1    -0.34  -0.21   0.02     0.02   0.19  -0.07    -0.14   0.11  -0.17
    22   1    -0.14   0.12   0.09     0.17  -0.12  -0.06     0.19  -0.31   0.03
    23   1    -0.02  -0.02   0.22    -0.03  -0.09  -0.16     0.11  -0.03  -0.16
    24   1    -0.01  -0.08   0.02     0.04  -0.05  -0.05     0.05  -0.05   0.15
    25   1     0.02   0.06  -0.02    -0.05  -0.06  -0.01     0.17   0.25   0.04
    26   1    -0.03   0.00  -0.07    -0.04  -0.02   0.02    -0.01   0.08  -0.13
    27   1     0.02   0.01  -0.00     0.02   0.00   0.00    -0.16   0.04  -0.02
    28   1     0.01   0.02  -0.00     0.03  -0.01  -0.01    -0.17   0.03  -0.02
    29   1     0.02   0.01   0.02    -0.01   0.02   0.00    -0.06  -0.07  -0.01
    30   1     0.01  -0.00   0.01    -0.00   0.03   0.01    -0.09  -0.10  -0.05
    31   1     0.00  -0.01  -0.03    -0.02  -0.04  -0.02    -0.01   0.16   0.09
    32   1    -0.03  -0.01  -0.00    -0.06   0.01  -0.00     0.15  -0.02   0.01
    33   1    -0.01   0.00   0.01    -0.07   0.00  -0.01     0.18  -0.00   0.03
    34   1     0.01  -0.03  -0.03    -0.01  -0.09   0.14     0.06  -0.04  -0.03
    35   1     0.00  -0.00  -0.02    -0.09  -0.28   0.01    -0.20   0.08  -0.01
                     16                     17                     18
                      A                      A                      A
 Frequencies --    382.6291               422.9821               431.2850
 Red. masses --      2.5443                 2.3485                 2.4622
 Frc consts  --      0.2195                 0.2476                 0.2698
 IR Inten    --      0.6126                 1.0424                 1.7205
  Atom  AN      X      Y      Z        X      Y      Z        X      Y      Z
     1   8    -0.02   0.13  -0.06    -0.10   0.04  -0.03     0.10   0.02   0.00
     2   6    -0.07   0.08  -0.05    -0.04   0.06  -0.07     0.00  -0.01   0.06
     3   6    -0.03   0.08   0.10     0.11   0.06   0.04    -0.03  -0.00   0.07
     4   6    -0.03   0.02   0.10     0.02   0.02  -0.09    -0.08  -0.02  -0.07
     5   6     0.01  -0.10  -0.07     0.08   0.08   0.00     0.04   0.01   0.07
     6   6     0.11  -0.05   0.11    -0.01  -0.03  -0.10     0.06  -0.00  -0.11
     7   6     0.02  -0.06  -0.08    -0.03  -0.06   0.08    -0.08  -0.06  -0.03
     8   6    -0.05  -0.01  -0.04    -0.03  -0.09   0.09    -0.04  -0.05   0.04
     9   6    -0.04  -0.02   0.00    -0.00  -0.05  -0.04    -0.07   0.11   0.04
    10   6     0.02   0.01   0.02     0.05  -0.02  -0.02    -0.08   0.08   0.03
    11   6     0.04  -0.00   0.00     0.02   0.04   0.03     0.00  -0.08  -0.05
    12   6     0.04  -0.02  -0.01    -0.03  -0.00  -0.00     0.11  -0.03  -0.01
    13   6    -0.06  -0.02   0.00    -0.03  -0.04   0.07    -0.00  -0.02  -0.05
    14   1     0.10   0.19   0.10     0.48   0.10   0.05     0.15  -0.08   0.07
    15   1    -0.07   0.01   0.24    -0.00  -0.01   0.40    -0.09   0.05   0.22
    16   1     0.01  -0.33  -0.05     0.16   0.18  -0.01     0.17   0.17   0.04
    17   1     0.03  -0.13  -0.13     0.07  -0.00   0.11     0.03  -0.11   0.23
    18   1     0.07   0.01  -0.25     0.10   0.08   0.04     0.08   0.02   0.11
    19   1     0.15  -0.09   0.07    -0.06  -0.06  -0.16     0.14   0.01  -0.05
    20   1     0.16  -0.13  -0.02    -0.02  -0.07  -0.04     0.10  -0.00  -0.27
    21   1     0.20  -0.05   0.28    -0.01  -0.04  -0.08     0.12   0.01  -0.02
    22   1     0.27  -0.22  -0.10    -0.21  -0.03   0.09    -0.11  -0.14  -0.03
    23   1    -0.08  -0.02  -0.35     0.01  -0.08   0.19    -0.10  -0.06  -0.07
    24   1    -0.04   0.04  -0.04    -0.10  -0.12   0.08     0.00  -0.06   0.04
    25   1    -0.09  -0.06   0.00     0.09   0.05  -0.04    -0.05   0.23   0.04
    26   1    -0.05  -0.00   0.05    -0.06  -0.07  -0.15    -0.17   0.11  -0.08
    27   1     0.03   0.01   0.02     0.09  -0.02  -0.02    -0.16   0.09   0.04
    28   1     0.03   0.01   0.01     0.09  -0.03  -0.02    -0.18   0.10   0.03
    29   1     0.06  -0.01  -0.01     0.03   0.04   0.03     0.05  -0.08  -0.03
    30   1     0.07  -0.00  -0.00     0.02   0.02   0.03     0.03  -0.09  -0.05
    31   1     0.04  -0.02  -0.01     0.01  -0.07  -0.05     0.04   0.12   0.08
    32   1     0.04  -0.02  -0.01    -0.09   0.00  -0.00     0.23  -0.04  -0.01
    33   1     0.04  -0.02  -0.01    -0.09   0.01  -0.00     0.23  -0.04   0.00
    34   1     0.02   0.01   0.11     0.13  -0.02   0.20    -0.04  -0.10  -0.25
    35   1    -0.12  -0.13   0.02    -0.18  -0.16   0.09     0.09   0.19  -0.08
                     19                     20                     21
                      A                      A                      A
 Frequencies --    455.6580               474.3812               527.7697
 Red. masses --      2.1543                 2.6286                 2.9581
 Frc consts  --      0.2635                 0.3485                 0.4855
 IR Inten    --      1.2775                 0.2251                 2.5319
  Atom  AN      X      Y      Z        X      Y      Z        X      Y      Z
     1   8    -0.03  -0.02  -0.02    -0.01  -0.05  -0.00     0.06   0.09   0.02
     2   6     0.02   0.06   0.04    -0.05  -0.02   0.07    -0.04  -0.09  -0.10
     3   6    -0.00   0.01  -0.05    -0.14   0.05   0.04    -0.07  -0.06   0.07
     4   6    -0.05  -0.06  -0.00    -0.02   0.15  -0.01    -0.09  -0.06  -0.02
     5   6     0.00  -0.08   0.07     0.06   0.14  -0.09    -0.05  -0.09   0.06
     6   6     0.03   0.04  -0.02    -0.00  -0.07   0.02     0.01  -0.00  -0.05
     7   6    -0.04  -0.08  -0.03     0.04  -0.05  -0.01    -0.03   0.08  -0.04
     8   6    -0.06   0.01   0.12     0.10  -0.06   0.11     0.13   0.11   0.05
     9   6     0.02  -0.06  -0.06     0.10   0.02   0.01     0.19   0.04   0.02
    10   6     0.07  -0.04  -0.03     0.00  -0.02  -0.03     0.04  -0.06  -0.05
    11   6     0.03   0.05   0.04    -0.05   0.01  -0.00    -0.04   0.01   0.01
    12   6    -0.04   0.00  -0.00    -0.06   0.03   0.01    -0.08   0.04   0.02
    13   6     0.02   0.16   0.02     0.02  -0.07  -0.03    -0.04  -0.04  -0.04
    14   1    -0.13  -0.03  -0.05    -0.27  -0.05   0.03     0.28   0.05   0.07
    15   1     0.03   0.09  -0.17    -0.08   0.04  -0.12    -0.17  -0.10   0.40
    16   1     0.08  -0.02   0.06     0.08   0.06  -0.09    -0.02  -0.03   0.05
    17   1    -0.00  -0.15   0.15     0.08   0.09  -0.10    -0.06  -0.10   0.11
    18   1     0.03  -0.06   0.07     0.11   0.21  -0.17    -0.06  -0.11   0.09
    19   1     0.07   0.10   0.10    -0.02  -0.19  -0.20     0.07   0.05   0.06
    20   1     0.04   0.08  -0.14     0.02  -0.18   0.07     0.05  -0.00  -0.21
    21   1     0.05   0.08  -0.07     0.03  -0.13   0.22     0.08   0.05  -0.03
    22   1     0.09  -0.34  -0.05     0.13  -0.28  -0.02    -0.07   0.07  -0.04
    23   1    -0.04   0.03  -0.30    -0.12  -0.08  -0.23    -0.03   0.06  -0.00
    24   1    -0.13   0.04   0.12     0.12  -0.09   0.11     0.22   0.15   0.05
    25   1     0.14   0.04  -0.06     0.24   0.14   0.01     0.32   0.08   0.02
    26   1     0.00  -0.08  -0.16     0.07  -0.01  -0.14     0.26  -0.00  -0.06
    27   1     0.14  -0.05  -0.03    -0.01  -0.00  -0.03     0.04  -0.06  -0.05
    28   1     0.13  -0.05  -0.03    -0.01  -0.02  -0.04     0.03  -0.05  -0.03
    29   1     0.03   0.05   0.04    -0.07   0.01   0.02    -0.09   0.03   0.01
    30   1     0.01   0.03   0.04    -0.09  -0.00   0.00    -0.10   0.01   0.01
    31   1     0.01  -0.10  -0.07    -0.05   0.01   0.00    -0.05  -0.01  -0.01
    32   1    -0.13   0.01   0.00    -0.07   0.02   0.01    -0.12   0.04   0.02
    33   1    -0.12   0.02   0.00    -0.07   0.03   0.02    -0.12   0.04   0.02
    34   1     0.02   0.03  -0.27    -0.02  -0.14  -0.22    -0.16   0.03   0.03
    35   1     0.07   0.47  -0.01     0.06   0.16  -0.06    -0.20  -0.04  -0.02
                     22                     23                     24
                      A                      A                      A
 Frequencies --    544.1803               634.8000               741.0104
 Red. masses --      2.9213                 4.0900                 1.0907
 Frc consts  --      0.5097                 0.9711                 0.3529
 IR Inten    --      8.2391                 1.4089                 2.8748
  Atom  AN      X      Y      Z        X      Y      Z        X      Y      Z
     1   8     0.14   0.13  -0.04    -0.10   0.06  -0.14    -0.00   0.00  -0.01
     2   6    -0.14  -0.03   0.08    -0.15   0.23   0.20    -0.01   0.01   0.01
     3   6    -0.03  -0.12   0.05    -0.07   0.03   0.07     0.01  -0.01   0.00
     4   6     0.14  -0.01  -0.02     0.05  -0.08  -0.04     0.01  -0.00  -0.00
     5   6     0.00   0.07  -0.02    -0.03  -0.12   0.06     0.00   0.00  -0.00
     6   6    -0.02  -0.01  -0.02    -0.01  -0.02  -0.12     0.00   0.00   0.01
     7   6     0.10   0.01   0.04     0.11  -0.06   0.02    -0.01   0.01  -0.02
     8   6    -0.08   0.02   0.02     0.12  -0.06  -0.10    -0.00  -0.00  -0.01
     9   6    -0.05  -0.06  -0.03     0.09   0.05   0.04    -0.01  -0.02   0.02
    10   6     0.03  -0.03  -0.01    -0.01   0.01   0.01    -0.01  -0.03   0.04
    11   6     0.04   0.02   0.02    -0.04  -0.02  -0.02    -0.00  -0.03   0.04
    12   6     0.01  -0.01  -0.00    -0.02   0.01   0.01     0.00  -0.00   0.00
    13   6    -0.15   0.01  -0.03     0.07   0.00   0.02     0.00   0.00  -0.00
    14   1     0.04  -0.18   0.05    -0.25  -0.23   0.07    -0.00  -0.03   0.00
    15   1    -0.02  -0.34   0.11    -0.01  -0.00  -0.11     0.01  -0.03  -0.01
    16   1    -0.08   0.12  -0.02    -0.05  -0.04   0.06    -0.01   0.00  -0.00
    17   1    -0.02   0.23  -0.09    -0.04  -0.09   0.07    -0.00   0.02  -0.01
    18   1    -0.11  -0.05   0.07    -0.07  -0.19   0.15    -0.01  -0.01   0.00
    19   1    -0.10  -0.02  -0.07    -0.02   0.03  -0.04    -0.00   0.01   0.02
    20   1    -0.07   0.02   0.18    -0.03   0.03  -0.09    -0.00   0.00   0.02
    21   1    -0.11  -0.04  -0.13    -0.05  -0.00  -0.23    -0.00   0.00   0.00
    22   1     0.08  -0.00   0.04    -0.04   0.19   0.04    -0.01   0.03  -0.02
    23   1     0.18   0.07   0.03     0.15  -0.16   0.30    -0.00   0.01   0.00
    24   1    -0.15  -0.01   0.02     0.20  -0.08  -0.10     0.04   0.01  -0.01
    25   1    -0.07  -0.14  -0.03     0.04  -0.02   0.04    -0.02   0.27   0.03
    26   1    -0.01  -0.05   0.06     0.11   0.06   0.09     0.03  -0.11  -0.26
    27   1     0.08  -0.06  -0.01    -0.06   0.01   0.01     0.12   0.45   0.03
    28   1     0.10  -0.04  -0.01    -0.06   0.03   0.03    -0.08  -0.16  -0.43
    29   1     0.03   0.02   0.01    -0.05  -0.02  -0.02    -0.10  -0.14  -0.37
    30   1     0.04   0.02   0.02    -0.05  -0.01  -0.02     0.14   0.39   0.02
    31   1     0.03  -0.06  -0.04    -0.05   0.06   0.03     0.01   0.03  -0.04
    32   1    -0.04  -0.00  -0.00     0.01   0.01   0.01    -0.08   0.16   0.00
    33   1    -0.03  -0.00  -0.01     0.01   0.01   0.01     0.09  -0.06  -0.14
    34   1    -0.32  -0.09  -0.35     0.16   0.00   0.07     0.01   0.01   0.02
    35   1     0.01   0.34  -0.07     0.33  -0.12   0.01     0.01  -0.02  -0.00
                     25                     26                     27
                      A                      A                      A
 Frequencies --    780.1033               797.5800               842.5010
 Red. masses --      2.0718                 1.4572                 2.8565
 Frc consts  --      0.7429                 0.5462                 1.1946
 IR Inten    --      0.3789                 0.2489                 2.6541
  Atom  AN      X      Y      Z        X      Y      Z        X      Y      Z
     1   8    -0.01   0.03  -0.04     0.01  -0.01   0.01    -0.05   0.05  -0.02
     2   6    -0.05   0.04   0.04     0.03  -0.00  -0.01    -0.01   0.00  -0.11
     3   6     0.06  -0.11  -0.05    -0.03   0.04   0.05    -0.14  -0.18   0.07
     4   6     0.01  -0.03  -0.03     0.03   0.01   0.02     0.01  -0.01   0.01
     5   6     0.02   0.05  -0.03    -0.01  -0.04   0.02     0.02   0.03  -0.02
     6   6     0.01   0.01   0.16    -0.00  -0.01  -0.08     0.01  -0.00  -0.02
     7   6    -0.12  -0.00  -0.11     0.05   0.06   0.01    -0.02   0.09   0.05
     8   6     0.02  -0.04  -0.01    -0.02   0.01   0.02     0.01  -0.00   0.05
     9   6     0.02  -0.02   0.05    -0.06  -0.06   0.04    -0.06  -0.04  -0.04
    10   6     0.00   0.00   0.01    -0.01  -0.03   0.02    -0.03   0.05   0.01
    11   6    -0.00   0.02  -0.05     0.02   0.05  -0.04    -0.00   0.00   0.01
[...]
 2,-0.00000777,-0.00000170,0.00002074,0.00000833,-0.00000257,-0.0000092
 1,-0.00001082,0.00000245,-0.00000840,0.00002442,-0.00001713,-0.0000730
 9,-0.00015354,-0.00006891,0.00039281,-0.00057172,0.00030245,0.00047782
 ,0.00193898,-0.00051575,-0.00286553,0.11358133,0.00141399,-0.22803783,
 0.01334827,0.00094959,-0.02342260,0.00004753,-0.00009217,0.00000325,-0
 .00000139,-0.00000012,0.00000626,0.00000201,-0.00000234,0.00000166,-0.
 00000163,-0.00000221,0.00001156,-0.00000349,-0.00000359,0.00000167,0.0
 0000245,0.00000041,-0.00000366,-0.00000888,-0.00000072,-0.00000190,0.0
 0000280,-0.00000384,0.00000637,0.00000814,0.00000962,0.00000598,0.0000
 0125,-0.00001795,0.00004809,0.00003012,0.00003143,-0.00000193,-0.00014
 949,0.00016280,-0.00007613,0.00033526,-0.00012583,0.00065702,0.0000040
 7,-0.00006669,0.00002828,-0.00026552,-0.00062938,0.00088120,-0.0001969
 6,-0.00031464,0.00010748,-0.00090502,0.00077570,0.00225091,-0.12307564
 ,-0.00237513,0.25079899,-0.00014044,0.00007741,0.00002138,0.00009680,-
 0.00018944,-0.00007403,-0.00000146,0.00002329,0.00002608,0.00004152,-0
 .00001785,-0.00001187,-0.00002661,0.00001143,0.00000478,-0.00001088,0.
 00001043,-0.00000832,-0.00007225,-0.00002576,0.00000693,-0.00014555,-0
 .00014039,-0.00044265,-0.00002956,0.00145079,0.00052593,-0.00197298,-0
 .00096458,-0.00432790,-0.01025127,0.01775360,0.00372338,-0.11048822,0.
 10994148,0.01468245,-0.00010565,0.00027291,0.00002668,0.00000323,-0.00
 000449,0.00000112,-0.00000872,0.00001437,-0.00000290,0.00000152,-0.000
 00403,-0.00000240,0.00000057,0.00001912,-0.00000124,0.00000505,-0.0000
 0191,0.00000409,0.00001692,-0.00000220,-0.00000641,-0.00000624,0.00001
 601,0.00000224,0.00000262,-0.00000705,0.00000024,0.00000503,0.00000440
 ,-0.00000962,-0.00000491,-0.00002552,-0.00000277,0.00001141,-0.0000109
 6,0.00001914,-0.00001252,0.00002666,-0.00011695,-0.00002235,-0.0000663
 1,0.00007329,0.00032375,-0.00043997,-0.00007896,0.00023699,0.00027767,
 -0.00001622,0.00016781,-0.00030105,0.00071475,0.00090772,-0.00042173,0
 .00006119,0.11727855,0.00011320,-0.00005228,-0.00000937,-0.00009923,0.
 00012599,0.00004139,0.00000858,-0.00002062,-0.00001970,-0.00003043,0.0
 0002723,0.00001479,0.00001701,-0.00000920,-0.00000997,0.00000257,-0.00
 001138,0.00000050,0.00002290,-0.00000631,-0.00004299,0.00002420,0.0001
 0557,0.00018101,0.00010108,-0.00015631,-0.00058126,0.00059217,0.000994
 80,0.00167490,0.00067527,-0.00318456,-0.00072202,0.11027679,-0.2486526
 2,-0.02542466,0.00006251,-0.00015788,-0.00002302,-0.00000435,0.0000044
 9,-0.00000035,0.00001039,-0.00001251,0.00000414,-0.00000219,0.00000475
 ,0.00000271,0.00000384,-0.00001768,0.00000222,-0.00000138,0.00000665,0
 .00000116,-0.00001246,0.00000297,0.00000474,0.00000858,-0.00001534,-0.
 00000023,-0.00000060,0.00000920,0.00000567,-0.00000241,-0.00000096,0.0
 0000621,0.00000990,0.00002606,0.00002064,-0.00000448,0.00000019,-0.000
 00926,-0.00001367,-0.00002242,0.00006303,0.00008196,0.00000510,0.00007
 781,-0.00004179,0.00003670,-0.00012877,-0.00011052,0.00053910,-0.00008
 961,0.00024845,0.00070066,0.00025139,-0.00020767,0.00003973,0.00043662
 ,-0.12210096,0.26773597,-0.00010531,0.00006650,0.00002713,0.00005909,-
 0.00016278,-0.00008399,0.00000042,0.00001855,0.00002560,0.00003506,-0.
 00000778,-0.00001555,-0.00002219,0.00001016,0.00000559,-0.00001249,0.0
 0000637,-0.00001201,-0.00007154,-0.00003139,0.00000312,-0.00021876,-0.
 00010764,-0.00052407,-0.00081973,0.00146638,0.00083090,-0.00277846,-0.
 00067175,-0.00469742,-0.01280764,0.02520314,0.00360649,0.01500436,-0.0
 2595051,-0.05230393,-0.00011400,0.00027103,0.00002004,0.00000189,-0.00
 000247,0.00000195,-0.00000491,0.00001080,-0.00000213,0.00000010,-0.000
 00292,-0.00000071,0.00000214,0.00001319,-0.00000125,0.00000611,0.00000
 057,0.00000371,0.00000879,-0.00000099,-0.00000736,-0.00000245,0.000008
 60,0.00000480,0.00000703,0.00000057,0.00000441,0.00000558,0.00000505,-
 0.00000567,0.00000720,-0.00001666,-0.00000035,0.00000375,-0.00002144,0
 .00001527,0.00011792,0.00001394,0.00000994,-0.00002757,-0.00005240,0.0
 0003947,-0.00035395,-0.00002354,0.00024908,0.00023185,-0.00019547,-0.0
 0012517,0.00061202,-0.00051893,0.00101357,0.00090808,0.00004919,0.0009
 4754,-0.01344983,0.02771606,0.05458273,0.00002368,-0.00001365,-0.00000
 499,-0.00001678,0.00003011,0.00001345,0.00000234,-0.00000493,-0.000005
 01,-0.00000887,0.00000566,0.00000587,0.00000409,-0.00000208,0.00000028
 ,0.00000649,-0.00000112,0.00000539,0.00000467,-0.00000215,-0.00000308,
 -0.00001631,0.00000506,0.00013593,0.00008930,-0.00016361,-0.00022261,0
 .00139204,-0.00069122,-0.00034140,0.01203049,0.00110697,-0.01948132,-0
 .11967935,-0.00475768,0.11585306,0.00002456,-0.00004309,0.00000288,-0.
 00000081,0.00000054,-0.00000223,0.00000219,-0.00000288,0.00000129,-0.0
 0000024,0.00000129,-0.00000373,0.00000162,-0.00000391,0.00000046,-0.00
 000266,0.00000134,0.00000152,-0.00000122,0.00000138,0.00000077,0.00000
 123,-0.00000288,-0.00000160,-0.00000368,-0.00000006,-0.00000096,-0.000
 00162,-0.00000364,-0.00000585,-0.00000223,0.00000960,0.00000901,-0.000
 01977,0.00002889,0.00000609,-0.00010890,0.00000508,0.00013047,0.000008
 97,-0.00001251,-0.00001813,-0.00007398,-0.00006901,0.00043919,-0.00008
 175,0.00009122,0.00010244,0.00114025,-0.00020704,0.00081939,-0.0020505
 3,0.00121940,-0.00417694,-0.00863854,-0.00164285,0.01272139,0.12772472
 ,-0.00002912,0.00000682,0.00000057,0.00002556,-0.00001846,-0.00000629,
 -0.00000122,0.00000393,0.00000254,0.00000117,-0.00000799,-0.00000237,-
 0.00000211,0.00000051,0.00000305,0.00000759,0.00000338,0.00000847,0.00
 001039,-0.00000528,0.00002059,0.00000133,-0.00001547,-0.00001019,0.000
 14146,-0.00002272,0.00002317,-0.00104233,0.00036349,0.00074322,-0.0028
 1153,-0.00093647,0.00423611,-0.00468694,-0.05091423,0.00716056,-0.0000
 0579,0.00003126,-0.00000651,0.00000082,-0.00000139,-0.00000238,-0.0000
 0285,0.00000203,-0.00000100,0.00000094,-0.00000007,-0.00000453,-0.0000
 0053,0.00000363,-0.00000057,-0.00000248,-0.00000214,0.00000074,0.00000
 624,-0.00000084,0.00000055,-0.00000355,0.00000536,-0.00000423,-0.00000
 568,-0.00000811,-0.00000579,-0.00000069,0.00000449,-0.00001580,-0.0000
 1750,-0.00001210,0.00000069,0.00002879,-0.00000849,-0.00001101,0.00001
 098,-0.00003080,-0.00012777,-0.00004238,-0.00001375,-0.00003201,0.0003
 7359,0.00007515,-0.00013825,-0.00002255,-0.00001728,0.00007432,0.00032
 710,0.00008579,-0.00052155,0.00078095,0.00071077,0.00083170,0.01512912
 ,0.00230151,-0.02597870,0.00439277,0.04871792,-0.00004751,0.00001866,0
 .00001202,0.00005012,-0.00005190,-0.00001614,-0.00000370,0.00000750,0.
 00000610,0.00002044,-0.00001078,-0.00000694,-0.00001055,0.00000614,-0.
 00000094,-0.00001015,0.00000818,-0.00001103,-0.00003509,0.00000676,-0.
 00001692,-0.00003100,-0.00001123,0.00002082,-0.00032823,0.00000075,0.0
 0027538,0.00143659,-0.00099475,0.00063627,0.01373797,0.00103615,-0.023
 60297,0.11543762,0.00725352,-0.23856439,-0.00001126,0.00004781,0.00000
 351,0.00000054,-0.00000189,0.00000569,-0.00000390,0.00000545,-0.000002
 01,-0.00000133,-0.00000356,0.00000646,-0.00000092,0.00000797,-0.000000
 38,0.00000449,-0.00000103,-0.00000046,-0.00000088,-0.00000228,-0.00000
 563,-0.00000167,0.00000412,0.00000596,0.00000878,0.00000426,0.00000423
 ,-0.00000105,-0.00000791,0.00001880,0.00000773,-0.00000406,-0.00000809
 ,-0.00005267,0.00004305,0.00001453,0.00011887,-0.00012412,0.00032246,0
 .00003755,-0.00001836,-0.00003197,-0.00091579,0.00081955,0.00056825,-0
 .00008192,0.00007364,0.00002583,0.00001332,-0.00053683,0.00098635,-0.0
 0436312,0.00085928,-0.00314509,0.00144135,-0.00037687,-0.00239499,-0.1
 2492734,-0.00852999,0.26182055,0.00001285,0.00002661,-0.00000009,-0.00
 001264,-0.00005691,0.00000061,0.00000991,0.00000609,0.00000088,0.00002
 032,0.00002261,0.00000638,-0.00001524,0.00000422,-0.00000877,-0.000014
 39,-0.00000574,-0.00001246,-0.00008929,0.00000326,-0.00005434,0.000035
 77,0.00004268,-0.00000793,0.00011768,0.00033985,-0.00013174,0.00044340
 ,-0.00169721,0.00071860,-0.01476466,-0.01503429,-0.00129936,-0.1691470
 3,-0.12852552,-0.01084881,0.00000305,0.00001300,0.00000113,-0.00000200
 ,0.00000065,0.00000063,0.00000409,0.00000315,0.00000323,-0.00000103,0.
 00000149,-0.00000119,0.00000702,0.00000145,0.00000122,0.00000607,0.000
 00724,0.00000943,0.00000662,0.00000309,-0.00000179,0.00000427,-0.00000
 038,0.00000298,0.00000368,0.00000431,0.00001056,0.00000319,0.00000224,
 -0.00000420,0.00001091,0.00002090,0.00003233,-0.00000357,0.00000194,-0
 .00000105,-0.00000654,-0.00002209,0.00001295,0.00026305,0.00007436,0.0
 0020953,-0.00004543,0.00004178,-0.00003035,0.00004138,0.00117223,-0.00
 013788,-0.00146944,0.00131414,-0.00377692,0.00104496,0.00043917,0.0001
 0763,0.01281836,0.01203312,0.00103587,-0.01174844,-0.01255760,-0.00149
 466,0.18244954,-0.00003476,0.00003126,0.00000435,0.00002766,-0.0000695
 3,-0.00001645,-0.00000087,0.00001749,0.00000991,0.00000927,-0.00001548
 ,-0.00001317,-0.00001286,0.00000339,0.00000120,-0.00000527,0.00000383,
 -0.00000403,-0.00002083,0.00000383,0.00001307,-0.00003475,-0.00004165,
 -0.00005851,0.00015700,0.00028935,0.00014975,0.00060082,0.00117855,-0.
 00003069,0.00450696,0.00435716,-0.00029673,-0.12881255,-0.18900947,-0.
 01286638,-0.00003037,0.00006323,0.00000073,0.00000108,-0.00000173,-0.0
 0000026,-0.00000429,0.00000578,-0.00000202,0.00000044,-0.00000116,-0.0
 0000330,0.00000092,0.00000767,-0.00000078,0.00000293,-0.00000078,0.000
 00448,0.00000856,0.00000060,-0.00000246,-0.00000311,0.00000656,0.00000
 067,0.00000132,-0.00000410,0.00000086,0.00000225,0.00000240,-0.0000095
 1,-0.00001021,-0.00001629,-0.00000789,0.00000580,-0.00000054,0.0000002
 6,-0.00000830,-0.00000645,-0.00003080,0.00004352,-0.00016297,0.0000588
 0,0.00001921,-0.00003884,-0.00001536,-0.00038153,0.00031323,0.00002934
 ,0.00141138,0.00093542,0.00086515,-0.00019905,0.00021152,-0.00067743,-
 0.02029797,-0.02035159,-0.00110963,0.00072834,-0.00030017,0.00048481,0
 .14232177,0.20258993,-0.00000881,0.00001047,-0.00000035,0.00001369,-0.
 00002342,0.00000156,0.00000122,0.00000479,0.00000224,0.00001469,0.0000
 0782,-0.00000508,-0.00000765,0.00000432,0.00000432,0.00000380,0.000000
 41,0.00000337,-0.00005083,0.00002103,0.00001333,0.00010055,0.00007285,
 0.00002155,0.00005279,-0.00007115,-0.00010874,0.00080283,-0.00117055,0
 .00073023,-0.01937406,-0.02083772,-0.00212134,-0.01065183,-0.01262656,
 -0.05071084,0.00000434,-0.00000649,0.00000502,-0.00000014,-0.00000034,
 -0.00000177,-0.00000019,0.00000236,0.00000007,-0.00000046,0.00000054,-
 0.00000563,0.00000316,0.00000335,-0.00000090,-0.00000064,0.00000092,0.
 00000356,0.00000327,0.00000016,-0.00000231,-0.00000076,0.00000207,-0.0
 0000136,-0.00000123,-0.00000175,-0.00000072,-0.00000165,0.00000143,-0.
 00001775,-0.00000540,-0.00000220,0.00001227,0.00000048,0.00000605,0.00
 000020,-0.00000863,-0.00001590,-0.00004212,0.00019895,0.00009111,0.000
 08017,0.00002710,0.00017873,0.00003012,0.00014076,0.00073934,0.0002381
 6,-0.00389265,0.00135226,-0.00394270,0.00081694,-0.00049593,0.00098461
 ,-0.00278963,-0.00306387,-0.00122072,0.01894775,0.02229637,0.00307296,
 0.01565510,0.01352315,0.05298280,0.00191784,-0.00138394,0.00005927,0.0
 1143902,0.01606521,-0.00182394,-0.00208174,0.00271960,0.00031085,-0.00
 038988,0.00030213,-0.00012750,0.00015192,-0.00007892,0.00004830,0.0000
 3921,-0.00009633,0.00006880,-0.00206848,0.00163962,-0.00410378,-0.0127
 6101,-0.01592320,0.00315118,0.00014560,-0.00176702,0.00045901,0.000227
 34,0.00040752,-0.00013264,-0.00002169,0.00000057,-0.00001143,-0.000000
 03,0.00001118,-0.00000555,-0.15367823,-0.13192451,0.01412594,-0.000070
 08,-0.00005416,-0.00005318,0.00057133,0.00090322,0.00006033,-0.0000032
 7,0.00002015,-0.00000602,-0.00000585,-0.00011310,0.00000435,0.00005345
 ,0.00005917,0.00002033,-0.00000810,0.00000667,-0.00001545,0.00004752,-
 0.00004788,-0.00005631,-0.00000872,0.00002330,0.00006041,0.00031341,0.
 00036821,0.00004835,-0.00065031,-0.00140150,-0.00018990,0.00113954,0.0
 0037447,0.00005927,0.00005992,0.00003513,-0.00009251,-0.00003567,0.001
 17508,-0.00011360,-0.00002785,-0.00002563,-0.00000239,0.00022228,-0.00
 002144,0.00018448,-0.00000183,0.00006139,-0.00001368,-0.00000282,-0.00
 000023,-0.00000070,-0.00000130,-0.00000217,0.00000002,-0.00000117,-0.0
 0000269,0.00000174,0.00001354,0.00000262,0.00000777,0.16449978,0.00008
 753,0.00597059,-0.00055422,-0.02223865,-0.02627240,0.00305328,0.004958
 49,-0.00327244,-0.00056041,0.00038955,0.00016861,0.00050448,-0.0000327
 7,0.00009154,-0.00014303,-0.00017664,-0.00006679,0.00002520,0.00070257
 ,0.00073866,-0.00013752,0.00136656,0.00087072,-0.00109640,0.00065942,0
 .00079616,0.00010369,-0.00005517,0.00018701,-0.00003858,-0.00000940,-0
 .00000690,-0.00002552,-0.00000781,0.00000859,0.00000750,-0.12777371,-0
 .20902003,0.01715037,0.00009827,0.00044377,0.00014019,-0.00090281,-0.0
 0150086,-0.00013025,0.00001919,0.00000656,0.00000910,0.00003634,0.0000
 4351,0.00002750,-0.00011128,-0.00001965,-0.00005623,0.00003779,0.00000
 935,-0.00001682,0.00001381,0.00003286,0.00002941,0.00000332,0.00001032
 ,-0.00008986,0.00000274,-0.00002550,0.00006326,0.00007203,0.00006397,0
 .00015186,-0.00006277,0.00024038,-0.00041278,0.00007968,-0.00001417,0.
 00001776,-0.00007357,0.00030185,0.00015042,0.00000030,-0.00001757,-0.0
 0001590,0.00008667,0.00001474,0.00004052,-0.00000077,0.00000857,0.0000
 0031,-0.00000187,0.00000094,0.00000084,-0.00000408,0.00000228,-0.00000
 391,0.00000023,-0.00000145,-0.00000268,0.00000251,0.00000102,-0.000000
 83,0.14026243,0.22719174,-0.00052804,0.00025431,-0.00121916,0.00065328
 ,-0.00190465,-0.00064379,-0.00001550,0.00041441,0.00125129,-0.00024150
 ,0.00065228,-0.00013759,0.00016669,-0.00008162,0.00002963,0.00000924,-
 0.00008701,0.00006192,-0.00290548,0.00141245,-0.00375879,-0.01582734,-
 0.02001900,0.00194287,0.00064714,-0.00102668,0.00030529,0.00011827,-0.
 00004042,-0.00002515,0.00003754,0.00004223,0.00000634,-0.00000158,-0.0
 0001159,0.00000232,0.01393641,0.01715967,-0.05184627,-0.00037948,-0.00
 040038,0.00024628,0.00004823,0.00012298,0.00039615,-0.00001499,0.00000
 857,0.00000002,0.00000463,-0.00008670,0.00003041,0.00004759,0.00006303
 ,0.00003573,-0.00000069,0.00000935,-0.00001349,0.00003804,-0.00002598,
 -0.00004857,0.00000928,0.00002208,0.00004882,-0.00030306,-0.00011102,0
 .00022615,-0.00098491,-0.00127688,0.00011557,0.00085351,-0.00035571,0.
 00095193,0.00002520,0.00012702,0.00003645,0.00012564,0.00047509,0.0002
 7702,-0.00000488,-0.00001909,-0.00004964,0.00010749,-0.00001452,0.0000
 4485,-0.00001137,0.00002148,0.00000689,0.00000790,0.00000047,-0.000004
 99,0.00000214,-0.00000071,0.00000244,-0.00000137,-0.00000043,-0.000005
 56,0.00000445,-0.00000006,-0.00000168,-0.01266462,-0.01843009,0.053301
 62,-0.00113415,0.00409618,-0.00302956,-0.01227051,-0.00066820,0.017167
 96,0.00026345,-0.00025594,-0.00111221,-0.00005767,-0.00029038,-0.00002
 994,-0.00005491,-0.00000011,-0.00003074,-0.00007935,0.00002217,-0.0000
 1272,0.00148362,0.00037480,-0.00004513,0.00962181,-0.00174547,-0.02214
 909,0.00166300,-0.00029319,-0.00059829,0.00016438,-0.00024653,-0.00033
 073,0.00002019,0.00005888,0.00018581,0.00001657,-0.00005842,-0.0000208
 2,-0.10193975,0.00532072,0.11061295,0.00063825,0.00034714,-0.00032143,
 -0.00005780,-0.00009529,-0.00037640,0.00000906,-0.00001161,0.00000519,
 0.00000205,0.00002075,0.00000219,-0.00001231,-0.00002362,0.00000307,-0
 .00004995,0.00003777,-0.00001205,-0.00000949,-0.00002084,0.00004263,0.
 00003489,0.00003168,-0.00001321,-0.00015863,0.00004895,0.00039132,0.00
 013989,0.00035768,0.00020826,-0.00274904,0.00012403,-0.00368630,-0.000
 11721,-0.00015898,0.00038612,-0.00008070,0.00005915,0.00019636,-0.0001
 3547,0.00002784,0.00014658,0.00002646,0.00000804,0.00000531,-0.0000100
 2,-0.00000196,0.00000197,-0.00001659,0.00003340,0.00000269,0.00002160,
 -0.00001535,0.00002017,0.00000021,-0.00000120,0.00000563,0.00000002,0.
 00000486,-0.00000062,-0.00902367,0.00257188,0.01704215,0.11385181,0.00
 279518,-0.00293028,0.00352283,0.01336865,0.00214325,-0.02801993,-0.001
 36704,-0.00036136,0.00311456,0.00038183,0.00025367,0.00011362,0.000040
 23,-0.00000318,0.00000759,0.00003825,0.00017353,0.00000454,0.00059403,
 0.00006490,-0.00100749,-0.00101897,0.00034433,0.00124278,-0.00055912,0
 .00027896,0.00091377,-0.00002645,-0.00012778,0.00002023,-0.00001106,-0
 .00001255,-0.00000306,0.00000636,0.00000479,-0.00000241,0.00694792,-0.
 05288903,-0.01913495,-0.00036540,-0.00159573,-0.00002902,0.00003806,0.
 00041890,0.00042334,-0.00001610,-0.00002986,0.00001519,-0.00001729,0.0
 0001755,0.00001551,0.00001190,-0.00000107,0.00000098,-0.00000439,-0.00
 001750,0.00006825,-0.00000813,0.00001023,0.00001991,-0.00003732,-0.000
 01192,0.00000899,-0.00022179,0.00008827,0.00002937,-0.00001913,0.00002
 046,0.00012919,0.00063248,0.00067254,0.00026399,0.00023784,0.00028685,
 -0.00003153,-0.00017033,-0.00007358,0.00010122,0.00003735,-0.00003133,
 -0.00008764,-0.00004972,-0.00000091,-0.00004974,-0.00000131,-0.0000078
 8,0.00000877,0.00002740,-0.00000751,-0.00001067,-0.00000241,0.00000271
 ,-0.00000120,-0.00000359,0.00000116,-0.00000938,-0.00000414,-0.0000014
 5,-0.00000282,-0.01159496,0.00301405,0.02310713,-0.00965881,0.05030679
 ,-0.00058931,-0.00058122,-0.00090713,0.00052977,0.00045598,0.00092676,
 0.00063016,0.00018278,-0.00059906,-0.00040241,-0.00005111,-0.00013999,
 0.00004712,-0.00004540,-0.00001353,0.00018006,0.00013483,0.00002232,0.
 00145576,0.00067679,0.00074170,0.01034176,-0.00084362,-0.02707161,0.00
 194632,-0.00102104,0.00115416,-0.00026515,-0.00005990,0.00013859,-0.00
 003939,0.00001861,0.00006691,0.00001083,-0.00001509,-0.00000731,0.1071
 5055,-0.01419004,-0.23184035,-0.00032844,0.00004236,0.00054837,-0.0000
 5898,-0.00014714,0.00023261,-0.00003663,-0.00002468,0.00003149,-0.0000
 1635,-0.00001504,0.00000688,0.00000074,-0.00000132,0.00001487,-0.00014
 531,0.00003216,0.00006431,-0.00004477,-0.00006760,0.00004077,0.0000108
 2,0.00001601,0.00004233,-0.00078762,-0.00065301,0.00052276,-0.00017451
 ,0.00017498,0.00042928,-0.00452901,-0.00020961,-0.00288750,-0.00101058
 ,0.00062351,0.00048758,-0.00005960,0.00014796,-0.00004091,0.00011300,-
 0.00009650,0.00032692,0.00001975,-0.00000593,0.00001722,0.00000122,-0.
 00000264,-0.00000568,-0.00003798,0.00003421,0.00000505,0.00000455,-0.0
 0000234,0.00000156,-0.00000010,-0.00000327,0.00000736,-0.00000199,-0.0
 0000107,-0.00000251,0.00074278,0.00023932,-0.00156534,-0.11465709,0.01
 525808,0.25925108\\0.00004981,0.00001130,-0.00000317,0.00002455,-0.000
 01170,-0.00002637,0.00000970,-0.00000798,0.00009754,0.00005089,0.00005
 900,-0.00003667,-0.00002311,0.00000827,-0.00000465,0.00000495,0.000036
 92,0.00000568,-0.00003317,0.00000826,-0.00002991,0.00003168,0.00004123
 ,0.00001102,-0.00001294,0.00001541,0.00001196,0.00000292,-0.00002030,-
 0.00003288,0.00001372,0.00001159,0.00003127,-0.00003743,-0.00000575,-0
 .00003070,-0.00002549,-0.00008210,-0.00000362,0.00000782,-0.00000962,-
 0.00001296,-0.00002299,0.00000886,-0.00000908,-0.00000833,-0.00000103,
 0.00000207,-0.00000570,0.00000613,0.00000210,-0.00001267,-0.00000891,0
 .00000537,-0.00000258,-0.00000893,-0.00000392,-0.00000251,0.00000249,0
 .00000747,0.00000699,-0.00001032,0.00000538,0.00001351,-0.00000403,-0.
 00000421,-0.00001837,0.00001969,-0.00001779,-0.00003357,0.00000752,0.0
 0002402,0.00000989,-0.00003444,-0.00000204,-0.00000971,-0.00000072,-0.
 00000369,-0.00001631,-0.00000457,0.00004953,0.00002599,0.00001215,-0.0
 0001337,-0.00002930,-0.00004456,-0.00001036,0.00003163,0.00000274,-0.0
 0004196,0.00000700,-0.00003222,-0.00001701,-0.00002568,-0.00000049,0.0
 0004864,0.00002829,0.00004315,-0.00000099,-0.00000994,0.00000604,-0.00
 000497,0.00001045,-0.00001310,0.00000829\\\@


 EVERYTHING'S GOT A MORAL, IF ONLY YOU CAN FIND IT.

                                    -- LEWIS CARROL, ALICE IN WONDERLAND
 Job cpu time:       0 days  0 hours  3 minutes 42.5 seconds.
 Elapsed time:       0 days  0 hours  3 minutes 47.6 seconds.
 File lengths (MBytes):  RWF=    238 Int=      0 D2E=      0 Chk=     16 Scr=      1
 Normal termination of Gaussian 16 at Sat Feb 24 03:00:28 2024.
