 Entering Gaussian System, Link 0=g16
 Input=/Volumes/SSD-PMU3/b3lyp_6-31gd_freq/UJBOOUHRTQVGRU-LURJTMIESA-N_calculating/gaussianinput1.gjf
 Output=/Volumes/SSD-PMU3/b3lyp_6-31gd_freq/UJBOOUHRTQVGRU-LURJTMIESA-N_calculating/gaussianinput1.log
 Initial command:
 /Applications/g16/l1.exe "/Users/macmini_m1_2022/PycharmProjects/sphere_model/sphere_model_lib/Gau-47247.inp" -scrdir="/Users/macmini_m1_2022/PycharmProjects/sphere_model/sphere_model_lib/"
 Entering Link 1 = /Applications/g16/l1.exe PID=     47248.
  
 Copyright (c) 1988,1990,1992,1993,1995,1998,2003,2009,2016,
            Gaussian, Inc.  All Rights Reserved.
  
 This is part of the Gaussian(R) 16 program.  It is based on
 the Gaussian(R) 09 system (copyright 2009, Gaussian, Inc.),
 the Gaussian(R) 03 system (copyright 2003, Gaussian, Inc.),
 the Gaussian(R) 98 system (copyright 1998, Gaussian, Inc.),
 the Gaussian(R) 94 system (copyright 1995, Gaussian, Inc.),
 the Gaussian 92(TM) system (copyright 1992, Gaussian, Inc.),
 the Gaussian 90(TM) system (copyright 1990, Gaussian, Inc.),
 the Gaussian 88(TM) system (copyright 1988, Gaussian, Inc.),
 the Gaussian 86(TM) system (copyright 1986, Carnegie Mellon
 University), and the Gaussian 82(TM) system (copyright 1983,
 Carnegie Mellon University). Gaussian is a federally registered
 trademark of Gaussian, Inc.
  
 This software contains proprietary and confidential information,
 including trade secrets, belonging to Gaussian, Inc.
  
 This software is provided under written license and may be
 used, copied, transmitted, or stored only in accord with that
 written license.
  
 The following legend is applicable only to US Government
 contracts under FAR:
  
                    RESTRICTED RIGHTS LEGEND
  
 Use, reproduction and disclosure by the US Government is
 subject to restrictions as set forth in subparagraphs (a)
 and (c) of the Commercial Computer Software - Restricted
 Rights clause in FAR 52.227-19.
  
 Gaussian, Inc.
 340 Quinnipiac St., Bldg. 40, Wallingford CT 06492
  
  
 ---------------------------------------------------------------
 Warning -- This program may not be used in any manner that
 competes with the business of Gaussian, Inc. or will provide
 assistance to any competitor of Gaussian, Inc.  The licensee
 of this program is prohibited from giving any competitor of
 Gaussian, Inc. access to this program.  By using this program,
 the user acknowledges that Gaussian, Inc. is engaged in the
 business of creating and licensing software in the field of
 computational chemistry and represents and warrants to the
 licensee that it is not a competitor of Gaussian, Inc. and that
 it will not use this program in any manner prohibited above.
 ---------------------------------------------------------------
  

 Cite this work as:
 Gaussian 16, Revision A.03,
 M. J. Frisch, G. W. Trucks, H. B. Schlegel, G. E. Scuseria, 
 M. A. Robb, J. R. Cheeseman, G. Scalmani, V. Barone, 
 G. A. Petersson, H. Nakatsuji, X. Li, M. Caricato, A. V. Marenich, 
 J. Bloino, B. G. Janesko, R. Gomperts, B. Mennucci, H. P. Hratchian, 
 J. V. Ortiz, A. F. Izmaylov, J. L. Sonnenberg, D. Williams-Young, 
 F. Ding, F. Lipparini, F. Egidi, J. Goings, B. Peng, A. Petrone, 
 T. Henderson, D. Ranasinghe, V. G. Zakrzewski, J. Gao, N. Rega, 
 G. Zheng, W. Liang, M. Hada, M. Ehara, K. Toyota, R. Fukuda, 
 J. Hasegawa, M. Ishida, T. Nakajima, Y. Honda, O. Kitao, H. Nakai, 
 T. Vreven, K. Throssell, J. A. Montgomery, Jr., J. E. Peralta, 
 F. Ogliaro, M. J. Bearpark, J. J. Heyd, E. N. Brothers, K. N. Kudin, 
 V. N. Staroverov, T. A. Keith, R. Kobayashi, J. Normand, 
 K. Raghavachari, A. P. Rendell, J. C. Burant, S. S. Iyengar, 
 J. Tomasi, M. Cossi, J. M. Millam, M. Klene, C. Adamo, R. Cammi, 
 J. W. Ochterski, R. L. Martin, K. Morokuma, O. Farkas, 
 J. B. Foresman, and D. J. Fox, Gaussian, Inc., Wallingford CT, 2016.
 
 ******************************************
 Gaussian 16:  EM64M-G16RevA.03 25-Dec-2016
                21-Feb-2024 
 ******************************************
 %nprocshared=8
 Will use up to    8 processors via shared memory.
 %mem=4GB
 %chk= 1.chk
 ---------------------
 # freq b3lyp/6-31g(d)
 ---------------------
 1/10=4,30=1,38=1/1,3;
 2/12=2,17=6,18=5,40=1/2;
 3/5=1,6=6,7=1,11=2,25=1,30=1,71=2,74=-5,140=1/1,2,3;
 4//1;
 5/5=2,38=5,98=1/2;
 8/6=4,10=90,11=11/1;
 11/6=1,8=1,9=11,15=111,16=1/1,2,10;
 10/6=1/2;
 6/7=2,8=2,9=2,10=2,28=1/1;
 7/8=1,10=1,25=1/1,2,3,16;
 1/10=4,30=1/3;
 99//99;
 ---------
 good luck
 ---------
 Symbolic Z-matrix:
 Charge =  0 Multiplicity = 1
 O                     1.21661   0.        0. 
 C                     0.        0.        0. 
 C                    -0.81633  -1.28655  -0.00268 
 C                    -1.90926  -1.29281  -1.09771 
 C                    -2.75805  -2.56675  -1.0236 
 C                    -2.76609  -0.01811  -1.0037 
 C                    -1.91302   1.25543  -1.0903 
 C                    -0.81951   1.28435  -0.00268 
 H                    -0.13055  -2.13293  -0.10952 
 H                    -1.30647  -1.37695   0.98029 
 H                    -1.39923  -1.27939  -2.07351 
 H                    -3.29597  -2.62469  -0.0685 
 H                    -3.50209  -2.59327  -1.82848 
 H                    -2.13609  -3.46516  -1.11099 
 H                    -3.51844  -0.01913  -1.80298 
 H                    -3.32133  -0.02643  -0.05286 
 H                    -2.54459   2.14748  -1.00194 
 H                    -1.43714   1.30701  -2.07936 
 H                    -0.13971   2.1329   -0.12254 
 H                    -1.29955   1.37648   0.98399 
 

 GradGradGradGradGradGradGradGradGradGradGradGradGradGradGradGradGradGrad
 Berny optimization.
 Initialization pass.
 Trust Radius=3.00D-01 FncErr=1.00D-07 GrdErr=1.00D-07 EigMax=2.50D+02 EigMin=1.00D-04
 Number of steps in this run=      2 maximum allowed number of steps=      2.
 GradGradGradGradGradGradGradGradGradGradGradGradGradGradGradGradGradGrad

                          Input orientation:                          
 ---------------------------------------------------------------------
 Center     Atomic      Atomic             Coordinates (Angstroms)
 Number     Number       Type             X           Y           Z
 ---------------------------------------------------------------------
      1          8           0        1.216606    0.000000    0.000000
      2          6           0        0.000000    0.000000    0.000000
      3          6           0       -0.816332   -1.286547   -0.002675
      4          6           0       -1.909260   -1.292812   -1.097712
      5          6           0       -2.758045   -2.566751   -1.023597
      6          6           0       -2.766086   -0.018109   -1.003703
      7          6           0       -1.913024    1.255429   -1.090304
      8          6           0       -0.819514    1.284352   -0.002675
      9          1           0       -0.130547   -2.132926   -0.109521
     10          1           0       -1.306467   -1.376949    0.980289
     11          1           0       -1.399231   -1.279387   -2.073508
     12          1           0       -3.295973   -2.624694   -0.068497
     13          1           0       -3.502090   -2.593271   -1.828477
     14          1           0       -2.136089   -3.465161   -1.110993
     15          1           0       -3.518440   -0.019133   -1.802979
     16          1           0       -3.321332   -0.026430   -0.052856
     17          1           0       -2.544587    2.147478   -1.001936
     18          1           0       -1.437139    1.307011   -2.079360
     19          1           0       -0.139712    2.132896   -0.122543
     20          1           0       -1.299545    1.376483    0.983989
 ---------------------------------------------------------------------
                    Distance matrix (angstroms):
                    1          2          3          4          5
     1  O    0.000000
     2  C    1.216606   0.000000
     3  C    2.405836   1.523682   0.000000
     4  C    3.556314   2.553744   1.547138   0.000000
     5  C    4.840848   3.904200   2.539971   1.532596   0.000000
     6  C    4.107260   2.942614   2.532298   1.538784   2.548732
     7  C    3.543931   2.534665   2.974443   2.548255   3.915044
     8  C    2.407354   1.523539   2.570901   3.004734   4.430709
     9  H    2.525112   2.139722   1.094566   2.201393   2.815579
    10  H    3.036915   2.136308   1.102099   2.165301   2.745590
    11  H    3.574754   2.809647   2.151319   1.101130   2.146158
    12  H    5.220831   4.213923   2.818437   2.180864   1.097698
    13  H    5.686341   4.725782   3.500625   2.182274   1.096421
    14  H    4.947950   4.219541   2.777856   2.184200   1.096179
    15  H    5.066731   3.953545   3.485516   2.170051   2.770558
    16  H    4.538323   3.321858   2.804539   2.165501   2.777204
    17  H    4.445460   3.477134   3.972142   3.499773   4.719109
    18  H    3.615851   2.845590   3.380024   2.818796   4.226755
    19  H    2.530585   2.140977   3.487804   3.977151   5.454745
    20  H    3.032154   2.133485   2.880752   3.439530   4.659047
                    6          7          8          9         10
     6  C    0.000000
     7  C    1.535289   0.000000
     8  C    2.547078   1.542575   0.000000
     9  H    3.495437   3.952228   3.487676   0.000000
    10  H    2.813034   3.403628   2.878518   1.772562   0.000000
    11  H    2.145600   2.766942   3.346219   2.489043   3.056763
    12  H    2.819517   4.244054   4.627939   3.203660   2.571955
    13  H    2.802394   4.228773   5.056256   3.812352   3.766877
    14  H    3.505792   4.725903   5.051694   2.607680   3.069587
    15  H    1.097670   2.170201   3.496337   4.337481   3.805663
    16  H    1.101126   2.168592   2.824847   3.823826   2.636469
    17  H    2.176886   1.096555   2.172415   4.994582   4.228917
    18  H    2.163118   1.098799   2.166701   4.173801   4.072121
    19  H    3.507293   2.202532   1.093858   4.265852   3.859607
    20  H    2.836644   2.166495   1.101101   3.857236   2.753443
                   11         12         13         14         15
    11  H    0.000000
    12  H    3.070432   0.000000
    13  H    2.491656   1.772287   0.000000
    14  H    2.499400   1.771585   1.772268   0.000000
    15  H    2.480418   3.137972   2.574316   3.776883   0.000000
    16  H    3.057353   2.598435   3.126368   3.788050   1.761203
    17  H    3.768755   4.920317   4.906596   5.628542   2.506843
    18  H    2.586682   4.791361   4.420313   4.919339   2.483316
    19  H    4.127509   5.709603   6.045862   6.025014   4.344065
    20  H    4.051157   4.593786   5.340423   5.341374   3.826020
                   16         17         18         19         20
    16  H    0.000000
    17  H    2.495989   0.000000
    18  H    3.071639   1.758883   0.000000
    19  H    3.845810   2.560658   2.488882   0.000000
    20  H    2.670362   2.467481   3.067224   1.772508   0.000000
 Stoichiometry    C7H12O
 Framework group  C1[X(C7H12O)]
 Deg. of freedom    54
 Full point group                 C1      NOp   1
 Largest Abelian subgroup         C1      NOp   1
 Largest concise Abelian subgroup C1      NOp   1
                         Standard orientation:                         
 ---------------------------------------------------------------------
 Center     Atomic      Atomic             Coordinates (Angstroms)
 Number     Number       Type             X           Y           Z
 ---------------------------------------------------------------------
      1          8           0        2.182139   -1.356916   -0.347159
      2          6           0        1.303104   -0.626977    0.070713
      3          6           0       -0.115138   -1.121254    0.327402
      4          6           0       -1.185890   -0.215297   -0.325569
      5          6           0       -2.600040   -0.698337    0.014581
      6          6           0       -0.961068    1.252505    0.077998
      7          6           0        0.452756    1.735580   -0.275352
      8          6           0        1.536632    0.848341    0.370835
      9          1           0       -0.191214   -2.155620   -0.022417
     10          1           0       -0.278745   -1.125291    1.417282
     11          1           0       -1.055620   -0.283782   -1.416819
     12          1           0       -2.784346   -0.642366    1.095247
     13          1           0       -3.358334   -0.084779   -0.486092
     14          1           0       -2.750789   -1.738760   -0.295907
     15          1           0       -1.707544    1.889258   -0.414139
     16          1           0       -1.127036    1.357836    1.161436
     17          1           0        0.592717    2.776671    0.039244
     18          1           0        0.579550    1.719873   -1.366698
     19          1           0        2.543419    1.117838    0.038758
     20          1           0        1.498699    0.977085    1.463726
 ---------------------------------------------------------------------
 Rotational constants (GHZ):           3.0687498           1.7028355           1.1895506
 Standard basis: 6-31G(d) (6D, 7F)
 There are   144 symmetry adapted cartesian basis functions of A   symmetry.
 There are   144 symmetry adapted basis functions of A   symmetry.
   144 basis functions,   272 primitive gaussians,   144 cartesian basis functions
    31 alpha electrons       31 beta electrons
       nuclear repulsion energy       385.8458964693 Hartrees.
 NAtoms=   20 NActive=   20 NUniq=   20 SFac= 1.00D+00 NAtFMM=   60 NAOKFM=F Big=F
 Integral buffers will be    131072 words long.
 Raffenetti 2 integral format.
 Two-electron integral symmetry is turned on.
 One-electron integrals computed using PRISM.
 NBasis=   144 RedAO= T EigKep=  3.20D-03  NBF=   144
 NBsUse=   144 1.00D-06 EigRej= -1.00D+00 NBFU=   144
 ExpMin= 1.61D-01 ExpMax= 5.48D+03 ExpMxC= 8.25D+02 IAcc=3 IRadAn=         5 AccDes= 0.00D+00
 Harris functional with IExCor=  402 and IRadAn=       5 diagonalized for initial guess.
 HarFok:  IExCor=  402 AccDes= 0.00D+00 IRadAn=         5 IDoV= 1 UseB2=F ITyADJ=14
 ICtDFT=  3500011 ScaDFX=  1.000000  1.000000  1.000000  1.000000
 FoFCou: FMM=F IPFlag=           0 FMFlag=      100000 FMFlg1=           0
         NFxFlg=           0 DoJE=T BraDBF=F KetDBF=T FulRan=T
         wScrn=  0.000000 ICntrl=       500 IOpCl=  0 I1Cent=   200000004 NGrid=           0
         NMat0=    1 NMatS0=      1 NMatT0=    0 NMatD0=    1 NMtDS0=    0 NMtDT0=    0
 Petite list used in FoFCou.
 Requested convergence on RMS density matrix=1.00D-08 within 128 cycles.
 Requested convergence on MAX density matrix=1.00D-06.
 Requested convergence on             energy=1.00D-06.
 No special actions if energy rises.
 Integral accuracy reduced to 1.0D-05 until final iterations.
 Initial convergence to 1.0D-05 achieved.  Increase integral accuracy.
 SCF Done:  E(RB3LYP) =  -349.206548074     A.U. after   13 cycles
            NFock= 13  Conv=0.85D-08     -V/T= 2.0097
 DoSCS=F DFT=T ScalE2(SS,OS)=  1.000000  1.000000
 Range of M.O.s used for correlation:     1   144
 NBasis=   144 NAE=    31 NBE=    31 NFC=     0 NFV=     0
 NROrb=    144 NOA=    31 NOB=    31 NVA=   113 NVB=   113
 Symmetrizing basis deriv contribution to polar:
 IMax=3 JMax=2 DiffMx= 0.00D+00
 G2DrvN: will do    21 centers at a time, making    1 passes.
 Calling FoFCou, ICntrl=  3107 FMM=F I1Cent=   0 AccDes= 0.00D+00.
 End of G2Drv F.D. properties file   721 does not exist.
 End of G2Drv F.D. properties file   722 does not exist.
 End of G2Drv F.D. properties file   788 does not exist.
          IDoAtm=11111111111111111111
          Differentiating once with respect to electric field.
                with respect to dipole field.
          Differentiating once with respect to nuclear coordinates.
 Keep R1 ints in memory in canonical form, NReq=62266173.
          There are    63 degrees of freedom in the 1st order CPHF.  IDoFFX=6 NUNeed=     3.
     60 vectors produced by pass  0 Test12= 5.56D-15 1.59D-09 XBig12= 5.16D+01 2.55D+00.
 AX will form    60 AO Fock derivatives at one time.
     60 vectors produced by pass  1 Test12= 5.56D-15 1.59D-09 XBig12= 6.71D+00 7.30D-01.
     60 vectors produced by pass  2 Test12= 5.56D-15 1.59D-09 XBig12= 5.90D-02 2.78D-02.
     60 vectors produced by pass  3 Test12= 5.56D-15 1.59D-09 XBig12= 1.87D-04 1.46D-03.
     60 vectors produced by pass  4 Test12= 5.56D-15 1.59D-09 XBig12= 2.02D-07 6.36D-05.
     28 vectors produced by pass  5 Test12= 5.56D-15 1.59D-09 XBig12= 1.14D-10 1.02D-06.
      3 vectors produced by pass  6 Test12= 5.56D-15 1.59D-09 XBig12= 6.36D-14 2.47D-08.
 InvSVY:  IOpt=1 It=  1 EMax= 3.55D-15
 Solved reduced A of dimension   331 with    63 vectors.
 Isotropic polarizability for W=    0.000000       72.70 Bohr**3.
 End of Minotr F.D. properties file   721 does not exist.
 End of Minotr F.D. properties file   722 does not exist.
 End of Minotr F.D. properties file   788 does not exist.

 **********************************************************************

            Population analysis using the SCF density.

 **********************************************************************

 Orbital symmetries:
       Occupied  (A) (A) (A) (A) (A) (A) (A) (A) (A) (A) (A) (A)
                 (A) (A) (A) (A) (A) (A) (A) (A) (A) (A) (A) (A)
                 (A) (A) (A) (A) (A) (A) (A)
       Virtual   (A) (A) (A) (A) (A) (A) (A) (A) (A) (A) (A) (A)
                 (A) (A) (A) (A) (A) (A) (A) (A) (A) (A) (A) (A)
                 (A) (A) (A) (A) (A) (A) (A) (A) (A) (A) (A) (A)
                 (A) (A) (A) (A) (A) (A) (A) (A) (A) (A) (A) (A)
                 (A) (A) (A) (A) (A) (A) (A) (A) (A) (A) (A) (A)
                 (A) (A) (A) (A) (A) (A) (A) (A) (A) (A) (A) (A)
                 (A) (A) (A) (A) (A) (A) (A) (A) (A) (A) (A) (A)
                 (A) (A) (A) (A) (A) (A) (A) (A) (A) (A) (A) (A)
                 (A) (A) (A) (A) (A) (A) (A) (A) (A) (A) (A) (A)
                 (A) (A) (A) (A) (A)
 The electronic state is 1-A.
 Alpha  occ. eigenvalues --  -19.13157 -10.26773 -10.20050 -10.19423 -10.19001
 Alpha  occ. eigenvalues --  -10.18935 -10.18830 -10.18115  -1.03027  -0.83694
 Alpha  occ. eigenvalues --   -0.77069  -0.72799  -0.68713  -0.61318  -0.57735
 Alpha  occ. eigenvalues --   -0.52991  -0.47767  -0.46305  -0.44097  -0.43801
 Alpha  occ. eigenvalues --   -0.43317  -0.39966  -0.39547  -0.38096  -0.37803
 Alpha  occ. eigenvalues --   -0.35676  -0.34575  -0.32953  -0.32278  -0.31824
 Alpha  occ. eigenvalues --   -0.23404
 Alpha virt. eigenvalues --   -0.01110   0.08290   0.10481   0.10903   0.13883
 Alpha virt. eigenvalues --    0.14772   0.15453   0.15811   0.16244   0.16997
 Alpha virt. eigenvalues --    0.17726   0.18155   0.18311   0.21305   0.22859
 Alpha virt. eigenvalues --    0.24516   0.25673   0.26162   0.27260   0.32272
 Alpha virt. eigenvalues --    0.35704   0.49892   0.50651   0.52911   0.53970
 Alpha virt. eigenvalues --    0.54406   0.55806   0.58873   0.61749   0.63386
 Alpha virt. eigenvalues --    0.65325   0.67422   0.68991   0.69575   0.72019
 Alpha virt. eigenvalues --    0.74039   0.75477   0.77534   0.82115   0.82444
 Alpha virt. eigenvalues --    0.83448   0.86190   0.86933   0.88496   0.88851
 Alpha virt. eigenvalues --    0.90464   0.91235   0.91781   0.93484   0.94046
 Alpha virt. eigenvalues --    0.94515   0.96240   0.97865   1.01712   1.06998
 Alpha virt. eigenvalues --    1.10170   1.11070   1.16767   1.20613   1.34774
 Alpha virt. eigenvalues --    1.36723   1.39918   1.46063   1.50449   1.52059
 Alpha virt. eigenvalues --    1.53019   1.68915   1.69748   1.70598   1.72790
 Alpha virt. eigenvalues --    1.75902   1.78526   1.81359   1.83238   1.87277
 Alpha virt. eigenvalues --    1.89741   1.91229   1.94496   1.95239   1.97339
 Alpha virt. eigenvalues --    2.00764   2.02667   2.04474   2.05432   2.09306
 Alpha virt. eigenvalues --    2.15572   2.17483   2.21930   2.23863   2.31175
 Alpha virt. eigenvalues --    2.34158   2.37138   2.39735   2.42906   2.47092
 Alpha virt. eigenvalues --    2.51520   2.52908   2.60630   2.63426   2.68368
 Alpha virt. eigenvalues --    2.72461   2.76604   2.79541   2.98268   3.01690
 Alpha virt. eigenvalues --    3.99495   4.12498   4.22557   4.25616   4.32807
 Alpha virt. eigenvalues --    4.53017   4.56740   4.62544
          Condensed to atoms (all electrons):
               1          2          3          4          5          6
     1  O    7.997511   0.591370  -0.077831   0.000785  -0.000055   0.000077
     2  C    0.591370   4.467614   0.322324  -0.017899   0.002454  -0.013260
     3  C   -0.077831   0.322324   5.346183   0.344495  -0.042896  -0.047063
     4  C    0.000785  -0.017899   0.344495   4.897255   0.370609   0.385196
     5  C   -0.000055   0.002454  -0.042896   0.370609   5.107687  -0.043965
     6  C    0.000077  -0.013260  -0.047063   0.385196  -0.043965   5.041168
     7  C    0.001362  -0.025200  -0.002505  -0.037993   0.004392   0.370430
     8  C   -0.079302   0.327312  -0.137525  -0.005647  -0.000023  -0.044257
     9  H    0.004820  -0.022379   0.340980  -0.026525  -0.003741   0.004637
    10  H    0.001352  -0.027185   0.341362  -0.036019  -0.007198  -0.005378
    11  H    0.000462  -0.001388  -0.051658   0.379436  -0.045143  -0.049163
    12  H   -0.000000   0.000011  -0.006124  -0.033522   0.372542  -0.006384
    13  H    0.000001  -0.000078   0.004554  -0.028213   0.368734  -0.004050
    14  H   -0.000001   0.000015  -0.003281  -0.028304   0.369443   0.004767
    15  H    0.000002   0.000293   0.005128  -0.032404  -0.003641   0.364740
    16  H   -0.000008  -0.001285  -0.005469  -0.042904  -0.004426   0.368560
    17  H   -0.000067   0.003141  -0.000277   0.004534  -0.000161  -0.029636
    18  H    0.000427  -0.002670   0.000207  -0.006262   0.000034  -0.038328
    19  H    0.004846  -0.023721   0.006607  -0.000018   0.000009   0.004030
    20  H    0.001335  -0.028175   0.003479  -0.001572  -0.000016  -0.002818
               7          8          9         10         11         12
     1  O    0.001362  -0.079302   0.004820   0.001352   0.000462  -0.000000
     2  C   -0.025200   0.327312  -0.022379  -0.027185  -0.001388   0.000011
     3  C   -0.002505  -0.137525   0.340980   0.341362  -0.051658  -0.006124
     4  C   -0.037993  -0.005647  -0.026525  -0.036019   0.379436  -0.033522
     5  C    0.004392  -0.000023  -0.003741  -0.007198  -0.045143   0.372542
     6  C    0.370430  -0.044257   0.004637  -0.005378  -0.049163  -0.006384
     7  C    5.024034   0.335965  -0.000188  -0.001180  -0.004069   0.000054
     8  C    0.335965   5.314523   0.006647   0.003164   0.000097  -0.000001
     9  H   -0.000188   0.006647   0.564184  -0.027541  -0.003881  -0.000216
    10  H   -0.001180   0.003164  -0.027541   0.592611   0.006474   0.005442
    11  H   -0.004069   0.000097  -0.003881   0.006474   0.628983   0.005609
    12  H    0.000054  -0.000001  -0.000216   0.005442   0.005609   0.578274
    13  H    0.000021   0.000013  -0.000018   0.000033  -0.003002  -0.030624
    14  H   -0.000160  -0.000004   0.003751  -0.000284  -0.003208  -0.031105
    15  H   -0.030450   0.004515  -0.000150  -0.000042  -0.004506  -0.000275
    16  H   -0.041526  -0.003521  -0.000043   0.005207   0.006512   0.005060
    17  H    0.367789  -0.028845   0.000017  -0.000012  -0.000021   0.000002
    18  H    0.375928  -0.042894  -0.000042   0.000099   0.005146   0.000005
    19  H   -0.025769   0.344617  -0.000180  -0.000128  -0.000038  -0.000000
    20  H   -0.036131   0.346970  -0.000140   0.001204   0.000109  -0.000004
              13         14         15         16         17         18
     1  O    0.000001  -0.000001   0.000002  -0.000008  -0.000067   0.000427
     2  C   -0.000078   0.000015   0.000293  -0.001285   0.003141  -0.002670
     3  C    0.004554  -0.003281   0.005128  -0.005469  -0.000277   0.000207
     4  C   -0.028213  -0.028304  -0.032404  -0.042904   0.004534  -0.006262
     5  C    0.368734   0.369443  -0.003641  -0.004426  -0.000161   0.000034
     6  C   -0.004050   0.004767   0.364740   0.368560  -0.029636  -0.038328
     7  C    0.000021  -0.000160  -0.030450  -0.041526   0.367789   0.375928
     8  C    0.000013  -0.000004   0.004515  -0.003521  -0.028845  -0.042894
     9  H   -0.000018   0.003751  -0.000150  -0.000043   0.000017  -0.000042
    10  H    0.000033  -0.000284  -0.000042   0.005207  -0.000012   0.000099
    11  H   -0.003002  -0.003208  -0.004506   0.006512  -0.000021   0.005146
    12  H   -0.030624  -0.031105  -0.000275   0.005060   0.000002   0.000005
    13  H    0.573122  -0.029578   0.004341  -0.000224   0.000002  -0.000008
    14  H   -0.029578   0.570261  -0.000057  -0.000048   0.000002   0.000002
    15  H    0.004341  -0.000057   0.597784  -0.036330  -0.002327  -0.003997
    16  H   -0.000224  -0.000048  -0.036330   0.615514  -0.004115   0.005807
    17  H    0.000002   0.000002  -0.002327  -0.004115   0.592759  -0.036962
    18  H   -0.000008   0.000002  -0.003997   0.005807  -0.036962   0.596214
    19  H   -0.000000  -0.000000  -0.000144  -0.000021  -0.002263  -0.003347
    20  H   -0.000000   0.000000  -0.000040   0.004674  -0.006559   0.005766
              19         20
     1  O    0.004846   0.001335
     2  C   -0.023721  -0.028175
     3  C    0.006607   0.003479
     4  C   -0.000018  -0.001572
     5  C    0.000009  -0.000016
     6  C    0.004030  -0.002818
     7  C   -0.025769  -0.036131
     8  C    0.344617   0.346970
     9  H   -0.000180  -0.000140
    10  H   -0.000128   0.001204
    11  H   -0.000038   0.000109
    12  H   -0.000000  -0.000004
    13  H   -0.000000  -0.000000
    14  H   -0.000000   0.000000
    15  H   -0.000144  -0.000040
    16  H   -0.000021   0.004674
    17  H   -0.002263  -0.006559
    18  H   -0.003347   0.005766
    19  H    0.559378  -0.026639
    20  H   -0.026639   0.586013
 Mulliken charges:
               1
     1  O   -0.447086
     2  C    0.448706
     3  C   -0.340690
     4  C   -0.085026
     5  C   -0.444640
     6  C   -0.259301
     7  C   -0.274806
     8  C   -0.341805
     9  H    0.160009
    10  H    0.148020
    11  H    0.133249
    12  H    0.141256
    13  H    0.144975
    14  H    0.147790
    15  H    0.137562
    16  H    0.128586
    17  H    0.143001
    18  H    0.144874
    19  H    0.162781
    20  H    0.152544
 Sum of Mulliken charges =  -0.00000
 Mulliken charges with hydrogens summed into heavy atoms:
               1
     1  O   -0.447086
     2  C    0.448706
     3  C   -0.032661
     4  C    0.048222
     5  C   -0.010619
     6  C    0.006848
     7  C    0.013069
     8  C   -0.026480
 APT charges:
               1
     1  O   -0.651122
     2  C    0.741282
     3  C   -0.079509
     4  C    0.150372
     5  C    0.080242
     6  C    0.086535
     7  C    0.148588
     8  C   -0.056505
     9  H   -0.025115
    10  H   -0.009512
    11  H   -0.067056
    12  H   -0.025729
    13  H   -0.033053
    14  H   -0.027431
    15  H   -0.048760
    16  H   -0.046433
    17  H   -0.056061
    18  H   -0.043232
    19  H   -0.024656
    20  H   -0.012844
 Sum of APT charges =  -0.00000
 APT charges with hydrogens summed into heavy atoms:
               1
     1  O   -0.651122
     2  C    0.741282
     3  C   -0.114136
     4  C    0.083316
     5  C   -0.005971
     6  C   -0.008659
     7  C    0.049295
     8  C   -0.094005
 Electronic spatial extent (au):  <R**2>=           1050.3449
 Charge=             -0.0000 electrons
 Dipole moment (field-independent basis, Debye):
    X=             -2.3032    Y=              1.8631    Z=              0.8218  Tot=              3.0743
 Quadrupole moment (field-independent basis, Debye-Ang):
   XX=            -55.6325   YY=            -51.4036   ZZ=            -48.5157
   XY=              5.2511   XZ=              2.0847   YZ=             -1.0616
 Traceless Quadrupole moment (field-independent basis, Debye-Ang):
   XX=             -3.7819   YY=              0.4470   ZZ=              3.3349
   XY=              5.2511   XZ=              2.0847   YZ=             -1.0616
 Octapole moment (field-independent basis, Debye-Ang**2):
  XXX=             -6.5645  YYY=             -0.6683  ZZZ=             -0.1170  XYY=             -4.5282
  XXY=             11.5618  XXZ=              2.4327  XZZ=              2.7834  YZZ=             -1.2564
  YYZ=              0.6220  XYZ=             -2.1686
 Hexadecapole moment (field-independent basis, Debye-Ang**3):
 XXXX=           -840.4050 YYYY=           -460.4449 ZZZZ=           -111.4095 XXXY=             15.0196
 XXXZ=              9.2413 YYYX=              3.1161 YYYZ=              1.9820 ZZZX=             -3.1563
 ZZZY=              1.2467 XXYY=           -225.2174 XXZZ=           -151.9732 YYZZ=            -96.9088
 XXYZ=             -5.8669 YYXZ=              4.6230 ZZXY=             -3.1913
 N-N= 3.858458964693D+02 E-N=-1.582191713957D+03  KE= 3.458515560170D+02
  Exact polarizability:  81.750  -0.569  75.046  -1.448   1.413  61.297
 Approx polarizability: 106.755  -7.974 103.284  -5.549   5.033  96.049
 Calling FoFJK, ICntrl=    100127 FMM=F ISym2X=0 I1Cent= 0 IOpClX= 0 NMat=1 NMatS=1 NMatT=0.
 Full mass-weighted force constant matrix:
 Low frequencies ---  -13.4672   -7.8529   -0.2596   -0.0005   -0.0002    0.0011
 Low frequencies ---   93.8726  129.3903  237.0097
 Diagonal vibrational polarizability:
        4.3745496       4.1544138       8.8427891
 Harmonic frequencies (cm**-1), IR intensities (KM/Mole), Raman scattering
 activities (A**4/AMU), depolarization ratios for plane and unpolarized
 incident light, reduced masses (AMU), force constants (mDyne/A),
 and normal coordinates:
                      1                      2                      3
                      A                      A                      A
 Frequencies --     93.8724               129.3899               237.0097
 Red. masses --      3.7908                 2.4732                 1.0822
 Frc consts  --      0.0197                 0.0244                 0.0358
 IR Inten    --      2.7624                 0.8178                 0.0295
  Atom  AN      X      Y      Z        X      Y      Z        X      Y      Z
     1   8     0.12  -0.08   0.27     0.07   0.07   0.00     0.01  -0.01   0.01
     2   6     0.02  -0.01  -0.07     0.01   0.00  -0.00     0.00  -0.01  -0.02
     3   6    -0.01  -0.02  -0.23    -0.00  -0.05  -0.16     0.00  -0.01  -0.02
     4   6    -0.05   0.06  -0.02    -0.04  -0.01  -0.05    -0.00  -0.01  -0.02
     5   6    -0.02   0.02   0.04    -0.01   0.05   0.18    -0.00   0.02   0.02
     6   6    -0.02   0.01   0.13     0.01   0.01  -0.12    -0.01  -0.01  -0.01
     7   6    -0.07   0.04  -0.01     0.04  -0.05  -0.04    -0.01   0.03   0.05
     8   6     0.01   0.02  -0.18    -0.06  -0.02   0.16     0.00  -0.01  -0.02
     9   1     0.01   0.03  -0.39     0.03  -0.01  -0.31     0.00  -0.00  -0.03
    10   1     0.01  -0.23  -0.22    -0.03  -0.22  -0.17     0.01  -0.02  -0.02
    11   1    -0.15   0.20  -0.05    -0.19  -0.05  -0.06    -0.01  -0.03  -0.02
    12   1     0.08  -0.12   0.07     0.16   0.10   0.21    -0.16   0.56  -0.04
    13   1    -0.07   0.08   0.19    -0.07   0.06   0.28     0.01  -0.31  -0.41
    14   1    -0.06   0.06  -0.08    -0.10   0.05   0.25     0.14  -0.16   0.53
    15   1    -0.09   0.06   0.31     0.05  -0.00  -0.20    -0.01  -0.01  -0.02
    16   1     0.13  -0.13   0.17    -0.05   0.08  -0.14    -0.05  -0.03  -0.01
    17   1    -0.03   0.02   0.03     0.03  -0.02  -0.12    -0.03   0.00   0.14
    18   1    -0.20   0.10  -0.02     0.16  -0.15  -0.03     0.01   0.13   0.05
    19   1    -0.03   0.01  -0.29     0.00   0.01   0.39    -0.01   0.00  -0.04
    20   1     0.17   0.02  -0.17    -0.31  -0.07   0.16     0.05  -0.04  -0.01
                      4                      5                      6
                      A                      A                      A
 Frequencies --    252.2854               294.3860               385.3146
 Red. masses --      1.9725                 2.2295                 3.0590
 Frc consts  --      0.0740                 0.1138                 0.2676
 IR Inten    --      0.6783                 0.4098                 1.1630
  Atom  AN      X      Y      Z        X      Y      Z        X      Y      Z
     1   8     0.03   0.08  -0.03     0.08   0.04  -0.00     0.16  -0.07  -0.02
     2   6     0.01   0.01   0.04     0.03  -0.01  -0.02     0.07  -0.11  -0.11
     3   6     0.00  -0.06   0.00     0.04  -0.09   0.06     0.06  -0.01   0.05
     4   6     0.00  -0.01   0.07     0.03  -0.12  -0.00     0.03   0.09   0.16
     5   6    -0.06   0.08  -0.08    -0.08   0.19  -0.01     0.01   0.02  -0.04
     6   6     0.05  -0.04   0.14    -0.02  -0.11  -0.05    -0.11   0.16  -0.00
     7   6    -0.01  -0.09  -0.13    -0.05   0.03   0.06    -0.08   0.00  -0.02
     8   6    -0.03   0.02   0.03    -0.01   0.01  -0.05    -0.14  -0.10  -0.01
     9   1     0.04  -0.03  -0.12     0.07  -0.11   0.13    -0.15   0.00   0.07
    10   1    -0.00  -0.19   0.00     0.07  -0.01   0.07     0.26   0.01   0.08
    11   1     0.04   0.07   0.07     0.04  -0.19   0.00     0.08   0.10   0.16
    12   1    -0.26   0.25  -0.12    -0.04   0.17   0.00    -0.18  -0.04  -0.07
    13   1     0.06   0.04  -0.31     0.11   0.50   0.07     0.08   0.02  -0.14
    14   1    -0.05   0.04   0.05    -0.44   0.27  -0.10     0.10   0.04  -0.12
    15   1    -0.04  -0.01   0.32    -0.03  -0.17  -0.11    -0.06   0.03  -0.25
    16   1     0.28  -0.10   0.18    -0.12  -0.11  -0.07    -0.24   0.40  -0.05
    17   1     0.04  -0.02  -0.40    -0.14  -0.02   0.24     0.08  -0.01  -0.04
    18   1    -0.11  -0.38  -0.14    -0.02   0.22   0.07    -0.10  -0.03  -0.02
    19   1    -0.00   0.00   0.09    -0.04   0.02  -0.13    -0.11   0.07   0.24
    20   1    -0.14   0.11   0.01     0.09  -0.02  -0.05    -0.37  -0.27   0.01
                      7                      8                      9
                      A                      A                      A
 Frequencies --    397.5797               434.9501               489.6200
 Red. masses --      3.5986                 1.8461                 2.2423
 Frc consts  --      0.3351                 0.2058                 0.3167
 IR Inten    --      0.2924                 1.2883                 3.2587
  Atom  AN      X      Y      Z        X      Y      Z        X      Y      Z
     1   8    -0.11  -0.01   0.01     0.02  -0.07   0.00     0.07   0.08   0.04
     2   6    -0.13  -0.05   0.04     0.04  -0.00  -0.06    -0.07  -0.01  -0.11
     3   6    -0.02  -0.16   0.02     0.02   0.13   0.01    -0.06  -0.01   0.05
     4   6     0.19  -0.01  -0.01     0.02   0.01  -0.14    -0.06  -0.03   0.00
     5   6     0.24   0.06   0.02     0.07   0.06   0.01    -0.10  -0.07   0.00
     6   6     0.07   0.01   0.01    -0.03  -0.07   0.05     0.14  -0.01  -0.00
     7   6    -0.05   0.16  -0.07    -0.07  -0.05  -0.01     0.12   0.10  -0.04
     8   6    -0.19   0.01  -0.05    -0.05  -0.01   0.05    -0.06  -0.05  -0.04
     9   1    -0.01  -0.10  -0.18    -0.05   0.01   0.36    -0.14  -0.09   0.30
    10   1    -0.12  -0.33  -0.00     0.02   0.51   0.01     0.06   0.26   0.07
    11   1     0.25   0.01  -0.01     0.01   0.03  -0.14    -0.09  -0.09   0.00
    12   1     0.34   0.08   0.04     0.24   0.14   0.04    -0.13  -0.12   0.00
    13   1     0.21   0.07   0.08     0.02   0.07   0.10    -0.12  -0.12  -0.01
    14   1     0.19   0.06   0.06    -0.03   0.04   0.11    -0.01  -0.08  -0.03
    15   1    -0.11  -0.11   0.13    -0.10   0.02   0.29     0.05   0.06   0.23
    16   1     0.18  -0.07   0.04     0.12  -0.32   0.10     0.36  -0.12   0.04
    17   1    -0.02   0.11   0.08    -0.07  -0.03  -0.08     0.08   0.03   0.22
    18   1    -0.06   0.27  -0.07    -0.10  -0.13  -0.01     0.17   0.34  -0.04
    19   1    -0.12  -0.07   0.10    -0.03   0.13   0.23     0.05  -0.12   0.24
    20   1    -0.32   0.03  -0.05    -0.24  -0.11   0.05    -0.31  -0.18  -0.03
                     10                     11                     12
                      A                      A                      A
 Frequencies --    513.0813               642.7500               760.6812
 Red. masses --      2.8993                 3.7178                 2.0420
 Frc consts  --      0.4497                 0.9049                 0.6962
 IR Inten    --      9.1418                 1.2869                 3.5559
  Atom  AN      X      Y      Z        X      Y      Z        X      Y      Z
     1   8     0.12   0.19  -0.01     0.10  -0.10  -0.13    -0.03   0.04  -0.00
     2   6    -0.07  -0.09   0.08     0.19  -0.16   0.25     0.03   0.06   0.09
     3   6    -0.12  -0.03   0.04    -0.02  -0.05   0.06     0.05   0.14   0.02
     4   6     0.00   0.08  -0.10    -0.07   0.05  -0.10    -0.01   0.05   0.04
     5   6     0.08   0.02   0.01    -0.10  -0.03   0.01     0.02   0.02   0.00
     6   6    -0.04   0.05   0.01    -0.03   0.07  -0.03    -0.00  -0.06  -0.05
     7   6    -0.01  -0.10   0.04    -0.04   0.14  -0.08    -0.02  -0.13  -0.04
     8   6    -0.02  -0.14  -0.06     0.01   0.06   0.02    -0.03  -0.13  -0.09
     9   1    -0.28  -0.06   0.17    -0.06  -0.01  -0.05     0.17   0.25  -0.31
    10   1    -0.24   0.17   0.02    -0.33  -0.13   0.00    -0.05  -0.23  -0.00
    11   1     0.04   0.10  -0.09    -0.08   0.02  -0.10    -0.01  -0.02   0.05
    12   1     0.25   0.04   0.04     0.02  -0.04   0.03    -0.07  -0.03  -0.01
    13   1    -0.05  -0.07   0.11    -0.21  -0.09   0.09     0.05   0.02  -0.04
    14   1     0.13  -0.01   0.09    -0.06  -0.04   0.05     0.08   0.03  -0.06
    15   1     0.03   0.10  -0.02    -0.17   0.16   0.31    -0.01   0.03   0.09
    16   1    -0.11  -0.01   0.01     0.24  -0.15   0.04     0.15  -0.09  -0.02
    17   1     0.13  -0.10  -0.02    -0.04   0.06   0.17    -0.03  -0.29   0.49
    18   1    -0.06  -0.16   0.04    -0.00   0.37  -0.08     0.03   0.40  -0.03
    19   1    -0.10  -0.33  -0.43    -0.00   0.12   0.03     0.01  -0.04   0.12
    20   1     0.36   0.03  -0.07    -0.07   0.34  -0.01    -0.29  -0.08  -0.10
                     13                     14                     15
                      A                      A                      A
 Frequencies --    822.1594               842.1006               884.6711
 Red. masses --      2.6791                 1.6222                 1.4999
 Frc consts  --      1.0670                 0.6778                 0.6916
 IR Inten    --      1.5580                 1.1606                 3.5333
  Atom  AN      X      Y      Z        X      Y      Z        X      Y      Z
     1   8    -0.07   0.03   0.02     0.01   0.01   0.01     0.02  -0.00   0.02
     2   6    -0.02   0.04   0.06     0.03   0.06  -0.04    -0.02   0.02  -0.09
     3   6     0.23  -0.02  -0.01    -0.07  -0.04   0.11    -0.02   0.01   0.09
     4   6     0.03  -0.07  -0.11    -0.01  -0.01  -0.07    -0.01   0.01   0.01
     5   6    -0.10  -0.06  -0.01    -0.02  -0.01  -0.03     0.02   0.01  -0.01
     6   6    -0.06   0.16   0.04    -0.03   0.02   0.06    -0.09   0.03  -0.10
     7   6     0.04   0.04   0.00     0.03  -0.01   0.02    -0.01   0.03  -0.00
     8   6    -0.07  -0.13  -0.03     0.09   0.02  -0.09     0.04  -0.03   0.06
     9   1     0.49  -0.07   0.09     0.07   0.03  -0.14    -0.04   0.13  -0.24
    10   1     0.19   0.07  -0.02    -0.22  -0.31   0.08     0.11  -0.35   0.11
    11   1     0.05  -0.02  -0.10     0.21   0.03  -0.05     0.11  -0.26   0.04
    12   1     0.07   0.11   0.01     0.31   0.09   0.02     0.06  -0.01  -0.00
    13   1    -0.05   0.07   0.08    -0.18  -0.05   0.17    -0.01  -0.00   0.02
    14   1    -0.39  -0.06   0.13    -0.10  -0.05   0.16     0.04   0.01  -0.01
    15   1    -0.09   0.21   0.15     0.11   0.05  -0.12    -0.29   0.16   0.38
    16   1    -0.01   0.01   0.06    -0.26   0.04   0.02     0.27  -0.32   0.00
    17   1     0.39   0.02  -0.09     0.11   0.00  -0.06    -0.02   0.07  -0.12
    18   1    -0.02  -0.09  -0.00    -0.18  -0.06  -0.00     0.22  -0.12   0.02
    19   1    -0.06  -0.25  -0.10     0.19   0.17   0.35    -0.01  -0.03  -0.09
    20   1     0.03  -0.09  -0.03    -0.35  -0.23  -0.07     0.26  -0.22   0.09
                     16                     17                     18
                      A                      A                      A
 Frequencies --    895.5527               962.7040               978.2696
 Red. masses --      2.3901                 2.0346                 1.6346
 Frc consts  --      1.1294                 1.1110                 0.9217
 IR Inten    --      1.6583                 0.5940                 3.7922
  Atom  AN      X      Y      Z        X      Y      Z        X      Y      Z
     1   8     0.00   0.03  -0.00     0.04  -0.02  -0.02    -0.00   0.01  -0.00
     2   6    -0.02  -0.03   0.04     0.03  -0.03   0.03    -0.01  -0.01   0.04
     3   6    -0.06   0.06  -0.08    -0.08   0.17  -0.00     0.07   0.03   0.02
     4   6     0.01  -0.07   0.05     0.08  -0.07   0.00     0.01   0.07  -0.02
     5   6     0.07  -0.02   0.01    -0.02  -0.09   0.04    -0.06   0.08   0.02
     6   6    -0.17  -0.03   0.06     0.08  -0.01   0.01     0.03  -0.11  -0.01
     7   6     0.03   0.12  -0.11     0.02   0.07   0.07    -0.03   0.12   0.02
     8   6     0.17  -0.09   0.02    -0.11  -0.01  -0.04     0.01  -0.07  -0.02
     9   1    -0.14   0.02   0.04    -0.17   0.28  -0.30     0.16   0.04  -0.05
    10   1    -0.08   0.18  -0.08    -0.28  -0.14  -0.04     0.02  -0.04   0.01
    11   1    -0.08   0.03   0.03     0.07  -0.20   0.01    -0.07  -0.01  -0.03
    12   1    -0.09   0.09  -0.02    -0.17   0.06   0.00    -0.12  -0.21   0.03
    13   1     0.33   0.19  -0.12     0.26   0.18  -0.08    -0.31  -0.24   0.01
    14   1    -0.18   0.03  -0.03    -0.36  -0.03   0.01     0.43   0.04  -0.11
    15   1    -0.32  -0.24   0.01     0.10  -0.05  -0.07    -0.01  -0.24  -0.12
    16   1    -0.18   0.02   0.05    -0.08  -0.09  -0.01    -0.22  -0.21  -0.04
    17   1     0.07   0.10  -0.04     0.18   0.15  -0.26    -0.04   0.21  -0.29
    18   1    -0.08   0.18  -0.12    -0.05  -0.28   0.06    -0.19  -0.20  -0.00
    19   1     0.33  -0.37   0.28    -0.15   0.07  -0.11     0.09  -0.26   0.07
    20   1    -0.10  -0.02   0.01     0.02  -0.13  -0.02    -0.01  -0.21   0.00
                     19                     20                     21
                      A                      A                      A
 Frequencies --    986.7752              1059.1666              1076.3268
 Red. masses --      1.4269                 1.8609                 1.1487
 Frc consts  --      0.8186                 1.2300                 0.7840
 IR Inten    --      0.4957                 1.4076                 8.7556
  Atom  AN      X      Y      Z        X      Y      Z        X      Y      Z
     1   8     0.01  -0.00   0.00     0.01  -0.02  -0.01     0.00   0.01   0.00
     2   6    -0.02  -0.02  -0.02     0.01  -0.00  -0.00    -0.06  -0.06  -0.00
     3   6     0.01   0.07  -0.01    -0.01   0.02  -0.01     0.03   0.02  -0.01
     4   6     0.06   0.04   0.03    -0.03  -0.01   0.03     0.01   0.01  -0.02
     5   6    -0.09  -0.04  -0.06     0.00   0.05  -0.03    -0.00  -0.01   0.01
     6   6     0.03  -0.06   0.02    -0.12  -0.08   0.04     0.01   0.02  -0.01
     7   6    -0.03   0.01  -0.06     0.19  -0.01  -0.00    -0.00  -0.02   0.02
     8   6    -0.00  -0.02   0.07    -0.10   0.06  -0.02     0.03   0.03   0.00
     9   1    -0.12   0.11  -0.11    -0.08   0.04  -0.03    -0.23   0.06  -0.09
    10   1     0.20  -0.05   0.03     0.17  -0.03   0.02     0.42  -0.08   0.06
    11   1     0.42   0.22   0.06     0.04  -0.04   0.04     0.10  -0.31   0.01
    12   1     0.36   0.13   0.01     0.14  -0.04   0.00    -0.04  -0.01   0.00
    13   1    -0.28  -0.04   0.23    -0.16  -0.09   0.06     0.04   0.02  -0.01
    14   1    -0.24  -0.10   0.24     0.19   0.01   0.01    -0.04   0.00  -0.01
    15   1    -0.02  -0.21  -0.11    -0.21  -0.23   0.00     0.23   0.30   0.03
    16   1     0.05   0.19   0.00    -0.25  -0.20   0.03    -0.18  -0.27  -0.01
    17   1    -0.20  -0.00   0.07     0.57  -0.08   0.07    -0.04  -0.01   0.01
    18   1     0.06   0.13  -0.05     0.26   0.00   0.01    -0.35   0.04  -0.02
    19   1    -0.01  -0.18  -0.09    -0.14   0.10  -0.13     0.12  -0.18   0.11
    20   1     0.15   0.11   0.05    -0.06   0.36  -0.06    -0.18   0.40  -0.05
                     22                     23                     24
                      A                      A                      A
 Frequencies --   1100.0673              1138.2294              1156.1314
 Red. masses --      2.4907                 2.0849                 2.0681
 Frc consts  --      1.7759                 1.5915                 1.6286
 IR Inten    --      1.9019                10.8623                 0.9304
  Atom  AN      X      Y      Z        X      Y      Z        X      Y      Z
     1   8    -0.03   0.03   0.02     0.00   0.01   0.00    -0.04   0.03  -0.01
     2   6    -0.01   0.01  -0.00    -0.06  -0.07  -0.00     0.02  -0.04   0.14
     3   6    -0.01  -0.06  -0.05     0.10  -0.03   0.07     0.01  -0.01  -0.11
     4   6     0.27   0.08  -0.02    -0.04   0.17  -0.03    -0.05  -0.01   0.13
     5   6    -0.14  -0.03   0.09     0.02  -0.09   0.03     0.01   0.00  -0.08
     6   6    -0.05   0.03  -0.06    -0.06  -0.10  -0.02    -0.00  -0.01  -0.09
     7   6    -0.01  -0.07   0.02     0.10  -0.01   0.02     0.00   0.02   0.10
     8   6     0.07   0.03  -0.03    -0.02   0.08  -0.05     0.02   0.01  -0.12
     9   1    -0.34  -0.08   0.07    -0.01   0.02  -0.04    -0.24  -0.07   0.14
    10   1    -0.14   0.18  -0.07    -0.03  -0.08   0.04     0.33   0.18  -0.05
    11   1     0.32   0.09  -0.01    -0.14   0.50  -0.07     0.09  -0.06   0.14
    12   1    -0.41  -0.17   0.06    -0.15   0.16  -0.01     0.35   0.11  -0.03
    13   1    -0.12  -0.10  -0.04     0.30   0.20  -0.06    -0.12   0.02   0.14
    14   1    -0.05   0.00  -0.05    -0.35  -0.02  -0.01    -0.04  -0.05   0.14
    15   1    -0.31  -0.14   0.12     0.06   0.06  -0.00    -0.09   0.06   0.14
    16   1     0.05  -0.23  -0.02    -0.07  -0.12  -0.02     0.22  -0.06  -0.04
    17   1     0.19  -0.12   0.08    -0.37   0.09  -0.10    -0.09   0.12  -0.19
    18   1     0.05  -0.01   0.03     0.32  -0.10   0.04     0.12  -0.26   0.12
    19   1     0.04   0.28   0.09     0.06  -0.08   0.06     0.07   0.21   0.17
    20   1    -0.10  -0.04  -0.03    -0.06  -0.11  -0.03    -0.16  -0.32  -0.08
                     25                     26                     27
                      A                      A                      A
 Frequencies --   1238.2126              1249.7643              1263.6385
 Red. masses --      1.6968                 1.7426                 1.3482
 Frc consts  --      1.5327                 1.6036                 1.2684
 IR Inten    --     12.2986                33.9380                 0.2523
  Atom  AN      X      Y      Z        X      Y      Z        X      Y      Z
     1   8    -0.02   0.00   0.01    -0.03  -0.03  -0.00    -0.03   0.03   0.01
     2   6     0.05   0.08  -0.02     0.14   0.16   0.01     0.01  -0.02   0.06
     3   6    -0.02  -0.06   0.02     0.01  -0.07  -0.02     0.00  -0.00   0.00
     4   6    -0.06   0.11   0.03     0.02   0.01   0.03    -0.02   0.00  -0.09
     5   6     0.03  -0.07  -0.02    -0.00  -0.00  -0.01     0.01   0.00   0.03
     6   6     0.08  -0.04  -0.07    -0.04  -0.03   0.01     0.01  -0.01   0.08
     7   6    -0.06   0.04  -0.00     0.02   0.01  -0.04    -0.01   0.02  -0.08
     8   6     0.02  -0.08   0.05    -0.08   0.00   0.01     0.01  -0.01   0.01
     9   1    -0.12  -0.06   0.06    -0.51  -0.05   0.05    -0.33   0.03  -0.04
    10   1     0.16  -0.03   0.06    -0.15   0.09  -0.04     0.49  -0.11   0.08
    11   1    -0.19   0.23   0.00     0.07  -0.05   0.04     0.02  -0.15  -0.08
    12   1     0.07   0.17  -0.03     0.01  -0.00  -0.00    -0.10  -0.03   0.01
    13   1     0.14   0.14   0.04    -0.02   0.00   0.02     0.06  -0.01  -0.07
    14   1    -0.24  -0.04   0.05    -0.02  -0.01   0.03     0.01   0.03  -0.08
    15   1    -0.10  -0.21  -0.03     0.29   0.35   0.01     0.11  -0.04  -0.11
    16   1    -0.07  -0.28  -0.07    -0.17  -0.17   0.00    -0.16   0.09   0.04
    17   1     0.53  -0.05   0.02    -0.12   0.01   0.01     0.01  -0.03   0.05
    18   1    -0.40   0.02  -0.04     0.04   0.04  -0.04     0.16   0.12  -0.07
    19   1    -0.10   0.21  -0.07     0.04  -0.53  -0.05    -0.12   0.42  -0.04
    20   1     0.03   0.12   0.02     0.12  -0.20   0.03     0.20  -0.45   0.07
                     28                     29                     30
                      A                      A                      A
 Frequencies --   1304.3568              1312.4738              1349.8794
 Red. masses --      1.2808                 1.4501                 1.4149
 Frc consts  --      1.2839                 1.4718                 1.5190
 IR Inten    --      0.7278                 9.7814                 0.9892
  Atom  AN      X      Y      Z        X      Y      Z        X      Y      Z
     1   8    -0.01  -0.01   0.00    -0.01   0.02   0.01    -0.01   0.01   0.01
     2   6     0.04   0.05   0.00    -0.05  -0.05  -0.03    -0.01  -0.00  -0.02
     3   6     0.00  -0.01   0.04     0.16   0.01   0.03     0.05  -0.00   0.00
     4   6    -0.01  -0.03  -0.09     0.01  -0.03   0.02    -0.03  -0.06   0.00
     5   6     0.01   0.01   0.03    -0.01   0.02  -0.06    -0.01   0.03   0.03
     6   6     0.01  -0.00   0.00     0.01   0.01   0.01    -0.05  -0.09  -0.02
     7   6    -0.04  -0.00   0.07    -0.00  -0.01  -0.01    -0.02   0.07   0.01
     8   6    -0.00   0.00  -0.04     0.02   0.02   0.02     0.03  -0.10   0.01
     9   1    -0.37   0.06  -0.08    -0.54   0.13  -0.16    -0.18   0.04  -0.05
    10   1     0.29  -0.13   0.08    -0.45   0.04  -0.07    -0.15   0.04  -0.03
    11   1    -0.13   0.14  -0.12    -0.49  -0.18  -0.03     0.33   0.36   0.02
    12   1    -0.06  -0.03   0.01     0.15   0.01  -0.03    -0.03  -0.06   0.03
    13   1     0.03  -0.04  -0.07    -0.14  -0.03   0.08     0.03  -0.02  -0.07
    14   1     0.02   0.03  -0.08    -0.01  -0.03   0.09     0.13   0.03  -0.05
    15   1    -0.19  -0.24  -0.02    -0.04  -0.07  -0.01     0.34   0.43   0.04
    16   1     0.34   0.41   0.01     0.04   0.09   0.01     0.14   0.16  -0.01
    17   1     0.09   0.00  -0.02     0.10  -0.04   0.04     0.13   0.08  -0.10
    18   1     0.13  -0.16   0.10    -0.12   0.05  -0.02     0.08  -0.05   0.01
    19   1     0.13  -0.33   0.07    -0.01   0.13   0.00    -0.11   0.36  -0.06
    20   1    -0.16   0.24  -0.07     0.04  -0.07   0.03    -0.08   0.29  -0.04
                     31                     32                     33
                      A                      A                      A
 Frequencies --   1361.8869              1383.5954              1393.3343
 Red. masses --      1.3236                 1.3599                 1.4715
 Frc consts  --      1.4464                 1.5339                 1.6832
 IR Inten    --      9.2712                 7.8229                 9.9763
  Atom  AN      X      Y      Z        X      Y      Z        X      Y      Z
     1   8    -0.01   0.00   0.01     0.00   0.00  -0.00     0.01  -0.00  -0.00
     2   6     0.03   0.05  -0.02     0.00  -0.01   0.01    -0.04  -0.03  -0.00
     3   6    -0.01  -0.02   0.00    -0.06   0.03   0.02     0.01   0.00  -0.01
     4   6     0.03   0.03   0.00     0.11  -0.10   0.03    -0.00   0.03   0.02
     5   6     0.00  -0.01  -0.02    -0.02   0.03  -0.03    -0.00  -0.01  -0.01
     6   6     0.03   0.04   0.05    -0.01   0.03  -0.02     0.04  -0.02   0.02
     7   6    -0.01   0.02  -0.00    -0.01  -0.01  -0.01    -0.17   0.01  -0.03
     8   6     0.02  -0.13  -0.01    -0.00   0.01   0.00     0.04   0.06  -0.01
     9   1    -0.04  -0.02   0.00     0.04   0.03   0.00     0.10  -0.00   0.00
    10   1    -0.01   0.02   0.00     0.28  -0.14   0.08    -0.07   0.03  -0.02
    11   1    -0.24  -0.25  -0.01    -0.58   0.58  -0.10     0.01  -0.10   0.03
    12   1     0.01   0.02  -0.02     0.07  -0.11  -0.00     0.02   0.03  -0.01
    13   1    -0.05  -0.00   0.06    -0.10  -0.05   0.01     0.02   0.04   0.03
    14   1    -0.08  -0.02   0.06     0.03  -0.03   0.11    -0.00  -0.02   0.02
    15   1    -0.05  -0.08  -0.00     0.13   0.20   0.00     0.19   0.11  -0.04
    16   1    -0.26  -0.13   0.02    -0.09  -0.25  -0.01    -0.16  -0.11  -0.00
    17   1    -0.43   0.09  -0.05    -0.01  -0.00  -0.01     0.54  -0.11   0.08
    18   1     0.47  -0.12   0.06     0.05   0.04  -0.01     0.66  -0.08   0.07
    19   1    -0.10   0.22  -0.09     0.00  -0.00   0.00     0.15  -0.23   0.08
    20   1    -0.22   0.43  -0.10     0.02  -0.05   0.01    -0.05  -0.04  -0.00
                     34                     35                     36
                      A                      A                      A
 Frequencies --   1411.2445              1439.3975              1490.4947
 Red. masses --      1.5971                 1.2354                 1.0970
 Frc consts  --      1.8740                 1.5081                 1.4359
 IR Inten    --      2.8625                 2.2255                 4.9615
  Atom  AN      X      Y      Z        X      Y      Z        X      Y      Z
     1   8    -0.00   0.00   0.00    -0.00   0.00   0.00    -0.00   0.00   0.00
     2   6    -0.01  -0.01  -0.00     0.00   0.00  -0.00    -0.00  -0.00  -0.00
     3   6     0.07   0.02   0.00     0.00  -0.00   0.00     0.02   0.05  -0.04
     4   6    -0.11  -0.10   0.00     0.02   0.00  -0.00     0.01   0.01  -0.00
     5   6     0.03   0.03   0.03    -0.13  -0.04   0.03     0.00  -0.01   0.00
     6   6     0.10   0.11  -0.01     0.01   0.01   0.00    -0.01  -0.01   0.00
     7   6    -0.01  -0.03  -0.00     0.00  -0.01  -0.00     0.00   0.00   0.01
     8   6     0.01   0.01  -0.00     0.00  -0.00   0.00     0.04   0.02   0.03
     9   1    -0.26   0.04   0.01    -0.04  -0.01   0.02    -0.08  -0.15   0.53
    10   1    -0.14  -0.07  -0.03    -0.01  -0.03   0.00    -0.08  -0.53  -0.04
    11   1     0.42   0.44   0.03    -0.04  -0.00  -0.01    -0.01  -0.05  -0.00
    12   1    -0.05  -0.09   0.02     0.52   0.20   0.11    -0.03   0.06  -0.01
    13   1     0.02  -0.07  -0.08     0.38   0.33  -0.25    -0.04  -0.02   0.04
    14   1     0.02   0.04  -0.03     0.53  -0.06  -0.20    -0.01   0.01  -0.05
    15   1    -0.25  -0.26   0.02    -0.04  -0.03   0.02     0.04   0.01  -0.04
    16   1    -0.34  -0.41  -0.02    -0.06  -0.03   0.00     0.07   0.02   0.01
    17   1    -0.13  -0.01  -0.01    -0.05  -0.00   0.01     0.03   0.02  -0.04
    18   1     0.11   0.05   0.01     0.01  -0.00  -0.00    -0.02   0.04   0.00
    19   1     0.01  -0.06  -0.04    -0.00  -0.00  -0.01    -0.10  -0.07  -0.42
    20   1    -0.06  -0.03  -0.00    -0.02   0.01  -0.00    -0.40  -0.12   0.02
                     37                     38                     39
                      A                      A                      A
 Frequencies --   1497.7153              1517.8017              1527.6541
 Red. masses --      1.0884                 1.0839                 1.0460
 Frc consts  --      1.4384                 1.4712                 1.4382
 IR Inten    --      5.2316                 5.7397                 8.7220
  Atom  AN      X      Y      Z        X      Y      Z        X      Y      Z
     1   8    -0.00   0.00   0.00     0.00   0.00  -0.00    -0.00   0.00   0.00
     2   6    -0.00   0.00  -0.01    -0.00  -0.00  -0.00     0.00  -0.00   0.00
     3   6     0.02   0.04  -0.02     0.00   0.02  -0.01     0.00   0.00   0.00
     4   6    -0.00   0.00   0.00     0.01   0.01   0.00    -0.01  -0.02  -0.02
     5   6     0.00  -0.01   0.00    -0.00   0.01   0.01    -0.00  -0.02  -0.04
     6   6    -0.02   0.02   0.01     0.05  -0.04  -0.03     0.01   0.00  -0.00
     7   6    -0.01   0.00  -0.00     0.01   0.02  -0.02     0.01   0.01  -0.01
     8   6    -0.04  -0.03  -0.04    -0.01   0.00  -0.01     0.00   0.00  -0.00
     9   1    -0.07  -0.10   0.37    -0.01  -0.05   0.17    -0.03   0.00   0.01
    10   1    -0.10  -0.37  -0.03    -0.02  -0.17  -0.01     0.02  -0.03   0.00
    11   1     0.01  -0.02   0.00    -0.02   0.00  -0.00     0.05   0.05  -0.02
    12   1    -0.02   0.07  -0.01     0.10  -0.14   0.03    -0.41   0.04  -0.10
    13   1    -0.03  -0.00   0.04     0.02  -0.09  -0.15     0.05   0.46   0.48
    14   1     0.01   0.01  -0.05    -0.12   0.02   0.03     0.41  -0.17   0.32
    15   1     0.08  -0.06  -0.21    -0.17   0.15   0.51    -0.05   0.01   0.08
    16   1     0.17  -0.16   0.05    -0.42   0.35  -0.13    -0.06   0.07  -0.02
    17   1    -0.02  -0.01   0.04    -0.02  -0.08   0.30    -0.03  -0.03   0.14
    18   1     0.03  -0.05   0.00    -0.06  -0.31  -0.02    -0.03  -0.15  -0.01
    19   1     0.12   0.10   0.51     0.03   0.02   0.11     0.00   0.00   0.00
    20   1     0.49   0.21  -0.03     0.12   0.02  -0.01     0.00  -0.01  -0.00
                     40                     41                     42
                      A                      A                      A
 Frequencies --   1528.3090              1529.2808              1817.5174
 Red. masses --      1.0647                 1.0829                10.9836
 Frc consts  --      1.4652                 1.4921                21.3772
 IR Inten    --      2.8461                 1.2471               191.6201
  Atom  AN      X      Y      Z        X      Y      Z        X      Y      Z
     1   8    -0.00   0.00   0.00    -0.00   0.00   0.00    -0.36   0.30   0.17
     2   6     0.00  -0.00  -0.00     0.01   0.00  -0.00     0.54  -0.45  -0.26
     3   6    -0.00   0.01   0.00     0.00   0.00  -0.01    -0.04   0.02   0.02
     4   6     0.02  -0.02   0.01    -0.00   0.02  -0.01    -0.02   0.01   0.00
     5   6     0.02  -0.04   0.01    -0.01   0.02  -0.02     0.00  -0.00   0.00
     6   6     0.02  -0.01  -0.01     0.02  -0.02  -0.01     0.00  -0.00   0.00
     7   6    -0.01  -0.03   0.02    -0.01  -0.05   0.04    -0.01   0.01   0.00
     8   6    -0.01  -0.00  -0.00    -0.01  -0.01  -0.00    -0.03   0.04   0.02
     9   1    -0.01   0.01  -0.01    -0.01  -0.03   0.10     0.26  -0.00  -0.06
    10   1     0.01  -0.00   0.00    -0.02  -0.09  -0.01    -0.12   0.01  -0.01
    11   1    -0.05   0.04  -0.00     0.01  -0.06  -0.00     0.04  -0.03   0.01
    12   1    -0.12   0.54  -0.05     0.02  -0.38   0.01     0.00  -0.00   0.00
    13   1    -0.21  -0.08   0.27     0.15   0.13  -0.10     0.01  -0.00  -0.01
    14   1     0.08   0.10  -0.43    -0.00  -0.10   0.37    -0.01   0.00  -0.00
    15   1    -0.08   0.08   0.26    -0.07   0.01   0.16     0.00  -0.00  -0.01
    16   1    -0.22   0.16  -0.06    -0.11   0.15  -0.04     0.00  -0.00   0.00
    17   1     0.04   0.06  -0.29     0.08   0.11  -0.50     0.02   0.01   0.03
    18   1     0.05   0.30   0.01     0.08   0.52   0.02     0.03  -0.04   0.00
    19   1     0.01   0.01   0.07     0.02   0.00   0.09     0.05  -0.25  -0.06
    20   1     0.07   0.02  -0.00     0.09   0.05  -0.01    -0.03   0.12  -0.01
                     43                     44                     45
                      A                      A                      A
 Frequencies --   3002.7337              3011.7660              3020.0132
 Red. masses --      1.0773                 1.0694                 1.0695
 Frc consts  --      5.7230                 5.7150                 5.7473
 IR Inten    --      0.9842                 6.7655                14.0624
  Atom  AN      X      Y      Z        X      Y      Z        X      Y      Z
     1   8    -0.00  -0.00   0.00    -0.00   0.00   0.00    -0.00  -0.00  -0.00
     2   6     0.00   0.00   0.00    -0.00  -0.00  -0.00     0.00   0.00  -0.00
     3   6    -0.01  -0.01   0.04     0.01   0.01  -0.05    -0.00  -0.01   0.01
     4   6     0.01  -0.00  -0.06     0.00  -0.00  -0.02    -0.00   0.00   0.03
     5   6     0.00   0.00   0.01     0.00   0.00   0.00     0.00   0.00  -0.01
     6   6    -0.00   0.00   0.02    -0.02   0.01   0.04    -0.02   0.02   0.03
     7   6    -0.00  -0.00   0.00     0.00  -0.00  -0.01     0.00  -0.00  -0.00
     8   6    -0.00  -0.00  -0.01     0.00   0.00   0.01    -0.01  -0.01  -0.05
     9   1     0.00   0.09   0.04    -0.01  -0.17  -0.07     0.01   0.07   0.03
    10   1     0.09  -0.00  -0.54    -0.10   0.01   0.64     0.03   0.00  -0.18
    11   1    -0.09   0.05   0.77    -0.03   0.02   0.29     0.05  -0.03  -0.40
    12   1     0.01  -0.00  -0.04     0.00  -0.00  -0.02    -0.02   0.01   0.12
    13   1    -0.03   0.03  -0.02    -0.01   0.01  -0.01    -0.02   0.02  -0.02
    14   1    -0.00  -0.04  -0.01    -0.00  -0.01  -0.00    -0.00  -0.03  -0.01
    15   1     0.01  -0.01   0.01     0.13  -0.11   0.10     0.18  -0.15   0.13
    16   1     0.04  -0.02  -0.25     0.09  -0.05  -0.61     0.07  -0.05  -0.52
    17   1     0.00   0.02   0.01     0.00   0.04   0.01    -0.00   0.00  -0.00
    18   1     0.00  -0.00  -0.03    -0.01  -0.00   0.09     0.00   0.00   0.00
    19   1     0.02   0.01  -0.01    -0.04  -0.01   0.02     0.15   0.04  -0.06
    20   1    -0.01   0.01   0.11     0.01  -0.02  -0.18    -0.03   0.08   0.63
                     46                     47                     48
                      A                      A                      A
 Frequencies --   3023.4819              3038.6808              3039.7672
 Red. masses --      1.0706                 1.0588                 1.0410
 Frc consts  --      5.7660                 5.7599                 5.6673
 IR Inten    --     29.2820                15.5557                54.9579
  Atom  AN      X      Y      Z        X      Y      Z        X      Y      Z
     1   8    -0.00   0.00  -0.00    -0.00   0.00   0.00    -0.00   0.00  -0.00
     2   6     0.00   0.00  -0.00    -0.00  -0.00  -0.00    -0.00  -0.00  -0.00
     3   6     0.01   0.01  -0.03     0.00   0.00  -0.00     0.00   0.00  -0.01
     4   6     0.00  -0.00  -0.03     0.00  -0.00  -0.00     0.00  -0.00  -0.01
     5   6    -0.01  -0.00   0.01    -0.02  -0.00   0.01     0.04   0.01  -0.02
     6   6     0.01  -0.01  -0.02     0.01  -0.01   0.01     0.01  -0.01  -0.00
     7   6    -0.00   0.00   0.02     0.01   0.03  -0.05     0.00   0.02  -0.02
     8   6    -0.01  -0.01  -0.05    -0.01  -0.00  -0.01    -0.00  -0.00  -0.01
     9   1    -0.01  -0.12  -0.05    -0.00  -0.01  -0.01    -0.00  -0.02  -0.01
    10   1    -0.07   0.00   0.42    -0.00   0.00   0.01    -0.01  -0.00   0.10
    11   1    -0.04   0.02   0.30    -0.00   0.00   0.02    -0.01   0.01   0.10
    12   1     0.02  -0.01  -0.13     0.04  -0.02  -0.27    -0.09   0.03   0.57
    13   1     0.03  -0.03   0.03     0.15  -0.13   0.11    -0.33   0.28  -0.23
    14   1     0.01   0.05   0.02     0.02   0.20   0.06    -0.05  -0.45  -0.14
    15   1    -0.10   0.08  -0.07    -0.15   0.13  -0.11    -0.10   0.08  -0.07
    16   1    -0.05   0.03   0.33     0.00  -0.01  -0.01    -0.02   0.01   0.12
    17   1    -0.00  -0.00   0.00    -0.05  -0.40  -0.14    -0.03  -0.20  -0.07
    18   1     0.03  -0.01  -0.29    -0.08   0.02   0.74    -0.03   0.01   0.29
    19   1     0.14   0.04  -0.06     0.09   0.03  -0.04     0.04   0.01  -0.02
    20   1    -0.03   0.08   0.66    -0.01   0.02   0.15    -0.00   0.01   0.09
                     49                     50                     51
                      A                      A                      A
 Frequencies --   3071.2812              3083.7081              3103.5159
 Red. masses --      1.0953                 1.1018                 1.1007
 Frc consts  --      6.0875                 6.1732                 6.2462
 IR Inten    --     45.1880                41.3097                34.0884
  Atom  AN      X      Y      Z        X      Y      Z        X      Y      Z
     1   8    -0.00   0.00   0.00    -0.00   0.00   0.00     0.00  -0.00  -0.00
     2   6     0.00  -0.00  -0.00    -0.00   0.00  -0.00    -0.00   0.00   0.00
     3   6     0.00   0.00   0.00     0.00   0.00  -0.00     0.00   0.02   0.01
     4   6     0.00  -0.00  -0.01     0.00   0.00  -0.00     0.00  -0.00  -0.01
     5   6     0.00  -0.00   0.01     0.00   0.00   0.00    -0.02  -0.01  -0.08
     6   6    -0.05   0.04  -0.06    -0.00   0.00  -0.02    -0.00   0.00  -0.01
     7   6     0.00   0.02  -0.01    -0.00  -0.07  -0.06     0.00  -0.00  -0.00
     8   6    -0.00  -0.00   0.00    -0.01  -0.00  -0.01    -0.00  -0.00   0.00
     9   1    -0.00  -0.03  -0.01    -0.00  -0.01  -0.00    -0.02  -0.27  -0.09
    10   1    -0.00  -0.00   0.01    -0.00  -0.00   0.02     0.01   0.00  -0.05
    11   1    -0.01   0.01   0.10    -0.00   0.00   0.04    -0.01   0.01   0.10
    12   1     0.01  -0.01  -0.08     0.00  -0.00  -0.02    -0.12   0.04   0.69
    13   1    -0.04   0.04  -0.03    -0.02   0.02  -0.01     0.33  -0.28   0.21
    14   1     0.00  -0.01   0.00    -0.00  -0.02  -0.01     0.05   0.39   0.10
    15   1     0.60  -0.51   0.40     0.05  -0.05   0.04     0.04  -0.04   0.03
    16   1    -0.06   0.04   0.33    -0.03   0.01   0.16    -0.01   0.01   0.05
    17   1    -0.03  -0.22  -0.07     0.11   0.80   0.24     0.00   0.01   0.00
    18   1    -0.02   0.01   0.13    -0.06  -0.00   0.48    -0.00  -0.00   0.02
    19   1     0.03   0.01  -0.01     0.07   0.02  -0.02     0.01   0.00  -0.00
    20   1     0.00  -0.00  -0.00    -0.00   0.01   0.11     0.00  -0.00   0.00
                     52                     53                     54
                      A                      A                      A
 Frequencies --   3110.0564              3112.8504              3118.9758
 Red. masses --      1.0969                 1.1002                 1.0945
 Frc consts  --      6.2508                 6.2811                 6.2732
 IR Inten    --     15.4617                45.0198                20.5210
  Atom  AN      X      Y      Z        X      Y      Z        X      Y      Z
     1   8    -0.00   0.00   0.00    -0.00   0.00   0.00     0.00  -0.00  -0.00
     2   6     0.00  -0.00  -0.00     0.00  -0.00  -0.00    -0.00   0.00   0.00
     3   6    -0.00  -0.06  -0.04    -0.00  -0.04  -0.02     0.00   0.01   0.00
     4   6    -0.00   0.00  -0.01     0.00  -0.00  -0.00    -0.00   0.00   0.00
     5   6    -0.02   0.04  -0.02     0.02  -0.08  -0.01     0.00   0.00   0.00
     6   6    -0.00   0.00  -0.00     0.00   0.00   0.00     0.00  -0.00   0.00
     7   6     0.00   0.00  -0.00     0.00  -0.00  -0.00    -0.00  -0.00   0.01
     8   6    -0.01  -0.00   0.00    -0.00  -0.00   0.00    -0.07  -0.02   0.04
     9   1     0.06   0.75   0.26     0.03   0.44   0.15    -0.01  -0.08  -0.03
    10   1    -0.03  -0.01   0.19    -0.02  -0.01   0.11     0.00   0.00  -0.03
    11   1    -0.01   0.00   0.08    -0.01   0.00   0.05     0.00  -0.00  -0.02
    12   1    -0.03   0.02   0.15    -0.02  -0.01   0.13     0.00  -0.00  -0.02
    13   1     0.32  -0.26   0.21    -0.34   0.27  -0.24    -0.01   0.01  -0.01
    14   1    -0.04  -0.25  -0.08     0.10   0.66   0.20    -0.00  -0.02  -0.01
    15   1     0.03  -0.03   0.02    -0.01   0.01  -0.00    -0.01   0.01  -0.01
    16   1    -0.00   0.00   0.03     0.00   0.00   0.00     0.00  -0.00  -0.02
    17   1    -0.00  -0.00  -0.00    -0.00   0.00   0.00    -0.00   0.01   0.00
    18   1    -0.00  -0.00   0.01    -0.00  -0.00   0.00     0.01   0.00  -0.08
    19   1     0.07   0.02  -0.02     0.05   0.01  -0.02     0.88   0.24  -0.30
    20   1     0.00  -0.00  -0.01     0.00  -0.00  -0.01    -0.00  -0.03  -0.24

 -------------------
 - Thermochemistry -
 -------------------
 Temperature   298.150 Kelvin.  Pressure   1.00000 Atm.
 Atom     1 has atomic number  8 and mass  15.99491
 Atom     2 has atomic number  6 and mass  12.00000
 Atom     3 has atomic number  6 and mass  12.00000
 Atom     4 has atomic number  6 and mass  12.00000
 Atom     5 has atomic number  6 and mass  12.00000
 Atom     6 has atomic number  6 and mass  12.00000
 Atom     7 has atomic number  6 and mass  12.00000
 Atom     8 has atomic number  6 and mass  12.00000
 Atom     9 has atomic number  1 and mass   1.00783
 Atom    10 has atomic number  1 and mass   1.00783
 Atom    11 has atomic number  1 and mass   1.00783
 Atom    12 has atomic number  1 and mass   1.00783
 Atom    13 has atomic number  1 and mass   1.00783
 Atom    14 has atomic number  1 and mass   1.00783
 Atom    15 has atomic number  1 and mass   1.00783
 Atom    16 has atomic number  1 and mass   1.00783
 Atom    17 has atomic number  1 and mass   1.00783
 Atom    18 has atomic number  1 and mass   1.00783
 Atom    19 has atomic number  1 and mass   1.00783
 Atom    20 has atomic number  1 and mass   1.00783
 Molecular mass:   112.08882 amu.
 Principal axes and moments of inertia in atomic units:
                           1         2         3
     Eigenvalues --   588.103071059.844701517.16223
           X            0.99726   0.07382   0.00476
           Y           -0.07377   0.99723  -0.00906
           Z           -0.00542   0.00868   0.99995
 This molecule is an asymmetric top.
 Rotational symmetry number  1.
 Warning -- assumption of classical behavior for rotation
           may cause significant error
 Rotational temperatures (Kelvin)      0.14728     0.08172     0.05709
 Rotational constants (GHZ):           3.06875     1.70284     1.18955
 Zero-point vibrational energy     471845.8 (Joules/Mol)
                                  112.77386 (Kcal/Mol)
 Warning -- explicit consideration of  10 degrees of freedom as
           vibrations may cause significant error
 Vibrational temperatures:    135.06   186.16   341.00   362.98   423.56
          (Kelvin)            554.38   572.03   625.80   704.45   738.21
                              924.77  1094.45  1182.90  1211.59  1272.84
                             1288.50  1385.12  1407.51  1419.75  1523.90
                             1548.59  1582.75  1637.66  1663.42  1781.51
                             1798.13  1818.09  1876.68  1888.36  1942.18
                             1959.45  1990.69  2004.70  2030.47  2070.97
                             2144.49  2154.88  2183.78  2197.95  2198.90
                             2200.29  2615.00  4320.26  4333.26  4345.13
                             4350.12  4371.98  4373.55  4418.89  4436.77
                             4465.27  4474.68  4478.70  4487.51
 
 Zero-point correction=                           0.179717 (Hartree/Particle)
 Thermal correction to Energy=                    0.187613
 Thermal correction to Enthalpy=                  0.188557
 Thermal correction to Gibbs Free Energy=         0.147556
 Sum of electronic and zero-point Energies=           -349.026831
 Sum of electronic and thermal Energies=              -349.018935
 Sum of electronic and thermal Enthalpies=            -349.017991
 Sum of electronic and thermal Free Energies=         -349.058992
 
                     E (Thermal)             CV                S
                      KCal/Mol        Cal/Mol-Kelvin    Cal/Mol-Kelvin
 Total                  117.729             30.336             86.294
 Electronic               0.000              0.000              0.000
 Translational            0.889              2.981             40.058
 Rotational               0.889              2.981             28.338
 Vibrational            115.951             24.375             17.897
 Vibration     1          0.603              1.954              3.578
 Vibration     2          0.612              1.924              2.955
 Vibration     3          0.656              1.784              1.825
 Vibration     4          0.664              1.759              1.715
 Vibration     5          0.689              1.684              1.449
 Vibration     6          0.754              1.502              1.018
 Vibration     7          0.764              1.475              0.972
 Vibration     8          0.796              1.394              0.843
 Vibration     9          0.845              1.273              0.685
 Vibration    10          0.868              1.221              0.626
                       Q            Log10(Q)             Ln(Q)
 Total Bot       0.134570D-67        -67.871051       -156.278870
 Total V=0       0.620535D+15         14.792766         34.061604
 Vib (Bot)       0.828786D-81        -81.081557       -186.697185
 Vib (Bot)    1  0.218875D+01          0.340196          0.783331
 Vib (Bot)    2  0.157583D+01          0.197509          0.454781
 Vib (Bot)    3  0.828432D+00         -0.081743         -0.188221
 Vib (Bot)    4  0.772773D+00         -0.111948         -0.257770
 Vib (Bot)    5  0.648037D+00         -0.188400         -0.433807
 Vib (Bot)    6  0.467490D+00         -0.330228         -0.760378
 Vib (Bot)    7  0.449096D+00         -0.347661         -0.800520
 Vib (Bot)    8  0.399042D+00         -0.398981         -0.918687
 Vib (Bot)    9  0.338754D+00         -0.470116         -1.082481
 Vib (Bot)   10  0.316588D+00         -0.499506         -1.150155
 Vib (V=0)       0.382173D+02          1.582260          3.643288
 Vib (V=0)    1  0.274513D+01          0.438564          1.009830
 Vib (V=0)    2  0.215325D+01          0.333094          0.766978
 Vib (V=0)    3  0.146763D+01          0.166615          0.383646
 Vib (V=0)    4  0.142042D+01          0.152418          0.350955
 Vib (V=0)    5  0.131851D+01          0.120082          0.276499
 Vib (V=0)    6  0.118450D+01          0.073537          0.169325
 Vib (V=0)    7  0.117208D+01          0.068956          0.158777
 Vib (V=0)    8  0.113971D+01          0.056796          0.130778
 Vib (V=0)    9  0.110395D+01          0.042949          0.098894
 Vib (V=0)   10  0.109180D+01          0.038143          0.087828
 Electronic      0.100000D+01          0.000000          0.000000
 Translational   0.466442D+08          7.668797         17.658058
 Rotational      0.348104D+06          5.541709         12.760258
 ***** Axes restored to original set *****
 -------------------------------------------------------------------
 Center     Atomic                   Forces (Hartrees/Bohr)
 Number     Number              X              Y              Z
 -------------------------------------------------------------------
      1        8          -0.000035049    0.000025985    0.000003443
      2        6          -0.000035088    0.000014384    0.000006147
      3        6           0.000055753    0.000012261    0.000030447
      4        6          -0.000058400   -0.000001487    0.000014024
      5        6           0.000014194    0.000013066   -0.000005562
      6        6           0.000053600   -0.000032097   -0.000027596
      7        6          -0.000043584   -0.000003304   -0.000009697
      8        6           0.000042101    0.000006047    0.000006224
      9        1           0.000004735    0.000000641   -0.000007075
     10        1          -0.000001024   -0.000004513    0.000005803
     11        1           0.000001198   -0.000001224    0.000000005
     12        1           0.000004092   -0.000013448    0.000006451
     13        1          -0.000009743   -0.000002287   -0.000001101
     14        1          -0.000003151   -0.000008682   -0.000011187
     15        1          -0.000008202    0.000002416   -0.000001448
     16        1           0.000006293   -0.000003160   -0.000011286
     17        1           0.000010204    0.000004676    0.000009990
     18        1          -0.000002044    0.000002193   -0.000009477
     19        1           0.000001291   -0.000009329   -0.000001161
     20        1           0.000002823   -0.000002139    0.000003056
 -------------------------------------------------------------------
 Cartesian Forces:  Max     0.000058400 RMS     0.000018920

 GradGradGradGradGradGradGradGradGradGradGradGradGradGradGradGradGradGrad
 Berny optimization.
 Search for a local minimum.
 Step number   1 out of a maximum of    2
 All quantities printed in internal units (Hartrees-Bohrs-Radians)
 Second derivative matrix not updated -- analytic derivatives used.
 ITU=  0
     Eigenvalues ---    0.00153   0.00173   0.00240   0.00483   0.00800
     Eigenvalues ---    0.01191   0.01715   0.01980   0.02206   0.04258
     Eigenvalues ---    0.04394   0.04566   0.04672   0.04873   0.04985
     Eigenvalues ---    0.05473   0.05676   0.06071   0.06669   0.06913
     Eigenvalues ---    0.07627   0.08240   0.08927   0.10491   0.11565
     Eigenvalues ---    0.11795   0.12047   0.14317   0.14787   0.16783
     Eigenvalues ---    0.17503   0.19625   0.20858   0.26478   0.28199
     Eigenvalues ---    0.32628   0.38065   0.44540   0.51438   0.54533
     Eigenvalues ---    0.61374   0.62843   0.67982   0.71970   0.74066
     Eigenvalues ---    0.76719   0.77215   0.80692   0.83265   0.84877
     Eigenvalues ---    0.86018   0.88352   0.91862   1.67134
 Angle between quadratic step and forces=  78.75 degrees.
 Linear search not attempted -- first point.
 B after Tr=    -0.000176    0.000081    0.000498
         Rot=    1.000000    0.000016    0.000063   -0.000003 Ang=   0.01 deg.
 Variable       Old X    -DE/DX   Delta X   Delta X   Delta X     New X
                                 (Linear)    (Quad)   (Total)
    X1        2.29905  -0.00004   0.00000  -0.00022  -0.00040   2.29865
    Y1        0.00000   0.00003   0.00000   0.00044   0.00054   0.00054
    Z1        0.00000   0.00000   0.00000   0.00201   0.00280   0.00280
    X2        0.00000  -0.00004   0.00000  -0.00021  -0.00039  -0.00039
    Y2       -0.00000   0.00001   0.00000   0.00016   0.00025   0.00025
    Z2       -0.00000   0.00001   0.00000   0.00044   0.00094   0.00094
    X3       -1.54264   0.00006   0.00000   0.00034   0.00018  -1.54247
    Y3       -2.43122   0.00001   0.00000  -0.00015  -0.00008  -2.43130
    Z3       -0.00506   0.00003   0.00000  -0.00018   0.00020  -0.00485
    X4       -3.60798  -0.00006   0.00000  -0.00011  -0.00001  -3.60799
    Y4       -2.44306  -0.00000   0.00000  -0.00022  -0.00023  -2.44329
    Z4       -2.07438   0.00001   0.00000   0.00004   0.00016  -2.07422
    X5       -5.21195   0.00001   0.00000  -0.00034  -0.00024  -5.21219
    Y5       -4.85046   0.00001   0.00000  -0.00005  -0.00006  -4.85052
    Z5       -1.93432  -0.00001   0.00000   0.00009   0.00008  -1.93424
    X6       -5.22714   0.00005   0.00000   0.00021   0.00027  -5.22687
    Y6       -0.03422  -0.00003   0.00000  -0.00015  -0.00016  -0.03438
    Z6       -1.89672  -0.00003   0.00000  -0.00029  -0.00044  -1.89717
    X7       -3.61509  -0.00004   0.00000  -0.00006   0.00001  -3.61509
    Y7        2.37242  -0.00000   0.00000  -0.00001  -0.00001   2.37240
    Z7       -2.06038  -0.00001   0.00000  -0.00040  -0.00043  -2.06080
    X8       -1.54866   0.00004   0.00000   0.00015  -0.00004  -1.54869
    Y8        2.42707   0.00001   0.00000   0.00020   0.00028   2.42735
    Z8       -0.00506   0.00001   0.00000  -0.00054  -0.00031  -0.00537
    X9       -0.24670   0.00000   0.00000   0.00077   0.00064  -0.24606
    Y9       -4.03065   0.00000   0.00000   0.00027   0.00035  -4.03030
    Z9       -0.20696  -0.00001   0.00000  -0.00087  -0.00028  -0.20724
   X10       -2.46886  -0.00000   0.00000   0.00069   0.00030  -2.46857
   Y10       -2.60206  -0.00000   0.00000  -0.00102  -0.00089  -2.60295
   Z10        1.85248   0.00001   0.00000  -0.00005   0.00022   1.85269
   X11       -2.64416   0.00000   0.00000  -0.00025   0.00008  -2.64409
   Y11       -2.41769  -0.00000   0.00000  -0.00046  -0.00052  -2.41821
   Z11       -3.91836   0.00000   0.00000  -0.00006   0.00018  -3.91818
   X12       -6.22849   0.00000   0.00000   0.00292   0.00279  -6.22570
   Y12       -4.95995  -0.00001   0.00000  -0.00223  -0.00219  -4.96215
[...]
 21,0.00016076,0.00012201,-0.01919461,-0.00532913,-0.01601405,-0.120709
 71,0.00003430,-0.04537686,0.51488619,0.01682319,0.00978894,0.00069128,
 0.02433599,-0.17171311,-0.00056631,0.01327948,-0.02358124,0.00056876,0
 .00091621,0.00100014,-0.00002124,-0.00033976,0.00023709,-0.00021213,-0
 .02207062,-0.00062517,-0.02185458,-0.00499463,-0.08540120,-0.00224327,
 0.08028006,0.53812585,0.00023909,0.00139730,0.02516195,0.00160190,-0.0
 0084132,-0.08910292,-0.00230165,-0.00063791,0.01858895,0.00233483,0.00
 256877,0.00008877,0.00025724,0.00006675,0.00054676,-0.00215755,-0.0041
 4393,0.00139436,-0.05156273,0.00690385,-0.12646151,-0.05309504,-0.0063
 0202,0.48666560,0.00187766,0.00126979,0.00007622,0.01139948,-0.0157478
 5,-0.00241410,-0.15426400,0.13134818,0.01887356,-0.01325369,0.01660584
 ,0.00400723,0.00046200,0.00128690,0.00072186,-0.00234305,-0.00165440,-
 0.00428164,-0.00028124,-0.00025710,-0.00004162,-0.00205421,-0.00274704
 ,0.00037575,0.16540856,-0.00012308,0.00601487,0.00072230,0.02236176,-0
 .02656100,-0.00394767,0.12716988,-0.20681443,-0.02320127,-0.00117244,0
 .00088739,0.00112689,-0.00054923,0.00087471,-0.00003697,-0.00087999,0.
 00093560,-0.00000710,-0.00031083,0.00022975,-0.00041267,-0.00506240,-0
 .00316583,0.00060997,-0.13971498,0.22455817,-0.00063370,-0.00026258,-0
 .00119390,0.00061089,0.00230931,-0.00061402,0.01852212,-0.02333250,-0.
 05355663,-0.01533616,0.01961111,0.00300348,0.00073850,0.00079605,0.000
 54471,-0.00297338,-0.00130412,-0.00363215,-0.00014052,-0.00053292,-0.0
 0008767,-0.00002798,-0.00037166,0.00125929,-0.01810853,0.02483681,0.05
 471595,-0.00113504,-0.00389513,-0.00316334,-0.01151357,0.00046395,0.01
 733006,-0.09540807,-0.00710557,0.10600522,0.00903161,0.00220377,-0.023
 35176,0.00172230,0.00043575,-0.00042459,0.00157903,-0.00038208,-0.0002
 2160,-0.00012837,0.00028570,-0.00004851,0.00033687,0.00019608,-0.00105
 531,-0.00853871,-0.00289344,0.01746608,0.10655031,-0.00261464,-0.00278
 980,-0.00353540,-0.01267968,0.00183810,0.02842737,-0.00871960,-0.05328
 424,0.02287469,0.00089370,0.00027108,-0.00060031,0.00062162,0.00025600
 ,-0.00104705,-0.00056192,0.00007890,0.00110769,-0.00041366,0.00023256,
 -0.00015554,0.00144773,-0.00042883,-0.00326224,0.01080901,0.00339220,-
 0.02330950,0.01121405,0.05067770,-0.00062396,0.00059222,-0.00087954,0.
 00056057,-0.00033974,0.00097643,0.10231933,0.01764538,-0.23795200,0.00
 956545,0.00174081,-0.02669208,0.00169701,0.00070582,0.00123709,0.00152
 159,-0.00065049,0.00073470,-0.00038298,0.00009778,-0.00011868,0.000596
 57,-0.00012296,-0.00065119,0.00113316,-0.00010811,-0.00252547,-0.10945
 281,-0.01969036,0.26569049,-0.00015174,0.00025070,0.00028247,0.0016722
 3,0.00065826,-0.00039825,0.00910321,-0.00015674,-0.02310295,-0.1014469
 4,-0.00120882,0.10060181,-0.00984146,-0.00170978,0.01713243,-0.0108583
 6,0.00184505,0.01853686,0.00034823,-0.00127466,-0.00016898,0.00001886,
 -0.00000192,-0.00019665,0.00111278,0.00005311,0.00090312,-0.00300611,-
 0.00046679,-0.00458437,0.11445243,0.00006988,0.00006764,0.00008302,0.0
 0028040,-0.00010595,-0.00062755,0.00025066,0.00014364,-0.00016201,-0.0
 0142310,-0.04979697,0.00182990,-0.01498649,-0.00241406,0.02590874,0.01
 426049,-0.00247204,-0.02543710,0.00063307,0.00164519,-0.00116845,-0.00
 023807,-0.00011045,0.00016744,-0.00033579,0.00012632,0.00035277,-0.000
 06918,0.00070606,0.00016173,0.00150795,0.05833252,-0.00142064,-0.00043
 981,0.00047923,0.00221494,0.00175659,-0.00079827,0.00777506,-0.0011120
 7,-0.02281513,0.10065882,0.00224548,-0.24160590,0.00095484,0.00021117,
 -0.00133719,0.00170943,-0.00024838,-0.00249792,-0.00014074,0.00044575,
 -0.00010049,-0.00012407,-0.00040895,-0.00026836,0.00001922,0.00040234,
 0.00089542,-0.00383203,-0.00029059,-0.00267596,-0.10777287,-0.00215393
 ,0.26522257,0.00022813,0.00015761,0.00005768,0.00004385,-0.00027228,-0
 .00028455,0.00070029,0.00091196,0.00133593,-0.01070131,-0.00103471,0.0
 1710572,-0.11010578,-0.00439807,0.10860102,0.00031860,0.00114004,-0.00
 042705,0.00005956,0.00001048,-0.00019233,-0.00000996,0.00008064,0.0001
 6189,-0.00004443,-0.00004230,0.00000443,-0.00008935,-0.00020571,-0.000
 93448,-0.00151011,-0.00364822,-0.00018899,0.11702294,0.00020499,0.0000
 8437,0.00001402,0.00014996,-0.00007159,0.00006795,0.00115709,0.0009626
 9,0.00090096,-0.01442670,-0.00212652,0.02599209,-0.00427821,-0.0495602
 7,0.00854838,-0.00070462,0.00198300,0.00140798,-0.00010054,-0.00009264
 ,-0.00013712,0.00002400,0.00005512,0.00005218,-0.00001214,-0.00001189,
 -0.00017088,0.00005154,0.00025540,-0.00075113,-0.00345478,-0.00463538,
 0.00022825,0.00818796,0.05235443,0.00005185,0.00005621,-0.00010550,-0.
 00011592,-0.00017247,0.00036053,-0.00053034,-0.00012320,0.00123594,0.0
 0077471,0.00062971,-0.00248127,0.10881975,0.00892882,-0.24676440,-0.00
 005638,-0.00048242,0.00010268,-0.00025986,0.00015249,0.00036737,0.0000
 1594,0.00002622,-0.00009322,-0.00004472,0.00001672,-0.00001744,0.00053
 206,0.00009377,0.00046716,-0.00003967,0.00050536,0.00150690,-0.1214676
 7,-0.01034875,0.26693830,-0.00091642,-0.00068100,0.00029051,0.00047255
 ,0.00173226,-0.00129260,-0.00170492,-0.00476118,0.00098806,-0.01307064
 ,0.00057616,-0.01367154,-0.16784048,-0.00190159,-0.13004224,0.00045890
 ,0.00103214,0.00010844,0.00002841,-0.00006359,0.00019310,-0.00000151,-
 0.00004079,0.00017576,0.00036267,0.00003294,0.00025757,0.00028799,0.00
 007011,-0.00007746,0.00017815,0.00054001,0.00031871,0.01275815,0.00034
 046,0.01238753,0.18077684,-0.00086300,-0.00081322,0.00034072,-0.000612
 02,0.00186689,-0.00133932,-0.00249540,-0.00553729,0.00060664,-0.018360
 06,-0.00045045,-0.02211345,-0.00149659,-0.04919203,-0.00212138,-0.0006
 5363,0.00153867,-0.00104142,-0.00012862,-0.00003745,0.00016870,0.00019
 721,0.00006043,0.00016242,-0.00028438,0.00011755,0.00008071,0.00035837
 ,-0.00011064,0.00023430,0.00069130,0.00111353,0.00030472,0.00093781,-0
 .00094728,0.00045563,0.00455280,0.05148917,-0.00027109,-0.00028692,-0.
 00014528,0.00019389,0.00076644,0.00047981,0.00015832,-0.00025262,0.000
 98254,0.00270263,0.00014336,0.00161811,-0.13019741,-0.00273211,-0.1930
 8615,-0.00001732,0.00026126,-0.00008125,0.00023787,-0.00018249,0.00019
 686,0.00001734,0.00003485,-0.00011268,-0.00005122,0.00011004,-0.000088
 68,0.00014304,0.00015236,0.00050041,-0.00010054,-0.00053102,0.00072946
 ,-0.02011405,0.00006874,-0.02035963,0.14397445,0.00229646,0.20625931,0
 .00015426,0.00016940,-0.00003524,0.00004257,-0.00024648,0.00021751,0.0
 0129828,-0.00030310,0.00030135,0.01191095,-0.01671124,-0.00245216,-0.1
 3740261,0.12420356,0.01257471,-0.00232684,-0.00243490,-0.00002496,0.00
 076072,-0.00105674,-0.00011090,0.00018761,0.00011573,0.00004561,-0.000
 10213,0.00022321,0.00007061,-0.00011726,0.00008584,-0.00006394,0.00083
 190,0.00087524,-0.00012091,-0.00935548,0.01212347,0.00016684,-0.012603
 44,0.01740930,0.00318805,0.14688597,-0.00009772,0.00021819,0.00004942,
 -0.00016050,-0.00035429,0.00020875,0.00157573,0.00101394,0.00037210,0.
 01715306,-0.02249298,-0.00276423,0.12325275,-0.22169514,-0.01769179,-0
 .00574889,-0.00336407,0.00070373,0.00186637,-0.00088651,-0.00019977,0.
 00015236,0.00029408,0.00007433,-0.00098461,0.00031374,-0.00046366,-0.0
 0008569,-0.00004531,-0.00005353,0.00008399,0.00100649,0.00046414,-0.00
 149178,0.00215045,-0.00036546,-0.00079767,0.00138534,0.00074162,-0.133
 94764,0.24245281,0.00008386,0.00004410,-0.00002767,-0.00016536,0.00000
 745,-0.00006986,0.00050052,-0.00051105,0.00003755,-0.00155158,0.002158
 28,-0.00128437,0.01236703,-0.01765831,-0.05160821,0.00026540,0.0002243
 4,0.00013513,-0.00006841,0.00010053,0.00060603,0.00010168,0.00012330,0
 .00000628,-0.00025841,-0.00006362,0.00017339,0.00011450,-0.00009998,-0
 .00004694,-0.00050164,0.00011059,0.00011085,0.01688475,-0.02483263,-0.
 00146564,-0.01400959,0.02133521,0.00284806,-0.01379069,0.01900427,0.05
 008873,-0.00050275,-0.00006890,0.00005064,0.00113508,0.00014193,0.0002
 8105,-0.00133658,0.00329027,0.00159559,-0.01377106,0.00053370,-0.01466
 648,0.00050237,-0.00120004,0.00009728,-0.16618909,0.00001438,-0.126768
 86,-0.01273456,-0.00011185,-0.01355826,-0.00111410,-0.00342691,0.00155
 181,-0.00071240,-0.00004846,-0.00096824,0.00019159,0.00002729,-0.00014
 318,0.00027703,-0.00062423,0.00028246,0.00005434,0.00006312,0.00008923
 ,0.00067241,0.00051301,0.00021036,0.00004388,-0.00008374,0.00035145,0.
 18069552,-0.00003472,0.00092711,0.00001895,-0.00003088,-0.00224105,-0.
 00004086,0.00314705,-0.00472626,-0.00149824,0.01837273,-0.00082021,0.0
 2185993,0.00078622,0.00145683,0.00103962,-0.00010585,-0.04767609,-0.00
 020212,-0.01947169,-0.00007930,-0.02226703,-0.00318334,-0.00471579,0.0
 0179570,0.00145039,0.00019928,0.00125091,-0.00036275,0.00000311,-0.000
 19038,-0.00067501,0.00104372,-0.00037241,-0.00004944,-0.00010687,0.000
 00236,-0.00046537,-0.00043117,-0.00046955,-0.00014255,0.00030255,-0.00
 028454,0.00027384,0.05508372,-0.00008375,-0.00004446,-0.00006216,0.000
 28884,0.00007956,-0.00000067,0.00031727,0.00006553,0.00110678,0.002568
 94,-0.00044560,0.00148892,0.00004016,-0.00017490,-0.00005324,-0.127516
 49,-0.00002608,-0.19013926,0.00311022,0.00024101,0.00199969,0.00046538
 ,-0.00011176,0.00105216,-0.00013943,-0.00011041,0.00021613,0.00020200,
 -0.00014700,0.00045006,-0.00013542,0.00050178,0.00080623,-0.00009307,-
 0.00000490,-0.00005683,0.00018919,0.00048706,0.00029218,0.00025879,0.0
 0013488,0.00016761,0.14009284,0.00020770,0.20263752,0.00019961,-0.0000
 0420,0.00006292,-0.00043868,0.00000948,-0.00003146,0.00061581,-0.00071
 663,0.00130302,-0.01099498,0.00097101,0.01781515,0.00040176,-0.0011373
 5,-0.00037484,-0.11122029,-0.00079028,0.10404106,-0.00990736,-0.000741
 12,0.01653505,0.00060082,0.00077081,0.00110919,0.00031145,0.00000707,-
 0.00030707,-0.00014586,0.00023885,-0.00080941,-0.00178482,0.00330191,0
 .00017420,0.00058565,0.00042019,-0.00027961,0.00006009,0.00007145,-0.0
 0010058,-0.00001603,-0.00007385,-0.00029531,0.01229555,0.00012359,-0.0
 1939078,0.11994147,-0.00000039,0.00019649,0.00000794,-0.00001168,-0.00
 051414,-0.00002456,-0.00101284,0.00102912,-0.00063200,0.01457864,-0.00
 159806,-0.02570404,0.00068702,0.00179573,-0.00112462,-0.00063552,-0.04
 828471,0.00120498,-0.01528850,-0.00151622,0.02643386,0.00102172,0.0011
 1986,0.00055302,-0.00037171,-0.00002309,0.00010895,-0.00006073,0.00008
 426,0.00070227,0.00356251,-0.00462309,-0.00021210,-0.00042073,-0.00036
 935,0.00070122,-0.00003333,-0.00007929,-0.00002049,-0.00012486,0.00027
 385,0.00034654,0.00004313,-0.00036826,0.00001006,0.00086424,0.05636724
 ,0.00011073,-0.00003202,-0.00011505,-0.00014533,0.00004966,0.00016105,
 -0.00049976,0.00024657,0.00075781,0.00153348,-0.00045820,-0.00365355,-
 0.00007287,0.00049013,0.00014402,0.10427105,0.00134922,-0.23645471,0.0
 0058875,0.00057939,-0.00228878,-0.00034828,-0.00027913,0.00079584,0.00
 002466,-0.00007687,0.00024806,0.00042570,-0.00004589,0.00058681,0.0001
 9537,-0.00066389,0.00148477,-0.00026744,-0.00071682,0.00034989,0.00007
 375,0.00001014,-0.00005669,-0.00023451,-0.00016139,0.00033050,0.012107
 19,0.00008658,-0.02127195,-0.11802481,-0.00155784,0.25648529,-0.001836
 50,0.00181642,0.00078762,-0.00084051,-0.00488943,-0.00396321,0.0000096
 3,0.00003897,0.00060387,-0.00270011,-0.00237062,0.00036141,0.00099083,
 -0.00097664,-0.00001263,0.01293153,-0.01756739,-0.00204611,-0.13601689
 ,0.12313000,0.01589469,-0.01462197,0.02009885,-0.00049628,0.00008867,0
 .00007085,0.00013150,-0.00001881,-0.00003727,0.00001256,-0.00000023,-0
 .00001143,-0.00019717,0.00000643,0.00006036,0.00003648,0.00006538,0.00
 010387,-0.00002112,-0.00021942,-0.00043976,0.00002792,0.00078207,0.000
 82506,-0.00009905,0.00078838,0.00080645,-0.00007279,0.14755123,-0.0000
 6273,0.00014452,0.00016399,-0.00045244,0.00047020,-0.00037339,-0.00039
 612,0.00067095,-0.00017701,-0.00586689,-0.00307534,0.00066593,0.001698
 39,-0.00104609,-0.00011118,0.01670038,-0.02235967,-0.00295101,0.122078
 80,-0.21908383,-0.01902486,-0.00115734,0.00241605,0.00001779,0.0001064
 9,0.00002449,0.00004684,0.00001047,-0.00002672,0.00004959,-0.00010167,
 0.00034007,-0.00010542,-0.00004449,-0.00000653,0.00010256,-0.00002093,
 0.00005397,-0.00007320,-0.00033672,-0.00066224,0.00005865,-0.00004860,
 0.00083613,-0.00051717,0.00015939,0.00109405,0.00056455,-0.13155556,0.
 23798934,-0.00235316,0.00188234,0.00097451,-0.00181888,-0.00382719,-0.
 00397664,0.00030434,-0.00011325,0.00039297,0.00025517,0.00022135,0.000
 20070,0.00001964,0.00007304,0.00056763,-0.00107270,0.00282793,-0.00072
 015,0.01610870,-0.01998088,-0.05195375,-0.01616718,0.02232309,-0.00064
 004,0.00004339,0.00009105,0.00006856,-0.00002445,-0.00001434,0.0000177
 8,-0.00032208,0.00035432,0.00036240,-0.00006501,-0.00010066,-0.0000085
 3,0.00005554,0.00006547,-0.00000754,0.00000201,0.00000031,-0.00000977,
 0.00018592,-0.00032727,-0.00001434,-0.00052488,0.00006102,0.00025605,-
 0.01356803,0.02146300,0.05482716,-0.00017091,-0.00021862,0.00034279,0.
 00174374,-0.00084546,-0.00051817,0.00002653,0.00005621,-0.00019804,0.0
 0016095,0.00122010,-0.00022158,0.00009174,-0.00002205,-0.00018564,-0.0
 1019138,-0.00162305,0.01816051,-0.09828549,-0.00213643,0.10030920,0.00
 975539,0.00109555,-0.02371425,0.00006547,0.00003866,0.00004589,-0.0001
 1045,0.00000883,-0.00001860,0.00065683,-0.00038966,-0.00033537,0.00004
 465,0.00018899,-0.00008917,-0.00003689,0.00000417,0.00001488,0.0000339
 5,-0.00006000,-0.00006049,0.00021601,0.00058759,-0.00014925,-0.0014053
 2,-0.00398233,-0.00016624,-0.00868404,-0.00101547,0.01745700,0.1081046
 3,-0.00013108,0.00014503,-0.00016297,-0.00031305,-0.00026690,0.0007600
 1,0.00023264,-0.00011475,-0.00013796,-0.00078120,0.00179296,0.00137206
 ,-0.00012946,-0.00006541,-0.00015295,-0.01349166,-0.00239505,0.0262359
 6,-0.00167053,-0.05235768,0.00885902,0.00008480,-0.00011760,-0.0006334
 9,0.00005440,-0.00000758,0.00003320,-0.00005452,0.00009022,-0.00017292
 ,0.00043551,-0.00045499,-0.00065016,0.00017048,0.00010747,-0.00020130,
 -0.00000665,0.00001043,0.00002664,0.00007647,0.00000636,-0.00010392,0.
 00063843,0.00114429,-0.00044750,-0.00322410,-0.00458611,0.00049489,0.0
 1166608,0.00170496,-0.02496798,0.00668586,0.05419043,-0.00130702,0.000
 41333,0.00039015,0.00216752,-0.00172639,-0.00052718,-0.00007966,0.0003
 8909,-0.00025242,-0.00013695,-0.00045566,-0.00016461,-0.00021775,0.000
 10626,0.00040630,0.00111423,0.00030834,-0.00118852,0.09998827,0.008889
 32,-0.25297447,0.00778576,0.00139122,-0.02161834,0.00001384,0.00012369
 ,-0.00002049,0.00000397,-0.00006023,0.00013642,-0.00035810,0.00063406,
 0.00038248,-0.00006764,-0.00019234,-0.00000407,0.00002643,-0.00000040,
 -0.00001649,0.00001297,0.00006127,-0.00002053,0.00028170,0.00040455,0.
 00078471,0.00011698,-0.00001898,0.00148093,0.00164616,-0.00063606,-0.0
 0241218,-0.10703254,-0.00958680,0.27716206,0.00185929,-0.00136371,0.00
 011001,0.01159253,0.01595437,-0.00274557,-0.00213446,0.00272348,0.0004
 2431,-0.00039202,0.00028660,-0.00011199,0.00018134,-0.00009472,0.00005
 020,-0.00226444,0.00175766,-0.00427633,-0.01263697,-0.01708953,0.00420
 092,-0.15333072,-0.13187041,0.02064270,0.00058242,0.00091690,0.0000917
 3,-0.00008009,-0.00008708,-0.00003720,0.00006680,-0.00006538,0.0000130
 2,-0.00001403,0.00001858,-0.00000006,0.00005736,0.00007339,0.00002848,
 -0.00000793,-0.00012881,0.00000231,-0.00066758,-0.00145842,-0.00012147
 ,0.00031254,0.00040600,0.00002450,0.00012127,0.00032634,0.00057783,0.0
 0120394,0.00024766,0.00003314,0.16392669,0.00004983,0.00602670,-0.0007
 7801,-0.02213242,-0.02647556,0.00434975,0.00492036,-0.00319792,-0.0007
 0215,0.00048675,0.00019874,0.00049357,-0.00008186,0.00013398,-0.000129
 00,0.00053568,0.00084456,0.00022116,0.00163376,0.00222846,-0.00105747,
 -0.12742094,-0.20946719,0.02568146,-0.00088799,-0.00149493,-0.00010600
 ,0.00007923,0.00042678,0.00017208,-0.00004209,-0.00001600,-0.00012403,
 0.00001350,-0.00000023,0.00001870,-0.00011155,-0.00002810,-0.00005210,
 0.00003643,0.00006741,0.00002683,0.00009583,0.00015809,0.00015947,-0.0
 0001990,-0.00005539,0.00005317,-0.00024322,0.00033384,-0.00042314,-0.0
 0006610,0.00015763,-0.00038821,0.14012743,0.22652906,-0.00068741,0.000
 22032,-0.00117007,0.00076423,-0.00233175,-0.00066648,-0.00002861,0.000
 31248,0.00122492,-0.00025499,0.00060649,-0.00009563,0.00017560,-0.0000
 7472,0.00004413,-0.00294195,0.00128396,-0.00374539,-0.01453026,-0.0203
 4538,0.00340748,0.02034846,0.02603823,-0.05443321,0.00008064,0.0000900
 7,0.00038502,-0.00035059,-0.00041465,0.00022961,0.00004817,-0.00003265
 ,-0.00002411,-0.00001763,0.00000686,0.00000446,0.00005018,0.00006770,0
 .00003646,0.00000814,-0.00009087,0.00002384,-0.00092405,-0.00123659,0.
 00017649,-0.00027730,-0.00009364,0.00023981,0.00056298,0.00039648,0.00
 067510,0.00089657,-0.00035080,0.00087504,-0.02024650,-0.02755075,0.055
 62571,-0.00122259,0.00389544,-0.00326318,-0.01153808,-0.00039629,0.017
 74555,0.00030376,-0.00021036,-0.00110869,-0.00009406,-0.00031128,-0.00
 005342,-0.00004205,-0.00000140,-0.00003073,0.00154747,0.00050778,-0.00
 011685,0.00969222,-0.00277045,-0.02477834,-0.09414302,0.00749951,0.106
 08369,-0.00007728,-0.00007721,-0.00034686,0.00059199,0.00036929,-0.000
 27787,-0.00011868,0.00007194,0.00001211,0.00000787,-0.00001370,0.00000
 902,-0.00000461,-0.00001897,0.00000403,0.00000106,0.00001637,0.0000020
 7,0.00016229,0.00041354,0.00019508,-0.00019979,-0.00002711,0.00047683,
 0.00160307,-0.00002129,0.00090682,-0.00321933,-0.00049006,-0.00399131,
 -0.00837594,0.00302729,0.01732431,0.10512571,0.00261775,-0.00276477,0.
 00357441,0.01254469,0.00167396,-0.02865766,-0.00137956,-0.00042035,0.0
 0329438,0.00040239,0.00022188,0.00019051,0.00003302,0.00000188,-0.0000
 0682,0.00054972,0.00009511,-0.00103790,-0.00084229,0.00036586,0.001279
 85,0.00885218,-0.05377115,-0.02423007,0.00006698,0.00040466,0.00042716
 ,-0.00038982,-0.00162682,-0.00002239,0.00000387,0.00010376,0.00005941,
 -0.00000275,-0.00002440,0.00000381,0.00000676,-0.00000908,-0.00000127,
 -0.00001441,0.00001533,0.00001395,-0.00002219,0.00001018,0.00014271,-0
 .00023056,0.00005711,0.00006774,-0.00052560,0.00018187,0.00039178,0.00
 047321,0.00101631,0.00034394,-0.01068035,0.00363009,0.02349922,-0.0114
 6304,0.05083860,-0.00066842,-0.00061262,-0.00081257,0.00075878,0.00013
 700,0.00086002,0.00064307,0.00014165,-0.00064373,-0.00042418,-0.000043
 99,-0.00012725,0.00004641,-0.00003929,0.00000122,0.00142479,0.00051304
 ,0.00074147,0.00932994,-0.00186538,-0.02513231,0.10174499,-0.01870296,
 -0.24217850,-0.00002986,-0.00016520,0.00022646,-0.00029766,0.00001720,
 0.00051491,-0.00001872,0.00016689,0.00014303,-0.00003150,-0.00003217,0
 .00002329,0.00000422,0.00000008,0.00001121,-0.00001329,-0.00002412,0.0
 0000503,-0.00014846,0.00022270,0.00041998,-0.00074151,-0.00074161,0.00
 051991,0.00041119,0.00043989,0.00140008,-0.00453750,-0.00021302,-0.002
 41880,0.00133998,0.00013466,-0.00281318,-0.10879227,0.02066723,0.26925
 975\\0.00003505,-0.00002599,-0.00000344,0.00003509,-0.00001438,-0.0000
 0615,-0.00005575,-0.00001226,-0.00003045,0.00005840,0.00000149,-0.0000
 1402,-0.00001419,-0.00001307,0.00000556,-0.00005360,0.00003210,0.00002
 760,0.00004358,0.00000330,0.00000970,-0.00004210,-0.00000605,-0.000006
 22,-0.00000473,-0.00000064,0.00000707,0.00000102,0.00000451,-0.0000058
 0,-0.00000120,0.00000122,0.,-0.00000409,0.00001345,-0.00000645,0.00000
 974,0.00000229,0.00000110,0.00000315,0.00000868,0.00001119,0.00000820,
 -0.00000242,0.00000145,-0.00000629,0.00000316,0.00001129,-0.00001020,-
 0.00000468,-0.00000999,0.00000204,-0.00000219,0.00000948,-0.00000129,0
 .00000933,0.00000116,-0.00000282,0.00000214,-0.00000306\\\@


 IT IS WELL TO REMEMBER THAT MAN IS A PART OF NATURE AND THAT HIS WORKS,
 WHATEVER THEY MAY BE, ARE NO MORE "UNNATURAL" THAN 
 THE FLIGHT OF AN EAGLE OR THE PASSAGE OF A TORNADO.

                                    -- CHARLES MCCARRY IN "THE GREAT SOUTHWEST"
 Job cpu time:       0 days  0 hours  1 minutes  4.7 seconds.
 Elapsed time:       0 days  0 hours  1 minutes  5.0 seconds.
 File lengths (MBytes):  RWF=     54 Int=      0 D2E=      0 Chk=      4 Scr=      1
 Normal termination of Gaussian 16 at Wed Feb 21 18:15:52 2024.
