 Entering Gaussian System, Link 0=g16
 Input=/Volumes/SSD-PMU3/b3lyp_6-31gd_freq/JHSRFFYIQCJZBD-VIFPVBQESA-N_calculating/gaussianinput0.gjf
 Output=/Volumes/SSD-PMU3/b3lyp_6-31gd_freq/JHSRFFYIQCJZBD-VIFPVBQESA-N_calculating/gaussianinput0.log
 Initial command:
 /Applications/g16/l1.exe "/Users/macmini_m1_2022/PycharmProjects/sphere_model/sphere_model_lib/Gau-93095.inp" -scrdir="/Users/macmini_m1_2022/PycharmProjects/sphere_model/sphere_model_lib/"
 Entering Link 1 = /Applications/g16/l1.exe PID=     93096.
  
 Copyright (c) 1988,1990,1992,1993,1995,1998,2003,2009,2016,
            Gaussian, Inc.  All Rights Reserved.
  
 This is part of the Gaussian(R) 16 program.  It is based on
 the Gaussian(R) 09 system (copyright 2009, Gaussian, Inc.),
 the Gaussian(R) 03 system (copyright 2003, Gaussian, Inc.),
 the Gaussian(R) 98 system (copyright 1998, Gaussian, Inc.),
 the Gaussian(R) 94 system (copyright 1995, Gaussian, Inc.),
 the Gaussian 92(TM) system (copyright 1992, Gaussian, Inc.),
 the Gaussian 90(TM) system (copyright 1990, Gaussian, Inc.),
 the Gaussian 88(TM) system (copyright 1988, Gaussian, Inc.),
 the Gaussian 86(TM) system (copyright 1986, Carnegie Mellon
 University), and the Gaussian 82(TM) system (copyright 1983,
 Carnegie Mellon University). Gaussian is a federally registered
 trademark of Gaussian, Inc.
  
 This software contains proprietary and confidential information,
 including trade secrets, belonging to Gaussian, Inc.
  
 This software is provided under written license and may be
 used, copied, transmitted, or stored only in accord with that
 written license.
  
 The following legend is applicable only to US Government
 contracts under FAR:
  
                    RESTRICTED RIGHTS LEGEND
  
 Use, reproduction and disclosure by the US Government is
 subject to restrictions as set forth in subparagraphs (a)
 and (c) of the Commercial Computer Software - Restricted
 Rights clause in FAR 52.227-19.
  
 Gaussian, Inc.
 340 Quinnipiac St., Bldg. 40, Wallingford CT 06492
  
  
 ---------------------------------------------------------------
 Warning -- This program may not be used in any manner that
 competes with the business of Gaussian, Inc. or will provide
 assistance to any competitor of Gaussian, Inc.  The licensee
 of this program is prohibited from giving any competitor of
 Gaussian, Inc. access to this program.  By using this program,
 the user acknowledges that Gaussian, Inc. is engaged in the
 business of creating and licensing software in the field of
 computational chemistry and represents and warrants to the
 licensee that it is not a competitor of Gaussian, Inc. and that
 it will not use this program in any manner prohibited above.
 ---------------------------------------------------------------
  

 Cite this work as:
 Gaussian 16, Revision A.03,
 M. J. Frisch, G. W. Trucks, H. B. Schlegel, G. E. Scuseria, 
 M. A. Robb, J. R. Cheeseman, G. Scalmani, V. Barone, 
 G. A. Petersson, H. Nakatsuji, X. Li, M. Caricato, A. V. Marenich, 
 J. Bloino, B. G. Janesko, R. Gomperts, B. Mennucci, H. P. Hratchian, 
 J. V. Ortiz, A. F. Izmaylov, J. L. Sonnenberg, D. Williams-Young, 
 F. Ding, F. Lipparini, F. Egidi, J. Goings, B. Peng, A. Petrone, 
 T. Henderson, D. Ranasinghe, V. G. Zakrzewski, J. Gao, N. Rega, 
 G. Zheng, W. Liang, M. Hada, M. Ehara, K. Toyota, R. Fukuda, 
 J. Hasegawa, M. Ishida, T. Nakajima, Y. Honda, O. Kitao, H. Nakai, 
 T. Vreven, K. Throssell, J. A. Montgomery, Jr., J. E. Peralta, 
 F. Ogliaro, M. J. Bearpark, J. J. Heyd, E. N. Brothers, K. N. Kudin, 
 V. N. Staroverov, T. A. Keith, R. Kobayashi, J. Normand, 
 K. Raghavachari, A. P. Rendell, J. C. Burant, S. S. Iyengar, 
 J. Tomasi, M. Cossi, J. M. Millam, M. Klene, C. Adamo, R. Cammi, 
 J. W. Ochterski, R. L. Martin, K. Morokuma, O. Farkas, 
 J. B. Foresman, and D. J. Fox, Gaussian, Inc., Wallingford CT, 2016.
 
 ******************************************
 Gaussian 16:  EM64M-G16RevA.03 25-Dec-2016
                24-Feb-2024 
 ******************************************
 %nprocshared=10
 Will use up to   10 processors via shared memory.
 %mem=12GB
 %chk= 0.chk
 ---------------------
 # freq b3lyp/6-31g(d)
 ---------------------
 1/10=4,30=1,38=1/1,3;
 2/12=2,17=6,18=5,40=1/2;
 3/5=1,6=6,7=1,11=2,25=1,30=1,71=2,74=-5,140=1/1,2,3;
 4//1;
 5/5=2,38=5,98=1/2;
 8/6=4,10=90,11=11/1;
 11/6=1,8=1,9=11,15=111,16=1/1,2,10;
 10/6=1/2;
 6/7=2,8=2,9=2,10=2,28=1/1;
 7/8=1,10=1,25=1/1,2,3,16;
 1/10=4,30=1/3;
 99//99;
 ---------
 good luck
 ---------
 Symbolic Z-matrix:
 Charge =  0 Multiplicity = 1
 O                     1.21814   0.        0. 
 C                     0.        0.        0. 
 C                    -0.83726  -1.28344   0.01701 
 C                     0.02538  -2.56858   0.02893 
 C                    -0.78085  -3.78333   0.5142 
 C                     0.70762  -2.86591  -1.31629 
 C                    -1.91826  -1.21326  -1.09051 
 C                    -2.73767   0.08382  -1.02419 
 C                    -1.87856   1.3688   -1.09618 
 C                    -1.19572   1.5023   -2.4725 
 C                    -2.7717    2.59914  -0.86214 
 C                    -0.79881   1.29846   0.01701 
 H                    -1.3813   -1.24165   0.97756 
 H                     0.8248   -2.38362   0.75742 
 H                    -1.59247  -4.03845  -0.17863 
 H                    -1.22697  -3.60436   1.50049 
 H                    -0.13559  -4.66578   0.59667 
 H                     1.39803  -3.71075  -1.20947 
 H                    -0.01857  -3.13789  -2.09201 
 H                     1.286    -2.00569  -1.66494 
 H                    -2.59059  -2.07413  -0.99605 
 H                    -1.44388  -1.30198  -2.07455 
 H                    -3.30985   0.0977   -0.08447 
 H                    -3.47769   0.09494  -1.83572 
 H                    -1.94078   1.51188  -3.27741 
 H                    -0.62704   2.4378   -2.53104 
 H                    -0.49471   0.68516  -2.67411 
 H                    -3.28538   2.54011   0.10526 
 H                    -3.5371    2.68171  -1.64371 
 H                    -2.18185   3.52367  -0.87365 
 H                    -1.29809   1.36647   0.99593 
 H                    -0.09518   2.13454  -0.05376 
 

 GradGradGradGradGradGradGradGradGradGradGradGradGradGradGradGradGradGrad
 Berny optimization.
 Initialization pass.
 Trust Radius=3.00D-01 FncErr=1.00D-07 GrdErr=1.00D-07 EigMax=2.50D+02 EigMin=1.00D-04
 Number of steps in this run=      2 maximum allowed number of steps=      2.
 GradGradGradGradGradGradGradGradGradGradGradGradGradGradGradGradGradGrad

                          Input orientation:                          
 ---------------------------------------------------------------------
 Center     Atomic      Atomic             Coordinates (Angstroms)
 Number     Number       Type             X           Y           Z
 ---------------------------------------------------------------------
      1          8           0        1.218144    0.000000    0.000000
      2          6           0        0.000000    0.000000    0.000000
      3          6           0       -0.837262   -1.283438    0.017006
      4          6           0        0.025377   -2.568579    0.028932
      5          6           0       -0.780846   -3.783334    0.514200
      6          6           0        0.707621   -2.865910   -1.316292
      7          6           0       -1.918256   -1.213257   -1.090511
      8          6           0       -2.737672    0.083823   -1.024193
      9          6           0       -1.878562    1.368803   -1.096183
     10          6           0       -1.195718    1.502301   -2.472505
     11          6           0       -2.771697    2.599141   -0.862142
     12          6           0       -0.798809    1.298455    0.017006
     13          1           0       -1.381300   -1.241645    0.977559
     14          1           0        0.824802   -2.383618    0.757422
     15          1           0       -1.592465   -4.038452   -0.178629
     16          1           0       -1.226974   -3.604360    1.500485
     17          1           0       -0.135586   -4.665776    0.596669
     18          1           0        1.398025   -3.710750   -1.209465
     19          1           0       -0.018565   -3.137892   -2.092009
     20          1           0        1.286001   -2.005691   -1.664939
     21          1           0       -2.590587   -2.074128   -0.996053
     22          1           0       -1.443877   -1.301976   -2.074545
     23          1           0       -3.309847    0.097698   -0.084471
     24          1           0       -3.477685    0.094941   -1.835717
     25          1           0       -1.940779    1.511877   -3.277412
     26          1           0       -0.627038    2.437795   -2.531044
     27          1           0       -0.494709    0.685161   -2.674112
     28          1           0       -3.285383    2.540114    0.105257
     29          1           0       -3.537103    2.681711   -1.643707
     30          1           0       -2.181846    3.523674   -0.873646
     31          1           0       -1.298088    1.366473    0.995930
     32          1           0       -0.095176    2.134536   -0.053763
 ---------------------------------------------------------------------
                    Distance matrix (angstroms):
                    1          2          3          4          5
     1  O    0.000000
     2  C    1.218144   0.000000
     3  C    2.423261   1.532485   0.000000
     4  C    2.832160   2.568867   1.547862   0.000000
     5  C    4.309754   3.897145   2.549483   1.536590   0.000000
     6  C    3.194792   3.232150   2.582356   1.537365   2.531383
     7  C    3.535281   2.518117   1.549215   2.620641   3.236371
     8  C    4.087111   2.924183   2.562237   3.972247   4.598992
     9  C    3.558768   2.569870   3.059065   4.515954   5.508433
    10  C    3.767880   3.130484   3.753198   4.931564   6.085266
    11  C    4.839179   3.896297   4.425987   5.943313   6.825965
    12  C    2.398828   1.524589   2.582179   3.953907   5.106085
    13  H    3.042107   2.098879   1.104711   2.153924   2.652438
    14  H    2.531806   2.633557   2.126280   1.097264   2.143937
    15  H    4.923467   4.344761   2.863338   2.195682   1.097189
    16  H    4.606676   4.092473   2.781953   2.192417   1.097187
    17  H    4.894698   4.705727   3.502652   2.178639   1.096296
    18  H    3.907023   4.145714   3.520310   2.173096   2.779167
    19  H    3.968919   3.771367   2.925271   2.196461   2.791056
    20  H    2.607570   2.906650   2.803361   2.185226   3.490060
    21  H    4.449782   3.464862   2.173851   2.852778   2.911600
    22  H    3.617352   2.843178   2.177823   2.861399   3.646690
    23  H    4.529833   3.312366   2.833992   4.271488   4.670831
    24  H    5.042785   3.933594   3.507755   4.779404   5.275990
    25  H    4.796457   4.098027   4.459229   5.607834   6.615212
    26  H    3.969096   3.569623   4.514901   5.660645   6.928175
    27  H    3.248721   2.804471   3.351841   4.261896   5.496786
    28  H    5.171558   4.154155   4.540995   6.088161   6.813658
    29  H    5.701379   4.733333   5.076368   6.561595   7.351892
    30  H    4.973879   4.235562   5.070453   6.542326   7.568440
    31  H    3.031592   2.131703   2.862286   4.262778   5.198088
    32  H    2.506780   2.137333   3.498320   4.705387   5.984472
                    6          7          8          9         10
     6  C    0.000000
     7  C    3.110863   0.000000
     8  C    4.544919   1.535662   0.000000
     9  C    4.966849   2.582371   1.547393   0.000000
    10  C    4.903141   3.131489   2.547020   1.542193   0.000000
    11  C    6.494512   3.913425   2.520762   1.538245   2.506000
    12  C    4.624819   2.964532   2.513686   1.552419   2.529181
    13  H    3.501939   2.136830   2.757466   3.370774   4.412099
    14  H    2.132282   3.508414   4.685471   4.982438   5.441994
    15  H    2.821263   2.986536   4.361150   5.492009   6.009927
    16  H    3.496026   3.592841   4.717934   5.647973   6.470210
    17  H    2.758611   4.236080   5.653029   6.505371   6.970573
    18  H    1.096277   4.153233   5.615790   6.045719   5.958076
    19  H    1.096840   2.883755   4.348933   4.976099   4.802276
    20  H    1.093643   3.350400   4.578927   4.661025   4.372311
    21  H    3.407000   1.096380   2.163141   3.517212   4.112957
    22  H    2.765824   1.096006   2.167391   2.877361   2.843224
    23  H    5.142023   2.160381   1.100297   2.165143   3.484990
    24  H    5.152982   2.167610   1.098323   2.174127   2.755637
    25  H    5.479510   3.494195   2.784129   2.186802   1.096851
    26  H    5.602341   4.131895   3.502365   2.183548   1.096345
    27  H    3.987402   2.852765   2.848635   2.207323   1.095343
    28  H    6.869496   4.169735   2.758443   2.189651   3.476868
    29  H    6.992924   4.254112   2.787814   2.185010   2.749545
    30  H    7.026503   4.749213   3.487719   2.187458   2.759483
    31  H    5.223247   3.375330   2.792578   2.171150   3.472603
    32  H    5.219475   3.950466   3.482807   2.203055   2.731525
                   11         12         13         14         15
    11  C    0.000000
    12  C    2.521304   0.000000
    13  H    4.479882   2.777421   0.000000
    14  H    6.354973   4.091698   2.493882   0.000000
    15  H    6.776092   5.399142   3.033726   3.075361   0.000000
    16  H    6.815541   5.140197   2.424807   2.500428   1.772412
    17  H    7.864873   6.028924   3.663544   2.481216   1.765536
    18  H    7.571125   5.605573   4.313259   2.441006   3.180101
    19  H    6.481193   4.973721   3.856818   3.065853   2.636132
    20  H    6.189820   4.253558   3.831587   2.494668   3.824500
    21  H    4.678694   3.951085   2.459786   3.851667   2.350106
    22  H    4.295549   3.398962   3.053342   3.786409   3.332398
    23  H    2.674247   2.785216   2.577022   4.895001   4.479509
    24  H    2.778000   3.472377   3.754439   5.601698   4.835797
    25  H    2.775986   3.493256   5.098988   6.253256   6.366312
    26  H    2.722284   2.796455   5.139794   6.013973   6.957563
    27  H    3.482991   2.776819   4.222952   4.788939   5.453900
    28  H    1.096913   2.780747   4.322979   6.446866   6.798830
    29  H    1.097045   3.488498   5.187605   7.102760   7.147633
    30  H    1.096731   2.767246   5.174563   6.826157   7.616835
    31  H    2.672719   1.100999   2.609510   4.315870   5.538904
    32  H    2.834272   1.095052   3.757172   4.681677   6.353208
                   16         17         18         19         20
    16  H    0.000000
    17  H    1.770484   0.000000
    18  H    3.774357   2.554634   0.000000
    19  H    3.818882   3.094691   1.764590   0.000000
    20  H    4.346343   3.769858   1.768398   1.779371   0.000000
    21  H    3.230132   3.909019   4.316608   2.991323   3.934466
    22  H    4.257800   4.490229   3.824521   2.324308   2.848724
    23  H    4.533837   5.764596   6.159054   5.033070   5.295653
    24  H    5.466331   6.304804   6.216753   4.741562   5.209081
    25  H    7.036597   7.512032   6.534512   5.169182   5.038399
    26  H    7.288401   7.777200   6.606970   5.625947   4.914715
    27  H    6.030212   6.281680   5.005164   3.896318   3.380835
    28  H    6.628595   7.879566   7.920613   6.909402   6.685468
    29  H    7.398468   8.400903   8.087497   6.815340   6.725661
    30  H    7.573450   8.568319   8.078684   7.109195   6.574647
    31  H    4.996880   6.156204   6.157190   5.609086   5.012906
    32  H    6.052403   6.831467   6.142692   5.653213   4.652421
                   21         22         23         24         25
    21  H    0.000000
    22  H    1.753370   0.000000
    23  H    2.462751   3.066158   0.000000
    24  H    2.489345   2.478869   1.759273   0.000000
    25  H    4.299568   3.100253   3.750883   2.539345   0.000000
    26  H    5.154529   3.855062   4.319634   3.754815   1.772091
    27  H    3.849969   2.282348   3.869930   3.154269   1.771595
    28  H    4.794461   4.785848   2.449896   3.127816   3.782550
    29  H    4.892173   4.520728   3.026547   2.594567   2.566272
    30  H    5.614040   5.027291   3.692221   3.789590   3.143808
    31  H    4.180465   4.070589   2.612323   3.792843   4.323846
    32  H    4.982754   4.208583   3.805754   4.333206   3.766413
                   26         27         28         29         30
    26  H    0.000000
    27  H    1.763436   0.000000
    28  H    3.745310   4.353574   0.000000
    29  H    3.052104   3.782077   1.772650   0.000000
    30  H    2.518636   3.761019   1.772974   1.771614   0.000000
    31  H    3.746676   3.818221   2.473878   3.702799   2.988287
    32  H    2.551816   3.021017   3.219814   3.830690   2.637443
                   31         32
    31  H    0.000000
    32  H    1.771658   0.000000
 Stoichiometry    C11H20O
 Framework group  C1[X(C11H20O)]
 Deg. of freedom    90
 Full point group                 C1      NOp   1
 Largest Abelian subgroup         C1      NOp   1
 Largest concise Abelian subgroup C1      NOp   1
                         Standard orientation:                         
 ---------------------------------------------------------------------
 Center     Atomic      Atomic             Coordinates (Angstroms)
 Number     Number       Type             X           Y           Z
 ---------------------------------------------------------------------
      1          8           0       -0.551452    2.198312   -0.342997
      2          6           0       -0.090340    1.087306   -0.535132
      3          6           0       -0.939007   -0.188348   -0.503784
      4          6           0       -2.431720    0.085253   -0.199112
      5          6           0       -3.319393   -1.092583   -0.630214
      6          6           0       -2.702253    0.467786    1.265119
      7          6           0       -0.254664   -1.245582    0.398434
      8          6           0        1.217553   -1.467962    0.022423
      9          6           0        2.069850   -0.176700    0.048050
     10          6           0        2.195214    0.375982    1.482340
     11          6           0        3.477483   -0.477969   -0.494170
     12          6           0        1.384742    0.879845   -0.859884
     13          1           0       -0.878729   -0.581606   -1.534367
     14          1           0       -2.705997    0.953759   -0.811042
     15          1           0       -3.110852   -1.997082   -0.045224
     16          1           0       -3.176856   -1.339341   -1.689749
     17          1           0       -4.378591   -0.849774   -0.485269
     18          1           0       -3.749139    0.769000    1.388100
     19          1           0       -2.525488   -0.372981    1.946970
     20          1           0       -2.075521    1.308215    1.576473
     21          1           0       -0.797860   -2.194773    0.320814
     22          1           0       -0.326585   -0.936742    1.447564
     23          1           0        1.267177   -1.899923   -0.988320
     24          1           0        1.662783   -2.211274    0.697383
     25          1           0        2.639694   -0.371957    2.150252
     26          1           0        2.838366    1.263722    1.498033
     27          1           0        1.228326    0.670271    1.904594
     28          1           0        3.433656   -0.883272   -1.512515
     29          1           0        3.991313   -1.213160    0.137479
     30          1           0        4.093709    0.428915   -0.519575
     31          1           0        1.448317    0.539552   -1.905043
     32          1           0        1.889112    1.849791   -0.797005
 ---------------------------------------------------------------------
 Rotational constants (GHZ):           1.6375452           0.5908928           0.5334492
 Standard basis: 6-31G(d) (6D, 7F)
 There are   220 symmetry adapted cartesian basis functions of A   symmetry.
 There are   220 symmetry adapted basis functions of A   symmetry.
   220 basis functions,   416 primitive gaussians,   220 cartesian basis functions
    47 alpha electrons       47 beta electrons
       nuclear repulsion energy       773.2230106588 Hartrees.
 NAtoms=   32 NActive=   32 NUniq=   32 SFac= 1.00D+00 NAtFMM=   60 NAOKFM=F Big=F
 Integral buffers will be    131072 words long.
 Raffenetti 2 integral format.
 Two-electron integral symmetry is turned on.
 One-electron integrals computed using PRISM.
 NBasis=   220 RedAO= T EigKep=  2.49D-03  NBF=   220
 NBsUse=   220 1.00D-06 EigRej= -1.00D+00 NBFU=   220
 ExpMin= 1.61D-01 ExpMax= 5.48D+03 ExpMxC= 8.25D+02 IAcc=3 IRadAn=         5 AccDes= 0.00D+00
 Harris functional with IExCor=  402 and IRadAn=       5 diagonalized for initial guess.
 HarFok:  IExCor=  402 AccDes= 0.00D+00 IRadAn=         5 IDoV= 1 UseB2=F ITyADJ=14
 ICtDFT=  3500011 ScaDFX=  1.000000  1.000000  1.000000  1.000000
 FoFCou: FMM=F IPFlag=           0 FMFlag=      100000 FMFlg1=           0
         NFxFlg=           0 DoJE=T BraDBF=F KetDBF=T FulRan=T
         wScrn=  0.000000 ICntrl=       500 IOpCl=  0 I1Cent=   200000004 NGrid=           0
         NMat0=    1 NMatS0=      1 NMatT0=    0 NMatD0=    1 NMtDS0=    0 NMtDT0=    0
 Petite list used in FoFCou.
 Requested convergence on RMS density matrix=1.00D-08 within 128 cycles.
 Requested convergence on MAX density matrix=1.00D-06.
 Requested convergence on             energy=1.00D-06.
 No special actions if energy rises.
 Integral accuracy reduced to 1.0D-05 until final iterations.
 Initial convergence to 1.0D-05 achieved.  Increase integral accuracy.
 SCF Done:  E(RB3LYP) =  -506.458963743     A.U. after   13 cycles
            NFock= 13  Conv=0.81D-08     -V/T= 2.0099
 DoSCS=F DFT=T ScalE2(SS,OS)=  1.000000  1.000000
 Range of M.O.s used for correlation:     1   220
 NBasis=   220 NAE=    47 NBE=    47 NFC=     0 NFV=     0
 NROrb=    220 NOA=    47 NOB=    47 NVA=   173 NVB=   173
 Symmetrizing basis deriv contribution to polar:
 IMax=3 JMax=2 DiffMx= 0.00D+00
 G2DrvN: will do    33 centers at a time, making    1 passes.
 Calling FoFCou, ICntrl=  3107 FMM=F I1Cent=   0 AccDes= 0.00D+00.
 End of G2Drv F.D. properties file   721 does not exist.
 End of G2Drv F.D. properties file   722 does not exist.
 End of G2Drv F.D. properties file   788 does not exist.
          IDoAtm=11111111111111111111111111111111
          Differentiating once with respect to electric field.
                with respect to dipole field.
          Differentiating once with respect to nuclear coordinates.
 Keep R1 ints in memory in canonical form, NReq=306010929.
          There are    99 degrees of freedom in the 1st order CPHF.  IDoFFX=6 NUNeed=     3.
     96 vectors produced by pass  0 Test12= 8.21D-15 1.01D-09 XBig12= 8.11D+01 1.82D+00.
 AX will form    96 AO Fock derivatives at one time.
     96 vectors produced by pass  1 Test12= 8.21D-15 1.01D-09 XBig12= 7.50D+00 4.76D-01.
     96 vectors produced by pass  2 Test12= 8.21D-15 1.01D-09 XBig12= 3.17D-02 1.99D-02.
     96 vectors produced by pass  3 Test12= 8.21D-15 1.01D-09 XBig12= 5.86D-05 1.05D-03.
     96 vectors produced by pass  4 Test12= 8.21D-15 1.01D-09 XBig12= 5.27D-08 2.80D-05.
     43 vectors produced by pass  5 Test12= 8.21D-15 1.01D-09 XBig12= 3.26D-11 5.72D-07.
      3 vectors produced by pass  6 Test12= 8.21D-15 1.01D-09 XBig12= 2.01D-14 1.94D-08.
 InvSVY:  IOpt=1 It=  1 EMax= 5.33D-15
 Solved reduced A of dimension   526 with    99 vectors.
 Isotropic polarizability for W=    0.000000      113.93 Bohr**3.
 End of Minotr F.D. properties file   721 does not exist.
 End of Minotr F.D. properties file   722 does not exist.
 End of Minotr F.D. properties file   788 does not exist.

 **********************************************************************

            Population analysis using the SCF density.

 **********************************************************************

 Orbital symmetries:
       Occupied  (A) (A) (A) (A) (A) (A) (A) (A) (A) (A) (A) (A)
                 (A) (A) (A) (A) (A) (A) (A) (A) (A) (A) (A) (A)
                 (A) (A) (A) (A) (A) (A) (A) (A) (A) (A) (A) (A)
                 (A) (A) (A) (A) (A) (A) (A) (A) (A) (A) (A)
       Virtual   (A) (A) (A) (A) (A) (A) (A) (A) (A) (A) (A) (A)
                 (A) (A) (A) (A) (A) (A) (A) (A) (A) (A) (A) (A)
                 (A) (A) (A) (A) (A) (A) (A) (A) (A) (A) (A) (A)
                 (A) (A) (A) (A) (A) (A) (A) (A) (A) (A) (A) (A)
                 (A) (A) (A) (A) (A) (A) (A) (A) (A) (A) (A) (A)
                 (A) (A) (A) (A) (A) (A) (A) (A) (A) (A) (A) (A)
                 (A) (A) (A) (A) (A) (A) (A) (A) (A) (A) (A) (A)
                 (A) (A) (A) (A) (A) (A) (A) (A) (A) (A) (A) (A)
                 (A) (A) (A) (A) (A) (A) (A) (A) (A) (A) (A) (A)
                 (A) (A) (A) (A) (A) (A) (A) (A) (A) (A) (A) (A)
                 (A) (A) (A) (A) (A) (A) (A) (A) (A) (A) (A) (A)
                 (A) (A) (A) (A) (A) (A) (A) (A) (A) (A) (A) (A)
                 (A) (A) (A) (A) (A) (A) (A) (A) (A) (A) (A) (A)
                 (A) (A) (A) (A) (A) (A) (A) (A) (A) (A) (A) (A)
                 (A) (A) (A) (A) (A)
 The electronic state is 1-A.
 Alpha  occ. eigenvalues --  -19.13343 -10.26648 -10.20641 -10.19277 -10.18923
 Alpha  occ. eigenvalues --  -10.18675 -10.18614 -10.18456 -10.17846 -10.17725
 Alpha  occ. eigenvalues --  -10.17166 -10.16451  -1.03191  -0.84579  -0.80650
 Alpha  occ. eigenvalues --   -0.75278  -0.72703  -0.68896  -0.68083  -0.67657
 Alpha  occ. eigenvalues --   -0.61805  -0.56958  -0.54620  -0.51468  -0.47108
 Alpha  occ. eigenvalues --   -0.46004  -0.45729  -0.45363  -0.44158  -0.42781
 Alpha  occ. eigenvalues --   -0.41587  -0.40405  -0.39834  -0.39335  -0.38254
 Alpha  occ. eigenvalues --   -0.37347  -0.37309  -0.36547  -0.35720  -0.34679
 Alpha  occ. eigenvalues --   -0.33826  -0.32595  -0.32154  -0.31765  -0.30981
 Alpha  occ. eigenvalues --   -0.30357  -0.23321
 Alpha virt. eigenvalues --   -0.01186   0.07522   0.08904   0.10317   0.12198
 Alpha virt. eigenvalues --    0.12731   0.13289   0.13628   0.14507   0.15380
 Alpha virt. eigenvalues --    0.15768   0.16393   0.16960   0.17772   0.18362
 Alpha virt. eigenvalues --    0.18872   0.19356   0.20133   0.20351   0.20839
 Alpha virt. eigenvalues --    0.21427   0.22378   0.23079   0.23543   0.24733
 Alpha virt. eigenvalues --    0.25638   0.26459   0.27181   0.28052   0.28462
 Alpha virt. eigenvalues --    0.29696   0.34464   0.37446   0.48637   0.49177
 Alpha virt. eigenvalues --    0.50739   0.51578   0.52207   0.52894   0.53805
 Alpha virt. eigenvalues --    0.55362   0.57807   0.60477   0.61320   0.62895
 Alpha virt. eigenvalues --    0.64963   0.65810   0.66513   0.67291   0.69055
 Alpha virt. eigenvalues --    0.69798   0.71387   0.73118   0.73546   0.73809
 Alpha virt. eigenvalues --    0.76580   0.77548   0.80831   0.81806   0.83209
 Alpha virt. eigenvalues --    0.84976   0.85166   0.85959   0.87037   0.87450
 Alpha virt. eigenvalues --    0.88844   0.89447   0.90474   0.90565   0.91310
 Alpha virt. eigenvalues --    0.91790   0.92291   0.93152   0.93934   0.94195
 Alpha virt. eigenvalues --    0.94973   0.95440   0.96368   0.96582   0.97991
 Alpha virt. eigenvalues --    0.98974   1.00046   1.01002   1.02580   1.04942
 Alpha virt. eigenvalues --    1.10466   1.12992   1.15279   1.16483   1.18133
 Alpha virt. eigenvalues --    1.20478   1.24926   1.34390   1.35769   1.42836
 Alpha virt. eigenvalues --    1.43297   1.45095   1.47522   1.49803   1.56219
 Alpha virt. eigenvalues --    1.58632   1.63068   1.63464   1.66536   1.69857
 Alpha virt. eigenvalues --    1.72776   1.74068   1.74776   1.76933   1.78871
 Alpha virt. eigenvalues --    1.81407   1.82400   1.84154   1.85222   1.85979
 Alpha virt. eigenvalues --    1.88425   1.89391   1.91296   1.93468   1.96878
 Alpha virt. eigenvalues --    2.00127   2.00332   2.01722   2.02865   2.04033
 Alpha virt. eigenvalues --    2.07686   2.08002   2.09531   2.11144   2.12138
 Alpha virt. eigenvalues --    2.13397   2.14535   2.18286   2.19675   2.22416
 Alpha virt. eigenvalues --    2.24343   2.26334   2.27262   2.27784   2.29331
 Alpha virt. eigenvalues --    2.33097   2.38165   2.40558   2.42741   2.43608
 Alpha virt. eigenvalues --    2.46419   2.51803   2.53761   2.57202   2.57328
 Alpha virt. eigenvalues --    2.62688   2.65772   2.69810   2.71450   2.73813
 Alpha virt. eigenvalues --    2.75204   2.75869   2.82705   2.87353   3.00143
 Alpha virt. eigenvalues --    3.05412   4.05066   4.11343   4.19077   4.26979
 Alpha virt. eigenvalues --    4.29146   4.30621   4.31161   4.44153   4.56528
 Alpha virt. eigenvalues --    4.59834   4.67004   4.72299
          Condensed to atoms (all electrons):
               1          2          3          4          5          6
     1  O    8.030899   0.561986  -0.091377   0.003389   0.000455  -0.005426
     2  C    0.561986   4.534961   0.294106  -0.025025   0.004175  -0.004852
     3  C   -0.091377   0.294106   5.295998   0.351511  -0.039471  -0.039304
     4  C    0.003389  -0.025025   0.351511   4.872155   0.359189   0.379225
     5  C    0.000455   0.004175  -0.039471   0.359189   5.134484  -0.055848
     6  C   -0.005426  -0.004852  -0.039304   0.379225  -0.055848   5.121320
     7  C    0.000855  -0.026118   0.347333  -0.036483  -0.004577  -0.008441
     8  C    0.000172  -0.013608  -0.035590   0.003746   0.000040   0.000230
     9  C    0.000252  -0.021038  -0.005539   0.000166  -0.000007  -0.000009
    10  C    0.000229  -0.001308  -0.001649  -0.000015  -0.000001  -0.000047
    11  C   -0.000057   0.003015   0.000065   0.000004   0.000000  -0.000000
    12  C   -0.071666   0.335981  -0.123974   0.005514  -0.000126  -0.000098
    13  H    0.001418  -0.037440   0.349739  -0.039856  -0.005655   0.005348
    14  H    0.010122  -0.004304  -0.050144   0.380150  -0.045486  -0.042559
    15  H   -0.000008  -0.000046  -0.007176  -0.029404   0.367662  -0.005383
    16  H    0.000006   0.000034  -0.004573  -0.030558   0.368406   0.005235
    17  H    0.000003  -0.000077   0.004437  -0.030244   0.371911  -0.002923
    18  H    0.000076   0.000034   0.004856  -0.029755  -0.003109   0.369987
    19  H    0.000116   0.000063  -0.007821  -0.034354  -0.005510   0.369279
    20  H    0.009380   0.003330  -0.006354  -0.028988   0.005162   0.369065
    21  H   -0.000071   0.003319  -0.033214  -0.002974   0.001891  -0.000614
    22  H    0.000356  -0.004975  -0.040191  -0.006200   0.000021   0.003934
    23  H   -0.000001  -0.001033  -0.004819  -0.000014  -0.000008   0.000003
    24  H    0.000002   0.000271   0.004239  -0.000127  -0.000000   0.000003
    25  H    0.000004   0.000050   0.000092  -0.000001   0.000000   0.000001
    26  H    0.000013  -0.000306   0.000026  -0.000000   0.000000   0.000000
    27  H    0.000368   0.005437  -0.000339  -0.000042   0.000001   0.000091
    28  H    0.000000   0.000037  -0.000019   0.000000   0.000000  -0.000000
    29  H    0.000001  -0.000099   0.000014  -0.000000  -0.000000   0.000000
    30  H   -0.000000   0.000050  -0.000007  -0.000000   0.000000  -0.000000
    31  H    0.001416  -0.028687   0.001925  -0.000064  -0.000004  -0.000001
    32  H    0.005119  -0.022478   0.006617  -0.000141   0.000002   0.000005
               7          8          9         10         11         12
     1  O    0.000855   0.000172   0.000252   0.000229  -0.000057  -0.071666
     2  C   -0.026118  -0.013608  -0.021038  -0.001308   0.003015   0.335981
     3  C    0.347333  -0.035590  -0.005539  -0.001649   0.000065  -0.123974
     4  C   -0.036483   0.003746   0.000166  -0.000015   0.000004   0.005514
     5  C   -0.004577   0.000040  -0.000007  -0.000001   0.000000  -0.000126
     6  C   -0.008441   0.000230  -0.000009  -0.000047  -0.000000  -0.000098
     7  C    5.063178   0.356314  -0.032573  -0.003825   0.004763  -0.007731
     8  C    0.356314   5.090204   0.388426  -0.060509  -0.052950  -0.057459
     9  C   -0.032573   0.388426   4.767923   0.385121   0.378558   0.354991
    10  C   -0.003825  -0.060509   0.385121   5.165987  -0.064912  -0.066601
    11  C    0.004763  -0.052950   0.378558  -0.064912   5.160385  -0.049846
    12  C   -0.007731  -0.057459   0.354991  -0.066601  -0.049846   5.349351
    13  H   -0.046391  -0.001182  -0.002423   0.000114  -0.000067   0.002450
    14  H    0.005143  -0.000144  -0.000011  -0.000002   0.000000   0.000595
    15  H    0.001755  -0.000086  -0.000000   0.000000  -0.000000   0.000000
    16  H   -0.000165  -0.000017  -0.000000   0.000000  -0.000000   0.000001
    17  H    0.000038   0.000001   0.000000  -0.000000   0.000000   0.000002
    18  H    0.000160  -0.000003  -0.000000   0.000001   0.000000   0.000003
    19  H    0.002907  -0.000021   0.000005  -0.000017   0.000000   0.000013
    20  H   -0.000722  -0.000024  -0.000022  -0.000053   0.000000   0.000121
    21  H    0.368119  -0.029003   0.004378   0.000078  -0.000154  -0.000284
    22  H    0.374026  -0.036542  -0.007902   0.003299   0.000024   0.000402
    23  H   -0.040575   0.365025  -0.038519   0.006290  -0.006518  -0.004411
    24  H   -0.031109   0.358645  -0.032168  -0.006821  -0.004043   0.005834
    25  H   -0.000318  -0.005303  -0.029992   0.367797  -0.004257   0.005579
    26  H    0.000021   0.005500  -0.028324   0.367323  -0.005672  -0.004434
    27  H    0.001931  -0.005175  -0.027782   0.367057   0.005532  -0.006136
    28  H    0.000031  -0.005909  -0.027652   0.005783   0.364410  -0.005732
    29  H    0.000011  -0.005082  -0.028380  -0.004215   0.364916   0.005168
    30  H   -0.000163   0.005384  -0.027556  -0.004683   0.364890  -0.004609
    31  H   -0.000644  -0.004095  -0.031340   0.006444  -0.008273   0.342118
    32  H   -0.000194   0.005307  -0.026559  -0.005988  -0.004166   0.336143
              13         14         15         16         17         18
     1  O    0.001418   0.010122  -0.000008   0.000006   0.000003   0.000076
     2  C   -0.037440  -0.004304  -0.000046   0.000034  -0.000077   0.000034
     3  C    0.349739  -0.050144  -0.007176  -0.004573   0.004437   0.004856
     4  C   -0.039856   0.380150  -0.029404  -0.030558  -0.030244  -0.029755
     5  C   -0.005655  -0.045486   0.367662   0.368406   0.371911  -0.003109
     6  C    0.005348  -0.042559  -0.005383   0.005235  -0.002923   0.369987
     7  C   -0.046391   0.005143   0.001755  -0.000165   0.000038   0.000160
     8  C   -0.001182  -0.000144  -0.000086  -0.000017   0.000001  -0.000003
     9  C   -0.002423  -0.000011  -0.000000  -0.000000   0.000000  -0.000000
    10  C    0.000114  -0.000002   0.000000   0.000000  -0.000000   0.000001
    11  C   -0.000067   0.000000  -0.000000  -0.000000   0.000000   0.000000
    12  C    0.002450   0.000595   0.000000   0.000001   0.000002   0.000003
    13  H    0.627908  -0.001693  -0.000195   0.005763   0.000021  -0.000137
    14  H   -0.001693   0.608567   0.005303  -0.003047  -0.003638  -0.004536
    15  H   -0.000195   0.005303   0.583974  -0.032574  -0.031684  -0.000257
    16  H    0.005763  -0.003047  -0.032574   0.584688  -0.029672  -0.000044
    17  H    0.000021  -0.003638  -0.031684  -0.029672   0.573777   0.003936
    18  H   -0.000137  -0.004536  -0.000257  -0.000044   0.003936   0.578083
    19  H   -0.000033   0.005630   0.004731  -0.000008  -0.000214  -0.032665
    20  H    0.000088  -0.002919  -0.000069  -0.000179  -0.000005  -0.026674
    21  H   -0.007113  -0.000060   0.003888   0.000125  -0.000124  -0.000031
    22  H    0.006192   0.000066   0.000069   0.000020  -0.000014  -0.000073
    23  H    0.005523  -0.000002   0.000003  -0.000001  -0.000000   0.000000
    24  H   -0.000011   0.000002   0.000006   0.000000  -0.000000  -0.000000
    25  H    0.000000  -0.000000   0.000000   0.000000  -0.000000  -0.000000
    26  H    0.000000  -0.000000   0.000000   0.000000   0.000000  -0.000000
    27  H    0.000016   0.000001  -0.000000  -0.000000  -0.000000  -0.000002
    28  H   -0.000006   0.000000   0.000000  -0.000000  -0.000000   0.000000
    29  H   -0.000000  -0.000000   0.000000   0.000000  -0.000000  -0.000000
    30  H    0.000001   0.000000   0.000000   0.000000  -0.000000  -0.000000
    31  H    0.001822  -0.000044   0.000001  -0.000002  -0.000000   0.000000
    32  H   -0.000121  -0.000015   0.000000   0.000000  -0.000000  -0.000000
              19         20         21         22         23         24
     1  O    0.000116   0.009380  -0.000071   0.000356  -0.000001   0.000002
     2  C    0.000063   0.003330   0.003319  -0.004975  -0.001033   0.000271
     3  C   -0.007821  -0.006354  -0.033214  -0.040191  -0.004819   0.004239
     4  C   -0.034354  -0.028988  -0.002974  -0.006200  -0.000014  -0.000127
     5  C   -0.005510   0.005162   0.001891   0.000021  -0.000008  -0.000000
     6  C    0.369279   0.369065  -0.000614   0.003934   0.000003   0.000003
     7  C    0.002907  -0.000722   0.368119   0.374026  -0.040575  -0.031109
     8  C   -0.000021  -0.000024  -0.029003  -0.036542   0.365025   0.358645
     9  C    0.000005  -0.000022   0.004378  -0.007902  -0.038519  -0.032168
    10  C   -0.000017  -0.000053   0.000078   0.003299   0.006290  -0.006821
    11  C    0.000000   0.000000  -0.000154   0.000024  -0.006518  -0.004043
    12  C    0.000013   0.000121  -0.000284   0.000402  -0.004411   0.005834
    13  H   -0.000033   0.000088  -0.007113   0.006192   0.005523  -0.000011
    14  H    0.005630  -0.002919  -0.000060   0.000066  -0.000002   0.000002
    15  H    0.004731  -0.000069   0.003888   0.000069   0.000003   0.000006
    16  H   -0.000008  -0.000179   0.000125   0.000020  -0.000001   0.000000
    17  H   -0.000214  -0.000005  -0.000124  -0.000014  -0.000000  -0.000000
    18  H   -0.032665  -0.026674  -0.000031  -0.000073   0.000000  -0.000000
    19  H    0.592704  -0.030934   0.000244   0.002047  -0.000001   0.000006
    20  H   -0.030934   0.544238   0.000045   0.000694  -0.000000  -0.000001
    21  H    0.000244   0.000045   0.592382  -0.037480  -0.004578  -0.002270
    22  H    0.002047   0.000694  -0.037480   0.585965   0.005573  -0.003404
    23  H   -0.000001  -0.000000  -0.004578   0.005573   0.617797  -0.035657
    24  H    0.000006  -0.000001  -0.002270  -0.003404  -0.035657   0.605325
    25  H    0.000000  -0.000001  -0.000020   0.000440  -0.000002   0.004720
    26  H    0.000000  -0.000000   0.000001  -0.000112  -0.000174  -0.000038
    27  H   -0.000012   0.000504  -0.000029   0.003280  -0.000056  -0.000196
    28  H    0.000000  -0.000000  -0.000003  -0.000000   0.005517  -0.000200
    29  H   -0.000000  -0.000000   0.000003  -0.000004  -0.000158   0.004180
    30  H    0.000000   0.000000   0.000002   0.000002  -0.000003  -0.000099
    31  H   -0.000000  -0.000001  -0.000020   0.000045   0.003958  -0.000075
    32  H   -0.000000   0.000003   0.000018  -0.000033  -0.000095  -0.000159
              25         26         27         28         29         30
     1  O    0.000004   0.000013   0.000368   0.000000   0.000001  -0.000000
     2  C    0.000050  -0.000306   0.005437   0.000037  -0.000099   0.000050
     3  C    0.000092   0.000026  -0.000339  -0.000019   0.000014  -0.000007
     4  C   -0.000001  -0.000000  -0.000042   0.000000  -0.000000  -0.000000
     5  C    0.000000   0.000000   0.000001   0.000000  -0.000000   0.000000
     6  C    0.000001   0.000000   0.000091  -0.000000   0.000000  -0.000000
     7  C   -0.000318   0.000021   0.001931   0.000031   0.000011  -0.000163
     8  C   -0.005303   0.005500  -0.005175  -0.005909  -0.005082   0.005384
     9  C   -0.029992  -0.028324  -0.027782  -0.027652  -0.028380  -0.027556
    10  C    0.367797   0.367323   0.367057   0.005783  -0.004215  -0.004683
    11  C   -0.004257  -0.005672   0.005532   0.364410   0.364916   0.364890
    12  C    0.005579  -0.004434  -0.006136  -0.005732   0.005168  -0.004609
    13  H    0.000000   0.000000   0.000016  -0.000006  -0.000000   0.000001
    14  H   -0.000000  -0.000000   0.000001   0.000000  -0.000000   0.000000
    15  H    0.000000   0.000000  -0.000000   0.000000   0.000000   0.000000
    16  H    0.000000   0.000000  -0.000000  -0.000000   0.000000   0.000000
    17  H   -0.000000   0.000000  -0.000000  -0.000000  -0.000000  -0.000000
    18  H   -0.000000  -0.000000  -0.000002   0.000000  -0.000000  -0.000000
    19  H    0.000000   0.000000  -0.000012   0.000000  -0.000000   0.000000
    20  H   -0.000001  -0.000000   0.000504  -0.000000  -0.000000   0.000000
    21  H   -0.000020   0.000001  -0.000029  -0.000003   0.000003   0.000002
    22  H    0.000440  -0.000112   0.003280  -0.000000  -0.000004   0.000002
    23  H   -0.000002  -0.000174  -0.000056   0.005517  -0.000158  -0.000003
    24  H    0.004720  -0.000038  -0.000196  -0.000200   0.004180  -0.000099
    25  H    0.575910  -0.029759  -0.030173  -0.000048   0.003922  -0.000178
    26  H   -0.029759   0.569574  -0.029377  -0.000018  -0.000166   0.004446
    27  H   -0.030173  -0.029377   0.561992  -0.000190  -0.000052  -0.000052
    28  H   -0.000048  -0.000018  -0.000190   0.580482  -0.029833  -0.030141
    29  H    0.003922  -0.000166  -0.000052  -0.029833   0.577985  -0.030304
    30  H   -0.000178   0.004446  -0.000052  -0.030141  -0.030304   0.575826
    31  H   -0.000177  -0.000071   0.000015   0.005046   0.000069  -0.000182
    32  H    0.000003   0.004137  -0.000012  -0.000212  -0.000043   0.003594
              31         32
     1  O    0.001416   0.005119
     2  C   -0.028687  -0.022478
     3  C    0.001925   0.006617
     4  C   -0.000064  -0.000141
     5  C   -0.000004   0.000002
     6  C   -0.000001   0.000005
     7  C   -0.000644  -0.000194
     8  C   -0.004095   0.005307
     9  C   -0.031340  -0.026559
    10  C    0.006444  -0.005988
    11  C   -0.008273  -0.004166
    12  C    0.342118   0.336143
    13  H    0.001822  -0.000121
    14  H   -0.000044  -0.000015
    15  H    0.000001   0.000000
    16  H   -0.000002   0.000000
    17  H   -0.000000  -0.000000
    18  H    0.000000  -0.000000
    19  H   -0.000000  -0.000000
    20  H   -0.000001   0.000003
    21  H   -0.000020   0.000018
    22  H    0.000045  -0.000033
    23  H    0.003958  -0.000095
    24  H   -0.000075  -0.000159
    25  H   -0.000177   0.000003
    26  H   -0.000071   0.004137
    27  H    0.000015  -0.000012
    28  H    0.005046  -0.000212
    29  H    0.000069  -0.000043
    30  H   -0.000182   0.003594
    31  H    0.591485  -0.027886
    32  H   -0.027886   0.571232
 Mulliken charges:
               1
     1  O   -0.458030
     2  C    0.444546
     3  C   -0.169397
     4  C   -0.060805
     5  C   -0.453597
     6  C   -0.458223
     7  C   -0.286556
     8  C   -0.266292
     9  C    0.087978
    10  C   -0.454877
    11  C   -0.445647
    12  C   -0.341160
    13  H    0.135919
    14  H    0.143021
    15  H    0.139490
    16  H    0.136563
    17  H    0.144470
    18  H    0.140151
    19  H    0.133845
    20  H    0.164317
    21  H    0.143549
    22  H    0.150477
    23  H    0.126936
    24  H    0.133144
    25  H    0.141711
    26  H    0.147411
    27  H    0.153399
    28  H    0.138657
    29  H    0.142069
    30  H    0.143784
    31  H    0.147223
    32  H    0.155926
 Sum of Mulliken charges =  -0.00000
 Mulliken charges with hydrogens summed into heavy atoms:
               1
     1  O   -0.458030
     2  C    0.444546
     3  C   -0.033478
     4  C    0.082216
     5  C   -0.033074
     6  C   -0.019911
     7  C    0.007469
     8  C   -0.006213
     9  C    0.087978
    10  C   -0.012356
    11  C   -0.021136
    12  C   -0.038011
 APT charges:
               1
     1  O   -0.641835
     2  C    0.704165
     3  C   -0.058126
     4  C    0.140385
     5  C    0.066560
     6  C    0.037515
     7  C    0.092805
     8  C    0.097950
     9  C    0.138204
    10  C    0.040971
    11  C    0.068048
    12  C   -0.097057
    13  H   -0.041161
    14  H   -0.048367
    15  H   -0.020796
    16  H   -0.032055
    17  H   -0.035714
    18  H   -0.031405
    19  H   -0.022850
    20  H    0.005251
    21  H   -0.043738
    22  H   -0.023072
    23  H   -0.051440
    24  H   -0.054737
    25  H   -0.023005
    26  H   -0.020829
    27  H   -0.016663
    28  H   -0.026973
    29  H   -0.030996
    30  H   -0.027748
    31  H   -0.014474
    32  H   -0.028811
 Sum of APT charges =   0.00000
 APT charges with hydrogens summed into heavy atoms:
               1
     1  O   -0.641835
     2  C    0.704165
     3  C   -0.099287
     4  C    0.092017
     5  C   -0.022005
     6  C   -0.011489
     7  C    0.025995
     8  C   -0.008227
     9  C    0.138204
    10  C   -0.019526
    11  C   -0.017669
    12  C   -0.140342
 Electronic spatial extent (au):  <R**2>=           2433.4928
 Charge=             -0.0000 electrons
 Dipole moment (field-independent basis, Debye):
    X=              1.1739    Y=             -2.4674    Z=             -0.2829  Tot=              2.7470
 Quadrupole moment (field-independent basis, Debye-Ang):
   XX=            -74.8509   YY=            -83.1279   ZZ=            -74.8474
   XY=              2.0647   XZ=              0.0819   YZ=              0.3061
 Traceless Quadrupole moment (field-independent basis, Debye-Ang):
   XX=              2.7579   YY=             -5.5192   ZZ=              2.7613
   XY=              2.0647   XZ=              0.0819   YZ=              0.3061
 Octapole moment (field-independent basis, Debye-Ang**2):
  XXX=             -3.0138  YYY=             -9.8996  ZZZ=             -5.6278  XYY=              6.8783
  XXY=              6.3025  XXZ=              0.3475  XZZ=              0.5596  YZZ=              2.2952
  YYZ=              2.7604  XYZ=             -1.0737
 Hexadecapole moment (field-independent basis, Debye-Ang**3):
 XXXX=          -2262.3903 YYYY=           -656.4902 ZZZZ=           -423.7467 XXXY=            -10.5442
 XXXZ=              5.9220 YYYX=              8.6799 YYYZ=             -0.0543 ZZZX=              2.1918
 ZZZY=             -4.1755 XXYY=           -480.4109 XXZZ=           -454.0988 YYZZ=           -171.0233
 XXYZ=             -6.2412 YYXZ=             -0.6206 ZZXY=             -4.6589
 N-N= 7.732230106588D+02 E-N=-2.720056707605D+03  KE= 5.015133412310D+02
  Exact polarizability: 132.674  -1.359 109.065  -0.885   1.349 100.061
 Approx polarizability: 160.027  -6.342 169.704  -1.463   2.552 150.705
 Calling FoFJK, ICntrl=    100127 FMM=F ISym2X=0 I1Cent= 0 IOpClX= 0 NMat=1 NMatS=1 NMatT=0.
 Full mass-weighted force constant matrix:
 Low frequencies ---   -8.1379   -4.9722    0.0007    0.0008    0.0012    3.7033
 Low frequencies ---   52.2623   77.4875   96.7509
 Diagonal vibrational polarizability:
        7.8095025       3.6327292      10.2182161
 Harmonic frequencies (cm**-1), IR intensities (KM/Mole), Raman scattering
 activities (A**4/AMU), depolarization ratios for plane and unpolarized
 incident light, reduced masses (AMU), force constants (mDyne/A),
 and normal coordinates:
                      1                      2                      3
                      A                      A                      A
 Frequencies --     52.2515                77.4855                96.7496
 Red. masses --      3.2642                 2.4726                 4.3976
 Frc consts  --      0.0053                 0.0087                 0.0243
 IR Inten    --      0.2445                 0.0983                 2.3244
  Atom  AN      X      Y      Z        X      Y      Z        X      Y      Z
     1   8     0.03  -0.00   0.16    -0.03   0.02   0.05     0.13  -0.05   0.32
     2   6     0.00   0.00   0.05    -0.01   0.03   0.05     0.03  -0.04   0.01
     3   6     0.00   0.00   0.05     0.00   0.02  -0.00    -0.00  -0.01  -0.06
     4   6    -0.02  -0.01  -0.05    -0.01  -0.03  -0.06     0.00  -0.00  -0.04
     5   6     0.02  -0.00  -0.17     0.07  -0.15   0.10     0.00  -0.04   0.08
     6   6    -0.13  -0.07  -0.06    -0.07   0.17  -0.12     0.02   0.11  -0.06
     7   6    -0.01   0.08   0.15    -0.00   0.01  -0.01    -0.01  -0.05  -0.09
     8   6    -0.02   0.02   0.13    -0.01   0.00  -0.03     0.01  -0.01  -0.02
     9   6     0.02   0.00  -0.03     0.01  -0.01   0.00    -0.03   0.01  -0.04
    10   6     0.15   0.08  -0.07     0.07  -0.10   0.03    -0.16   0.14  -0.08
    11   6    -0.04  -0.08  -0.13    -0.02  -0.01  -0.07     0.02   0.03   0.08
    12   6    -0.02  -0.02  -0.03     0.00   0.05   0.08    -0.02  -0.08  -0.17
    13   1     0.07  -0.06   0.08     0.05   0.04  -0.01    -0.02   0.02  -0.07
    14   1     0.02   0.01  -0.04    -0.06  -0.13  -0.20    -0.02  -0.05  -0.10
    15   1     0.01  -0.03  -0.21     0.06  -0.02   0.29    -0.01   0.02   0.18
    16   1     0.09   0.06  -0.17     0.15  -0.35   0.16     0.01  -0.16   0.10
    17   1     0.01  -0.03  -0.21     0.05  -0.16  -0.02     0.00  -0.02   0.04
    18   1    -0.14  -0.08  -0.12    -0.11   0.06  -0.18     0.01   0.07  -0.07
    19   1    -0.18  -0.09  -0.08     0.03   0.30   0.01     0.06   0.17   0.00
    20   1    -0.16  -0.08   0.02    -0.18   0.30  -0.26    -0.01   0.15  -0.14
    21   1    -0.03   0.09   0.27    -0.01   0.01  -0.01     0.01  -0.06  -0.16
    22   1     0.03   0.20   0.12     0.01   0.00  -0.00    -0.06  -0.10  -0.08
    23   1    -0.07  -0.08   0.16    -0.04   0.04  -0.05     0.07  -0.05  -0.00
    24   1    -0.01   0.07   0.18    -0.01  -0.03  -0.07     0.00   0.03   0.03
    25   1     0.19   0.11  -0.06     0.09  -0.15  -0.04    -0.18   0.21   0.02
    26   1     0.18   0.07  -0.18     0.09  -0.11   0.06    -0.20   0.17  -0.11
    27   1     0.20   0.13  -0.01     0.09  -0.12   0.08    -0.21   0.13  -0.18
    28   1    -0.14  -0.13  -0.10    -0.06   0.05  -0.09     0.12  -0.04   0.11
    29   1    -0.01  -0.06  -0.13    -0.01  -0.06  -0.13     0.00   0.09   0.18
    30   1    -0.01  -0.10  -0.23     0.00  -0.02  -0.04    -0.01   0.05   0.07
    31   1    -0.09  -0.06  -0.02     0.02   0.14   0.05    -0.10  -0.23  -0.12
    32   1    -0.00  -0.03  -0.09    -0.01   0.05   0.16     0.02  -0.09  -0.30
                      4                      5                      6
                      A                      A                      A
 Frequencies --    171.9604               207.6717               217.0720
 Red. masses --      2.8576                 2.1380                 1.1756
 Frc consts  --      0.0498                 0.0543                 0.0326
 IR Inten    --      1.4899                 0.1683                 0.8155
  Atom  AN      X      Y      Z        X      Y      Z        X      Y      Z
     1   8     0.09   0.12  -0.04    -0.02   0.01   0.05     0.04   0.04  -0.03
     2   6     0.03   0.09  -0.01    -0.02   0.02  -0.03     0.01   0.02   0.01
     3   6     0.00   0.11   0.02    -0.02   0.02  -0.13    -0.01   0.03   0.01
     4   6    -0.01  -0.01   0.05    -0.01  -0.02  -0.06    -0.01   0.01   0.02
     5   6     0.16  -0.13   0.02    -0.00  -0.06   0.05     0.02  -0.01  -0.00
     6   6    -0.05  -0.11   0.07     0.15  -0.04  -0.03    -0.04  -0.02   0.02
     7   6    -0.03   0.08   0.00    -0.06   0.05  -0.07    -0.02  -0.02  -0.04
     8   6    -0.07   0.01  -0.05    -0.04   0.03   0.07     0.01  -0.01   0.03
     9   6    -0.04  -0.02  -0.03    -0.02   0.02   0.04     0.00  -0.01   0.01
    10   6    -0.10  -0.00  -0.03     0.06   0.04   0.03     0.02   0.01  -0.00
    11   6    -0.03  -0.11   0.05    -0.05  -0.09   0.01    -0.00   0.00   0.00
    12   6     0.02   0.01  -0.05     0.00   0.04   0.04    -0.01  -0.03  -0.01
    13   1    -0.00   0.12   0.02     0.00   0.03  -0.13    -0.02   0.07  -0.01
    14   1    -0.12  -0.02   0.07    -0.09  -0.03  -0.04    -0.02   0.01   0.03
    15   1     0.30  -0.11   0.00     0.25  -0.11  -0.11    -0.03   0.02   0.05
    16   1     0.20  -0.09   0.02    -0.27   0.07  -0.02     0.10  -0.05   0.02
    17   1     0.12  -0.30   0.02     0.01  -0.19   0.37     0.01   0.00  -0.10
    18   1    -0.10  -0.30   0.10     0.22   0.16   0.06    -0.07  -0.12   0.03
    19   1     0.12  -0.10   0.03     0.03  -0.11  -0.08     0.05   0.01   0.03
    20   1    -0.19  -0.00   0.08     0.33  -0.18  -0.01    -0.12   0.05   0.02
    21   1    -0.09   0.12   0.03    -0.05   0.04  -0.07    -0.01  -0.02  -0.13
    22   1     0.03   0.09   0.01    -0.14   0.09  -0.09    -0.07  -0.10  -0.02
    23   1    -0.12   0.04  -0.07     0.05  -0.04   0.11     0.06  -0.05   0.05
    24   1    -0.08  -0.02  -0.09    -0.10   0.08   0.16    -0.02   0.01   0.07
    25   1    -0.31  -0.06   0.05     0.19   0.09  -0.01     0.46   0.19  -0.10
    26   1     0.06  -0.12   0.02    -0.01   0.10  -0.04    -0.37   0.29  -0.09
    27   1    -0.09   0.19  -0.15     0.08  -0.03   0.11    -0.04  -0.43   0.18
    28   1     0.00  -0.16   0.07    -0.11  -0.03  -0.02     0.01   0.20  -0.08
    29   1    -0.11  -0.12   0.11    -0.13  -0.18  -0.04    -0.07  -0.15  -0.12
    30   1     0.03  -0.16   0.05     0.05  -0.16   0.05     0.06  -0.03   0.20
    31   1    -0.01  -0.01  -0.05     0.05   0.05   0.03    -0.05  -0.09   0.00
    32   1     0.08  -0.02  -0.07    -0.00   0.04   0.08     0.02  -0.04  -0.08
                      7                      8                      9
                      A                      A                      A
 Frequencies --    237.8206               251.3529               255.8330
 Red. masses --      1.2646                 1.2303                 1.1934
 Frc consts  --      0.0421                 0.0458                 0.0460
 IR Inten    --      0.0455                 0.0945                 0.6097
  Atom  AN      X      Y      Z        X      Y      Z        X      Y      Z
     1   8     0.02  -0.00  -0.01    -0.03   0.00   0.00    -0.03  -0.04   0.02
     2   6     0.01  -0.01   0.01     0.00   0.01   0.01    -0.01  -0.02  -0.01
     3   6     0.00  -0.00   0.04     0.03  -0.01   0.03    -0.00  -0.03   0.01
     4   6     0.00   0.01   0.01     0.04  -0.00  -0.01    -0.00  -0.01   0.00
     5   6     0.04  -0.02  -0.01     0.05  -0.01  -0.00    -0.03   0.02  -0.01
     6   6    -0.05   0.06  -0.01     0.04  -0.00  -0.01    -0.01   0.01  -0.01
     7   6     0.02   0.00   0.05     0.01   0.00   0.05     0.03   0.02   0.03
     8   6     0.00  -0.02  -0.02    -0.01  -0.00  -0.01     0.01   0.02  -0.03
     9   6    -0.00  -0.01  -0.02    -0.03   0.00  -0.02     0.02   0.02  -0.02
    10   6    -0.04  -0.05  -0.00    -0.07  -0.00  -0.02     0.00   0.02  -0.02
    11   6     0.01   0.06  -0.01    -0.03  -0.01  -0.02     0.02  -0.04   0.03
    12   6    -0.01  -0.03  -0.02    -0.01   0.02  -0.01     0.01   0.02  -0.01
    13   1     0.01  -0.03   0.05     0.06  -0.02   0.04    -0.00  -0.06   0.02
    14   1     0.01  -0.01  -0.02     0.06  -0.01  -0.02     0.01  -0.00  -0.00
    15   1     0.39  -0.14  -0.33    -0.12   0.07   0.18     0.01  -0.03  -0.09
    16   1    -0.26   0.30  -0.12     0.26  -0.18   0.06    -0.12   0.10  -0.04
    17   1     0.05  -0.24   0.41     0.04   0.08  -0.26    -0.02   0.01   0.10
    18   1    -0.01   0.26  -0.11     0.15   0.40  -0.09    -0.06  -0.18   0.03
    19   1    -0.28   0.03   0.01    -0.35  -0.13  -0.06     0.19   0.09   0.03
    20   1     0.08  -0.06   0.04     0.33  -0.27   0.13    -0.15   0.15  -0.08
    21   1     0.01   0.01   0.08    -0.01   0.01   0.07     0.03   0.01   0.10
    22   1     0.05   0.02   0.04     0.03   0.02   0.04     0.08   0.06   0.02
    23   1    -0.05   0.00  -0.03    -0.05  -0.00  -0.01    -0.02   0.05  -0.05
    24   1     0.02  -0.03  -0.05     0.02   0.00  -0.03     0.04   0.01  -0.07
    25   1     0.05  -0.03  -0.04    -0.07   0.01  -0.01    -0.10  -0.01   0.02
    26   1    -0.14   0.02   0.02    -0.09   0.02   0.00     0.09  -0.04  -0.00
    27   1    -0.06  -0.17   0.03    -0.08  -0.02  -0.04     0.01   0.13  -0.07
    28   1     0.05   0.12  -0.03    -0.03   0.20  -0.10     0.07   0.37  -0.13
    29   1     0.03   0.04  -0.04    -0.13  -0.19  -0.15    -0.22  -0.41  -0.19
    30   1    -0.02   0.08   0.05     0.06  -0.07   0.19     0.22  -0.17   0.48
    31   1    -0.03  -0.05  -0.01    -0.02   0.04  -0.02     0.02   0.04  -0.02
    32   1     0.00  -0.03  -0.05     0.00   0.02   0.00    -0.02   0.04   0.01
                     10                     11                     12
                      A                      A                      A
 Frequencies --    259.4636               274.2223               293.3485
 Red. masses --      2.1467                 2.3723                 1.5990
 Frc consts  --      0.0851                 0.1051                 0.0811
 IR Inten    --      1.1813                 0.6930                 1.0519
  Atom  AN      X      Y      Z        X      Y      Z        X      Y      Z
     1   8    -0.05  -0.02   0.01     0.09   0.01   0.03     0.06   0.04  -0.03
     2   6    -0.01  -0.00   0.02     0.00  -0.01  -0.08     0.01   0.01   0.01
     3   6     0.05  -0.02   0.02    -0.03   0.01  -0.07    -0.01   0.02  -0.01
     4   6     0.07   0.01  -0.01    -0.04  -0.02  -0.05    -0.01   0.01   0.01
     5   6     0.10   0.03  -0.08    -0.08  -0.02   0.03     0.02  -0.01   0.00
     6   6     0.17   0.04  -0.01     0.05  -0.07  -0.02    -0.01  -0.00   0.01
     7   6    -0.01  -0.01   0.07     0.00   0.16   0.09    -0.03  -0.05  -0.06
     8   6    -0.03  -0.04   0.05    -0.04   0.01   0.01     0.02  -0.04   0.10
     9   6    -0.07  -0.02  -0.00     0.00  -0.01  -0.00    -0.01  -0.01   0.04
    10   6    -0.10  -0.03   0.00    -0.01  -0.13   0.05     0.01   0.00   0.03
    11   6    -0.09   0.03  -0.07     0.03   0.13   0.01    -0.04   0.10  -0.08
    12   6    -0.04   0.00   0.01    -0.00  -0.05  -0.05    -0.02  -0.06   0.00
    13   1     0.09  -0.05   0.04    -0.01  -0.10  -0.02    -0.02   0.07  -0.03
    14   1     0.09   0.02  -0.00    -0.08  -0.02  -0.03    -0.02   0.01   0.01
    15   1     0.12  -0.02  -0.15    -0.18   0.04   0.17     0.04  -0.01  -0.01
    16   1     0.12   0.12  -0.10    -0.04  -0.18   0.07     0.02   0.01  -0.00
    17   1     0.09  -0.01  -0.08    -0.07   0.07  -0.06     0.01  -0.04   0.01
    18   1     0.09  -0.29   0.15     0.05  -0.12   0.08    -0.01  -0.00   0.00
    19   1     0.56   0.17   0.05     0.13  -0.09  -0.07    -0.01  -0.00   0.01
    20   1    -0.04   0.27  -0.21     0.04  -0.06  -0.03    -0.01  -0.00   0.02
    21   1    -0.05   0.01   0.11    -0.06   0.18   0.36    -0.01  -0.05  -0.19
    22   1     0.02   0.03   0.06     0.12   0.40   0.02    -0.14  -0.14  -0.04
    23   1    -0.05  -0.09   0.07    -0.12  -0.00   0.01     0.13  -0.16   0.16
    24   1     0.00   0.00   0.07    -0.06  -0.01   0.00    -0.03   0.06   0.24
    25   1    -0.02   0.01  -0.01     0.05  -0.20  -0.06    -0.31  -0.12   0.11
    26   1    -0.21   0.05   0.02    -0.04  -0.11   0.14     0.29  -0.20   0.08
    27   1    -0.13  -0.15   0.02    -0.00  -0.23   0.11     0.05   0.32  -0.09
    28   1    -0.15   0.01  -0.05     0.11   0.25  -0.04    -0.10   0.38  -0.19
    29   1    -0.01   0.07  -0.09     0.09   0.11  -0.06     0.00  -0.07  -0.32
    30   1    -0.14   0.06  -0.13    -0.05   0.19   0.13    -0.04   0.11   0.12
    31   1    -0.05   0.02   0.00     0.02  -0.14  -0.02    -0.06  -0.15   0.03
    32   1    -0.00  -0.01   0.02     0.01  -0.05  -0.11     0.02  -0.07  -0.09
                     13                     14                     15
                      A                      A                      A
 Frequencies --    347.5519               374.2307               387.8186
 Red. masses --      2.4281                 2.9726                 2.6395
 Frc consts  --      0.1728                 0.2453                 0.2339
 IR Inten    --      0.2808                 1.6916                 0.6202
  Atom  AN      X      Y      Z        X      Y      Z        X      Y      Z
     1   8    -0.09  -0.05   0.02     0.07   0.14  -0.04     0.14  -0.09  -0.02
     2   6    -0.07  -0.03  -0.03    -0.03   0.07   0.14     0.05  -0.11  -0.05
     3   6    -0.06   0.02  -0.02    -0.02   0.01   0.11    -0.04  -0.05  -0.01
     4   6    -0.02   0.05   0.05    -0.06  -0.11  -0.04    -0.02   0.02   0.02
     5   6     0.13  -0.01  -0.07    -0.12  -0.08  -0.08     0.04  -0.01  -0.02
     6   6     0.04   0.07   0.07     0.13   0.02  -0.05    -0.00   0.01   0.03
     7   6    -0.05   0.02  -0.04     0.00  -0.06   0.05    -0.05  -0.02   0.02
     8   6    -0.04   0.01  -0.03    -0.03  -0.05  -0.08    -0.08   0.08  -0.12
     9   6    -0.02   0.00   0.00    -0.02  -0.04   0.01    -0.03   0.04   0.11
    10   6     0.15  -0.04   0.01     0.06   0.07  -0.04     0.02   0.11   0.10
    11   6     0.04   0.04   0.11     0.01   0.02   0.06    -0.11   0.03  -0.05
    12   6    -0.07  -0.07  -0.07    -0.06  -0.06   0.05     0.05  -0.02   0.05
    13   1    -0.13   0.02  -0.02     0.12   0.09   0.09    -0.09  -0.12   0.02
    14   1    -0.04   0.06   0.06    -0.04  -0.12  -0.07    -0.01   0.02   0.03
    15   1     0.15   0.00  -0.07    -0.18  -0.13  -0.14     0.06  -0.01  -0.02
    16   1     0.36   0.04  -0.05    -0.14  -0.02  -0.10     0.12   0.00  -0.01
    17   1     0.07  -0.15  -0.27    -0.10  -0.01  -0.06     0.02  -0.08  -0.08
    18   1     0.07   0.15   0.11     0.18   0.15   0.11     0.00   0.02   0.04
    19   1     0.02   0.08   0.08     0.17   0.07  -0.00    -0.00   0.01   0.03
    20   1     0.11   0.04   0.01     0.27  -0.01  -0.25     0.01   0.01   0.02
    21   1    -0.04   0.01  -0.03    -0.03  -0.04   0.01    -0.02  -0.04   0.05
    22   1    -0.04   0.03  -0.04     0.09  -0.14   0.08     0.01   0.00   0.01
    23   1    -0.03   0.04  -0.04    -0.12   0.13  -0.16    -0.18   0.41  -0.27
    24   1    -0.07  -0.02  -0.04     0.02  -0.17  -0.25    -0.03  -0.16  -0.42
    25   1     0.14  -0.12  -0.08     0.08   0.13   0.02     0.09   0.17   0.13
    26   1     0.28  -0.13  -0.04     0.11   0.04  -0.21     0.00   0.12  -0.01
    27   1     0.24   0.07   0.14     0.11   0.18  -0.01     0.04   0.12   0.13
    28   1     0.20   0.05   0.10     0.11   0.05   0.04    -0.30   0.09  -0.07
    29   1    -0.02   0.06   0.18     0.00   0.03   0.07    -0.01  -0.01  -0.19
    30   1     0.01   0.06   0.22    -0.03   0.06   0.13    -0.10   0.03  -0.12
    31   1    -0.13  -0.23  -0.02    -0.22  -0.11   0.06     0.20  -0.04   0.06
    32   1    -0.06  -0.07  -0.24     0.01  -0.08  -0.07    -0.05   0.02   0.09
                     16                     17                     18
                      A                      A                      A
 Frequencies --    403.9488               423.9630               451.3830
 Red. masses --      2.1161                 2.2554                 2.6448
 Frc consts  --      0.2034                 0.2389                 0.3175
 IR Inten    --      0.0654                 2.2520                 0.9169
  Atom  AN      X      Y      Z        X      Y      Z        X      Y      Z
     1   8     0.01   0.04   0.00    -0.05   0.01  -0.00     0.11  -0.01  -0.00
     2   6    -0.01   0.03  -0.02     0.02   0.03   0.02     0.06  -0.01  -0.06
     3   6     0.01  -0.01   0.04     0.08  -0.00   0.03     0.02  -0.05   0.05
     4   6    -0.00  -0.06   0.02     0.11   0.06  -0.09     0.01  -0.05   0.02
     5   6    -0.05  -0.02  -0.04     0.04   0.08   0.11    -0.02  -0.02  -0.02
     6   6     0.01   0.03   0.00    -0.02  -0.09  -0.10     0.00   0.00   0.01
     7   6     0.07  -0.02  -0.00    -0.00  -0.06   0.03    -0.10  -0.11   0.06
     8   6     0.08   0.12   0.01    -0.03  -0.02  -0.04    -0.08   0.04   0.07
     9   6     0.01   0.13   0.03    -0.08   0.01   0.02    -0.09   0.07  -0.09
    10   6    -0.01  -0.07   0.12     0.07   0.00   0.02     0.06  -0.06  -0.08
    11   6    -0.06  -0.08  -0.02    -0.09   0.03   0.06    -0.06   0.05   0.08
    12   6    -0.04  -0.01  -0.12    -0.04  -0.03  -0.06     0.05   0.15  -0.08
    13   1     0.02  -0.00   0.03     0.15   0.00   0.03     0.02  -0.10   0.07
    14   1     0.02  -0.06   0.01     0.15   0.06  -0.10     0.02  -0.05   0.01
    15   1    -0.11  -0.07  -0.08     0.11   0.15   0.20    -0.06  -0.06  -0.05
    16   1    -0.04   0.03  -0.05    -0.18  -0.06   0.12    -0.03   0.02  -0.03
    17   1    -0.04   0.03  -0.05     0.08   0.15   0.30    -0.01   0.01  -0.01
    18   1     0.03   0.08  -0.01    -0.07  -0.25  -0.17     0.00   0.01  -0.00
    19   1    -0.00   0.08   0.07    -0.01  -0.19  -0.22     0.01   0.04   0.06
    20   1     0.05   0.03  -0.08    -0.16  -0.07   0.11     0.00   0.02  -0.04
    21   1     0.15  -0.06  -0.10    -0.03  -0.03  -0.03    -0.04  -0.13  -0.14
    22   1     0.01  -0.11   0.02     0.02  -0.10   0.04    -0.22  -0.24   0.09
    23   1     0.11   0.15  -0.01    -0.08   0.12  -0.10    -0.08  -0.09   0.12
    24   1     0.13   0.13  -0.02     0.03  -0.08  -0.16     0.03   0.18   0.14
    25   1    -0.05  -0.23  -0.04     0.11  -0.03  -0.05     0.09  -0.21  -0.26
    26   1     0.00  -0.08   0.35     0.15  -0.05  -0.06     0.14  -0.12  -0.02
    27   1    -0.03  -0.17   0.16     0.15   0.07   0.16     0.13  -0.07   0.10
    28   1    -0.23  -0.18   0.03    -0.05   0.03   0.05     0.13   0.02   0.08
    29   1    -0.15  -0.12   0.01    -0.10   0.03   0.07    -0.15   0.08   0.19
    30   1     0.11  -0.20  -0.17    -0.10   0.04   0.08    -0.07   0.06   0.17
    31   1    -0.13  -0.30  -0.03    -0.15  -0.21  -0.00     0.22   0.36  -0.14
    32   1    -0.03   0.01  -0.41     0.05  -0.06  -0.25    -0.04   0.18   0.19
                     19                     20                     21
                      A                      A                      A
 Frequencies --    495.5446               559.2669               616.8621
 Red. masses --      2.7946                 2.7156                 3.4732
 Frc consts  --      0.4043                 0.5004                 0.7787
 IR Inten    --      0.1948                 5.4837                 4.1367
  Atom  AN      X      Y      Z        X      Y      Z        X      Y      Z
     1   8    -0.01  -0.05  -0.03     0.13   0.02  -0.02     0.10  -0.04  -0.07
     2   6     0.01  -0.06   0.10    -0.09  -0.07   0.00    -0.02  -0.12   0.20
     3   6    -0.07   0.02   0.10    -0.09  -0.04   0.01     0.01  -0.05  -0.07
     4   6    -0.09   0.12  -0.10    -0.10   0.13  -0.06     0.15  -0.11   0.05
     5   6     0.02   0.00   0.02     0.04   0.04   0.01     0.05   0.04   0.02
     6   6     0.05  -0.04  -0.06     0.00  -0.01  -0.03     0.01  -0.01  -0.01
     7   6    -0.12  -0.04   0.07     0.13  -0.03   0.00    -0.05   0.11  -0.08
     8   6    -0.05   0.13   0.03     0.14  -0.03  -0.02    -0.06   0.15   0.00
     9   6     0.11   0.05  -0.03    -0.05   0.04  -0.03     0.00   0.06  -0.06
    10   6    -0.03  -0.02  -0.01    -0.00  -0.01  -0.03    -0.02  -0.03  -0.08
    11   6     0.15  -0.02  -0.06    -0.08  -0.01   0.04     0.01   0.00   0.01
    12   6     0.02  -0.01  -0.01    -0.14   0.00   0.07    -0.14  -0.05   0.13
    13   1     0.03   0.02   0.10    -0.11  -0.06   0.01     0.04   0.12  -0.13
    14   1    -0.07   0.11  -0.11    -0.03   0.14  -0.08     0.15  -0.09   0.07
    15   1     0.20   0.12   0.12     0.25   0.16   0.12    -0.12  -0.05  -0.05
    16   1     0.01  -0.11   0.04     0.11  -0.07   0.05    -0.02   0.10  -0.00
    17   1    -0.01  -0.15   0.05    -0.01  -0.19  -0.01     0.10   0.24   0.06
    18   1     0.07  -0.09   0.19     0.02  -0.04   0.16    -0.04  -0.04  -0.31
    19   1     0.18  -0.17  -0.25     0.10  -0.14  -0.21    -0.13   0.10   0.16
    20   1     0.11  -0.10  -0.01     0.06  -0.08   0.05    -0.12   0.08   0.01
    21   1     0.04  -0.11  -0.19     0.16  -0.06   0.17     0.02   0.06   0.02
    22   1    -0.26  -0.27   0.13     0.26   0.05  -0.01    -0.13   0.24  -0.13
    23   1    -0.14   0.16   0.02     0.24  -0.14   0.04    -0.04   0.06   0.04
    24   1    -0.04   0.08  -0.04     0.17   0.10   0.11    -0.11   0.19   0.08
    25   1    -0.12  -0.06   0.01     0.02  -0.05  -0.09    -0.05  -0.09  -0.13
    26   1    -0.08   0.02   0.19     0.02  -0.03  -0.03    -0.02  -0.03   0.01
    27   1    -0.12  -0.12  -0.15     0.03  -0.00   0.04    -0.03  -0.06  -0.10
    28   1     0.14  -0.03  -0.06    -0.05  -0.08   0.07     0.10  -0.05   0.03
    29   1     0.14  -0.02  -0.06    -0.20  -0.03   0.12    -0.10   0.01   0.11
    30   1     0.17  -0.03  -0.07     0.02  -0.08   0.03     0.06  -0.03   0.04
    31   1    -0.09  -0.06   0.00    -0.03   0.19   0.01    -0.36  -0.05   0.11
    32   1    -0.05   0.03  -0.13    -0.29   0.07   0.25    -0.24   0.01  -0.01
                     22                     23                     24
                      A                      A                      A
 Frequencies --    659.4868               733.0816               761.5636
 Red. masses --      3.8983                 2.2903                 2.7154
 Frc consts  --      0.9989                 0.7252                 0.9279
 IR Inten    --      3.6826                 2.6592                 1.1950
  Atom  AN      X      Y      Z        X      Y      Z        X      Y      Z
     1   8    -0.06  -0.16  -0.05     0.02   0.01  -0.03     0.03  -0.08  -0.01
     2   6     0.19  -0.06   0.19     0.06   0.01   0.12    -0.04  -0.09  -0.02
     3   6     0.05   0.11   0.07    -0.01  -0.09  -0.06     0.00   0.15   0.19
     4   6    -0.11   0.06  -0.03    -0.01   0.02  -0.01     0.03  -0.04   0.02
     5   6    -0.08  -0.07  -0.03    -0.00   0.00  -0.00     0.02  -0.00   0.01
     6   6    -0.01   0.02   0.02    -0.01   0.01   0.03     0.02  -0.03  -0.08
     7   6     0.06   0.09  -0.08    -0.08  -0.09  -0.02     0.00   0.10  -0.07
     8   6     0.04   0.03  -0.03    -0.05  -0.13  -0.06    -0.03  -0.08  -0.06
     9   6    -0.06   0.02  -0.03     0.00   0.07  -0.03    -0.01  -0.00  -0.02
    10   6    -0.01  -0.03  -0.08     0.01   0.06   0.12     0.01   0.05   0.13
    11   6    -0.18   0.04   0.06     0.06  -0.00  -0.03     0.04  -0.01  -0.02
    12   6     0.16  -0.02  -0.00     0.01   0.12  -0.06    -0.08   0.01  -0.10
    13   1     0.09   0.28  -0.00    -0.03   0.07  -0.12     0.02   0.18   0.17
    14   1    -0.13   0.03  -0.05     0.01   0.03   0.01     0.01  -0.08  -0.02
    15   1    -0.01  -0.03   0.00     0.05   0.02   0.01    -0.13  -0.06  -0.03
    16   1    -0.07  -0.10  -0.02     0.04  -0.01   0.01    -0.08   0.05  -0.01
    17   1    -0.10  -0.14  -0.03    -0.02  -0.07  -0.02     0.06   0.18   0.06
    18   1     0.03   0.06   0.24    -0.01   0.01   0.02     0.03   0.00  -0.07
    19   1     0.08  -0.04  -0.07    -0.01   0.00   0.02     0.03  -0.01  -0.06
    20   1     0.09  -0.05  -0.02    -0.02   0.01   0.04     0.06  -0.04  -0.14
    21   1     0.03   0.10   0.05    -0.22  -0.05   0.51    -0.17   0.21  -0.20
    22   1     0.19   0.14  -0.08     0.21   0.35  -0.12     0.14  -0.09  -0.00
    23   1     0.20  -0.16   0.06     0.08  -0.29   0.02     0.10  -0.26   0.03
    24   1    -0.01   0.20   0.18    -0.03   0.03   0.11    -0.20   0.02   0.17
    25   1     0.04  -0.06  -0.15     0.01   0.00   0.05     0.04   0.04   0.10
    26   1     0.03  -0.06  -0.12     0.02   0.05   0.19     0.03   0.03   0.11
    27   1     0.05   0.00   0.03     0.02   0.03   0.17     0.04   0.07   0.21
    28   1    -0.18   0.04   0.06     0.04  -0.05  -0.01     0.03  -0.02  -0.02
    29   1    -0.17   0.05   0.06     0.00  -0.02  -0.00     0.03  -0.02  -0.03
    30   1    -0.20   0.06   0.05     0.14  -0.06  -0.07     0.07  -0.03  -0.04
    31   1    -0.05  -0.13   0.02    -0.22  -0.01  -0.04     0.16   0.28  -0.17
    32   1     0.29  -0.08  -0.15     0.02   0.13  -0.27    -0.32   0.11   0.22
                     25                     26                     27
                      A                      A                      A
 Frequencies --    834.6115               893.6941               902.3564
 Red. masses --      2.5419                 2.0526                 1.9353
 Frc consts  --      1.0432                 0.9659                 0.9284
 IR Inten    --      1.0920                 1.3800                 2.0892
  Atom  AN      X      Y      Z        X      Y      Z        X      Y      Z
     1   8     0.02  -0.05  -0.02     0.00   0.03   0.00     0.01  -0.02   0.02
     2   6     0.03  -0.04   0.01    -0.02   0.01   0.01     0.01   0.01  -0.14
     3   6     0.16   0.08  -0.09     0.03  -0.11   0.04     0.03   0.02   0.06
     4   6     0.02   0.07  -0.08     0.04   0.03  -0.05     0.04   0.02  -0.01
     5   6    -0.08  -0.09  -0.06    -0.04  -0.03  -0.05    -0.01  -0.05  -0.02
     6   6    -0.02   0.06   0.15    -0.01   0.04   0.07    -0.00   0.03   0.02
     7   6     0.02   0.03   0.05     0.06   0.03  -0.04    -0.04   0.00   0.01
     8   6     0.02  -0.08   0.06    -0.08   0.14  -0.06    -0.04  -0.03  -0.09
     9   6    -0.01   0.01  -0.02    -0.06  -0.09  -0.02     0.01   0.08   0.01
    10   6     0.00   0.02   0.03    -0.02  -0.01   0.08     0.00  -0.02  -0.05
    11   6     0.03   0.00  -0.02     0.04  -0.06  -0.02     0.03   0.04  -0.02
    12   6    -0.14   0.02  -0.01    -0.01   0.00  -0.02    -0.01   0.02   0.17
    13   1     0.33   0.04  -0.07     0.09  -0.16   0.06    -0.04  -0.23   0.15
    14   1    -0.02   0.08  -0.04     0.22   0.06  -0.08     0.04  -0.03  -0.09
    15   1    -0.01  -0.01   0.04     0.10   0.07   0.07    -0.09  -0.07  -0.02
    16   1    -0.18  -0.24  -0.04    -0.09  -0.19  -0.01    -0.09  -0.05  -0.03
    17   1    -0.07  -0.12   0.02    -0.05  -0.13   0.02     0.01   0.04   0.02
    18   1    -0.04  -0.01   0.16    -0.03  -0.03   0.09    -0.01  -0.03   0.06
    19   1    -0.02  -0.01   0.07     0.01  -0.04  -0.03     0.02  -0.05  -0.08
    20   1    -0.07   0.05   0.29    -0.04   0.02   0.22    -0.01  -0.01   0.14
    21   1    -0.09   0.11  -0.25     0.24  -0.08  -0.06    -0.18   0.09  -0.05
    22   1    -0.22  -0.10   0.07     0.12  -0.07  -0.01     0.15  -0.14   0.06
    23   1    -0.22   0.16  -0.06     0.05  -0.18   0.09     0.13  -0.29   0.04
    24   1     0.13  -0.26  -0.22    -0.22   0.32   0.23    -0.09   0.19   0.19
    25   1    -0.01  -0.03  -0.02     0.08   0.14   0.18    -0.01   0.02  -0.01
    26   1     0.02   0.01   0.10     0.00  -0.02  -0.20    -0.02  -0.00  -0.07
    27   1     0.00  -0.01   0.05     0.05   0.14   0.15    -0.02   0.00  -0.11
    28   1     0.08  -0.05  -0.00     0.19   0.06  -0.08    -0.02  -0.09   0.04
    29   1    -0.08  -0.01   0.05     0.23   0.05  -0.06    -0.19  -0.02   0.08
    30   1     0.10  -0.05   0.01    -0.22   0.12   0.08     0.25  -0.11  -0.07
    31   1    -0.19   0.13  -0.04    -0.04   0.05  -0.04    -0.06  -0.42   0.30
    32   1    -0.22   0.06   0.05     0.04  -0.03   0.02     0.02   0.03  -0.26
                     28                     29                     30
                      A                      A                      A
 Frequencies --    934.7920               939.3960               943.2946
 Red. masses --      1.9002                 1.3099                 1.7706
 Frc consts  --      0.9783                 0.6811                 0.9282
 IR Inten    --      0.7701                 3.3260                 1.0127
  Atom  AN      X      Y      Z        X      Y      Z        X      Y      Z
     1   8     0.03  -0.04  -0.01     0.01   0.00  -0.00    -0.00  -0.02  -0.00
     2   6     0.04  -0.02  -0.01    -0.01  -0.01   0.01     0.06   0.01  -0.01
     3   6     0.02  -0.01  -0.01    -0.01  -0.01   0.01     0.02   0.02  -0.07
     4   6    -0.06  -0.02   0.03     0.03   0.03   0.02    -0.06  -0.00   0.05
     5   6     0.01   0.05   0.02    -0.02  -0.06   0.04     0.00   0.02   0.08
     6   6    -0.02  -0.04  -0.04     0.03   0.08  -0.02     0.00   0.00  -0.06
     7   6     0.05   0.05  -0.00    -0.00  -0.01  -0.02     0.04   0.01   0.05
     8   6    -0.01  -0.03   0.02     0.00   0.00   0.02     0.00   0.01  -0.01
     9   6     0.04  -0.06   0.04     0.03  -0.02   0.04    -0.08  -0.02  -0.10
    10   6     0.02  -0.06  -0.00     0.01  -0.03  -0.03    -0.01   0.04   0.10
    11   6    -0.03  -0.03   0.03    -0.01  -0.01   0.03     0.01  -0.01  -0.08
    12   6    -0.06   0.19  -0.00    -0.02   0.04  -0.04    -0.00  -0.02   0.06
    13   1    -0.03  -0.12   0.03    -0.06   0.04  -0.01    -0.02  -0.09  -0.03
    14   1    -0.03   0.04   0.10    -0.03  -0.19  -0.27    -0.22  -0.13  -0.06
    15   1     0.09   0.08   0.03    -0.22  -0.27  -0.22    -0.11  -0.17  -0.18
    16   1     0.09   0.05   0.03     0.12   0.28  -0.02     0.25   0.36   0.03
    17   1    -0.02  -0.07  -0.02    -0.02   0.05  -0.14    -0.03   0.00  -0.16
    18   1     0.02   0.08   0.03    -0.04  -0.18   0.04    -0.00  -0.05  -0.00
    19   1     0.03   0.07   0.08     0.02  -0.23  -0.39     0.02  -0.08  -0.17
    20   1     0.08  -0.03  -0.28    -0.07  -0.03   0.45     0.01  -0.04   0.02
    21   1     0.09   0.05  -0.20    -0.01  -0.01   0.07     0.11  -0.02  -0.15
    22   1    -0.07  -0.11   0.03     0.02   0.07  -0.04    -0.09  -0.13   0.08
    23   1    -0.10  -0.01   0.01     0.03   0.09  -0.01    -0.15  -0.08   0.02
    24   1    -0.07  -0.10  -0.01    -0.04  -0.07  -0.03     0.15   0.09  -0.02
    25   1    -0.00   0.18   0.29    -0.02   0.02   0.04     0.03   0.04   0.06
    26   1    -0.08   0.02  -0.20    -0.03   0.00  -0.04     0.02   0.01   0.04
    27   1    -0.05   0.03  -0.23    -0.02  -0.03  -0.12     0.04   0.08   0.19
    28   1    -0.02   0.06  -0.01    -0.13   0.06   0.01     0.41  -0.09  -0.06
    29   1     0.14   0.03  -0.04     0.13  -0.01  -0.08    -0.18   0.08   0.18
    30   1    -0.18   0.08   0.05    -0.09   0.04  -0.02    -0.01   0.00   0.14
    31   1    -0.33  -0.13   0.08    -0.01   0.03  -0.04    -0.17  -0.03   0.05
    32   1    -0.11   0.25  -0.41    -0.09   0.08  -0.05     0.17  -0.11   0.01
                     31                     32                     33
                      A                      A                      A
 Frequencies --    956.9509               975.7064               988.0472
 Red. masses --      1.6170                 1.4462                 1.8114
 Frc consts  --      0.8725                 0.8112                 1.0419
 IR Inten    --      1.8633                 0.1591                 0.3387
  Atom  AN      X      Y      Z        X      Y      Z        X      Y      Z
     1   8     0.01  -0.02  -0.00     0.00  -0.01   0.00     0.00  -0.03  -0.00
     2   6     0.03  -0.00  -0.00     0.00  -0.00  -0.01     0.01  -0.01  -0.03
     3   6     0.02   0.03  -0.02    -0.00   0.03  -0.02    -0.05   0.13  -0.01
     4   6    -0.03  -0.01   0.01    -0.02  -0.05  -0.07     0.05   0.06   0.02
     5   6     0.01   0.01   0.02     0.12   0.01  -0.01    -0.03  -0.06  -0.03
     6   6    -0.01  -0.01  -0.02    -0.08   0.02   0.06     0.07  -0.02  -0.01
     7   6     0.01  -0.02   0.01    -0.01  -0.05   0.01    -0.06  -0.09   0.06
     8   6     0.00   0.02   0.02     0.01   0.04   0.00     0.07   0.06  -0.02
     9   6    -0.10   0.02   0.07    -0.01  -0.02  -0.00    -0.02  -0.03   0.00
    10   6    -0.11  -0.02  -0.05     0.01  -0.01   0.01     0.00  -0.05   0.03
    11   6     0.13  -0.02   0.02    -0.01  -0.03  -0.01    -0.01  -0.05  -0.02
    12   6    -0.02   0.02   0.01    -0.01   0.01   0.00    -0.02   0.02   0.01
    13   1     0.02   0.05  -0.03     0.00   0.07  -0.04    -0.09   0.24  -0.06
    14   1    -0.09  -0.02   0.01    -0.16  -0.19  -0.20    -0.13   0.13   0.20
    15   1    -0.02  -0.02  -0.02    -0.22  -0.04   0.02    -0.07  -0.04   0.01
    16   1     0.04   0.07   0.01    -0.23  -0.01  -0.05    -0.11  -0.12  -0.03
    17   1     0.01   0.03  -0.02     0.25   0.50   0.18    -0.01   0.01   0.02
    18   1     0.01   0.03   0.04    -0.01   0.12   0.47     0.01  -0.06  -0.41
    19   1     0.02   0.01   0.00     0.14  -0.01  -0.03    -0.15   0.07   0.15
    20   1     0.03  -0.02  -0.09     0.15  -0.09  -0.12    -0.13   0.09   0.07
    21   1     0.00  -0.01   0.02    -0.02  -0.05   0.13    -0.09  -0.08   0.24
[...]
 000828,-0.00000378,-0.00000501,0.00000863,0.00001832,-0.00000700,-0.00
 022562,-0.00027879,0.00037529,0.00004748,0.00090058,-0.00021117,0.0014
 2227,0.00071499,-0.00569539,0.00096902,-0.00215427,0.00098625,0.106026
 24,0.01510549,-0.25262483,-0.00069051,0.00033545,0.00076159,0.00000724
 ,-0.00001279,0.00004093,0.00000046,0.00000436,0.00000068,0.00000045,0.
 00000028,-0.00000245,-0.00000373,-0.00000113,0.00001161,-0.00000091,-0
 .00000375,0.00000215,-0.00000218,-0.00000944,0.00000508,0.00000068,0.0
 0000433,-0.00000240,-0.00001911,-0.00000171,0.00000495,0.00002614,-0.0
 0008525,0.00000647,-0.00012606,0.00020352,0.00007187,-0.00043517,-0.00
 065098,0.00061410,0.00010009,0.00000151,-0.00002888,-0.00012921,0.0001
 6275,0.00043450,-0.00019492,0.00014835,0.00011637,0.00044975,0.0001251
 4,-0.00032346,-0.11782360,-0.01676240,0.27367205,-0.00100979,0.0007167
 4,0.00033115,0.00046167,-0.00177842,-0.00133158,-0.00004861,0.00007174
 ,0.00014569,0.00015799,0.00003865,0.00002960,-0.00006021,0.00002710,0.
 00001384,-0.00001606,0.00000094,-0.00001093,0.00003084,0.00010244,0.00
 018556,0.00039631,-0.00112755,0.00004497,-0.01414752,0.00043149,-0.013
 77162,0.00030789,-0.00067262,-0.00128550,-0.17390300,0.01117729,-0.128
 92153,-0.00189006,0.00482866,0.00135915,-0.00001828,-0.00000636,0.0000
 0669,0.00001037,-0.00004242,0.00002622,0.00001571,0.00000706,0.0000060
 2,0.00000131,-0.00000642,-0.00000037,0.00000486,0.00003560,-0.00000730
 ,-0.00000866,0.00002048,0.00001256,0.00001684,0.00001941,0.00001494,0.
 00001248,-0.00001735,-0.00004714,0.00004338,0.00003439,0.00006249,-0.0
 0001239,0.00002129,0.00003183,0.00004146,0.00007887,0.00008614,0.00066
 592,0.00045128,0.00021121,0.00009445,0.00031011,0.00099102,-0.00014565
 ,0.00001447,-0.00000016,0.00042670,-0.00011042,0.00026774,0.01245235,-
 0.00110936,0.01138476,0.18779595,0.00089778,-0.00082966,-0.00032335,0.
 00059284,0.00184533,0.00124791,-0.00015182,0.00008214,-0.00013460,-0.0
 0009496,-0.00002236,-0.00006383,0.00002533,-0.00000467,-0.00000119,0.0
 0001510,0.00000997,0.00000364,0.00000843,-0.00007702,-0.00013345,0.000
 68342,0.00150585,0.00102422,0.01820767,-0.00199137,0.01998094,-0.00057
 889,0.00077262,0.00098024,0.01091704,-0.05006378,0.01161373,0.00262467
 ,-0.00502372,-0.00086471,0.00002460,-0.00000383,0.00000035,-0.00001362
 ,0.00005256,-0.00002564,-0.00001257,-0.00001430,-0.00000741,-0.0000001
 8,0.00000197,0.00000076,-0.00000646,-0.00001402,0.00000004,-0.00000155
 ,-0.00000933,-0.00000858,-0.00001117,-0.00002110,-0.00001522,-0.000009
 15,0.00001091,0.00003813,-0.00007396,0.00001574,-0.00005187,-0.0000198
 5,0.00001668,-0.00000508,-0.00008034,-0.00007905,0.00003635,-0.0004111
 3,-0.00039141,-0.00051931,-0.00004964,0.00017411,-0.00057719,-0.000058
 83,-0.00001564,-0.00020567,-0.00035109,-0.00006503,0.00010047,0.001703
 24,-0.00103262,0.00189098,-0.01496649,0.05225217,-0.00024120,0.0002447
 6,-0.00015877,0.00023137,-0.00064069,0.00060721,-0.00000928,-0.0000103
 9,-0.00016213,0.00006494,0.00002057,0.00002352,-0.00002669,0.00001172,
 -0.00000106,-0.00001268,0.00000246,-0.00000495,0.00024217,0.00016455,0
 .00015789,-0.00000672,-0.00011885,0.00001531,0.00410977,-0.00002207,0.
 00268839,0.00072044,-0.00018666,0.00075875,-0.12930061,0.01203803,-0.1
 8391605,0.00058771,-0.00002361,0.00062486,-0.00000375,0.00000283,0.000
 01975,0.00001183,-0.00002189,0.00000921,0.00000583,0.00000195,0.000004
 85,-0.00000023,-0.00000414,-0.00000003,0.00000110,0.00001555,-0.000002
 10,-0.00000394,0.00001034,0.00000377,0.00000422,0.00000282,0.00000604,
 0.00001016,-0.00000145,-0.00001076,-0.00003633,0.00007535,-0.00000745,
 0.00001049,-0.00002389,0.00000023,-0.00012799,0.00001279,-0.00009943,0
 .00012298,0.00039734,0.00030660,-0.00004956,-0.00015598,0.00028789,0.0
 0002555,0.00006138,-0.00002848,-0.00004706,0.00013357,0.00020482,-0.02
 082155,0.00122632,-0.01983665,0.14283860,-0.01241202,0.19723372,0.0001
 5617,-0.00015119,-0.00003086,0.00004091,0.00017789,0.00020059,0.000194
 28,-0.00013891,0.00008032,-0.00002358,-0.00000119,0.00000719,0.0000095
 9,0.00001249,0.00000401,0.00000666,0.00000308,0.00000649,0.00088336,0.
 00107308,-0.00012548,-0.00222140,0.00238149,0.00064784,0.01065131,0.01
 682806,-0.00022170,0.00090222,0.00038894,-0.00057234,-0.12819107,-0.12
 065762,0.00183501,0.00134275,0.00021448,0.00028078,0.00000653,0.000011
 45,-0.00001912,-0.00000225,0.00000702,-0.00000345,-0.00001090,-0.00001
 517,-0.00000510,-0.00000146,0.00000088,-0.00000201,-0.00000702,-0.0000
 1008,-0.00000620,0.00000157,-0.00000836,-0.00000300,-0.00000198,-0.000
 00333,-0.00000730,-0.00000775,0.00000405,0.00000855,-0.00019441,0.0003
 4863,-0.00003300,0.00004795,-0.00011395,0.00001550,-0.00006879,0.00014
 541,-0.00027509,0.00006172,0.00019108,0.00025308,-0.00008221,-0.000079
 97,0.00010299,0.00001331,-0.00013863,0.00006685,0.00014350,-0.00004501
 ,-0.00028287,-0.00841636,-0.01163049,-0.00086893,-0.01232876,-0.018811
 45,0.00168481,0.13727829,0.00010690,0.00019067,-0.00006520,0.00014616,
 -0.00027036,-0.00008551,-0.00019219,0.00026409,-0.00014528,0.00010677,
 0.00012376,0.00008103,-0.00002066,-0.00000913,-0.00003609,-0.00002738,
 -0.00004695,-0.00000436,-0.00183800,-0.00073018,0.00003454,0.00550713,
 -0.00349055,-0.00086301,-0.01563155,-0.02268586,0.00064309,-0.00136902
 ,0.00052903,0.00100473,-0.11967440,-0.23063396,0.00267573,-0.00152954,
 0.00090749,-0.00032139,-0.00002267,0.00001541,0.00001325,0.00005491,-0
 .00006858,0.00002291,0.00001882,0.00004774,0.00001870,-0.00000273,0.00
 000710,0.00000130,0.00002619,-0.00000511,0.00001079,0.00002452,-0.0000
 1023,0.00000614,0.00000290,0.00003003,0.00003100,0.00000517,0.00000586
 ,-0.00000894,0.00039502,-0.00062460,-0.00001990,0.00010071,-0.00006336
 ,-0.00008150,0.00018355,0.00035621,0.00007652,-0.00000747,0.00022959,-
 0.00015946,0.00009496,0.00001166,-0.00001945,0.00078666,0.00062037,-0.
 00071522,0.00024997,0.00045333,0.00017915,-0.00049996,-0.00085843,0.00
 037550,0.00165576,0.00297434,-0.00056108,0.13033835,0.25255197,0.00007
 169,-0.00003884,-0.00002724,-0.00011671,-0.00001141,-0.00013109,0.0000
 8721,-0.00010398,0.00000502,-0.00001451,0.00000570,0.00004088,0.000013
 41,-0.00000961,-0.00000986,-0.00000839,0.00000076,0.00000584,-0.000277
 49,-0.00020920,0.00068351,0.00092104,-0.00044928,-0.00035609,-0.003002
 80,-0.00393527,-0.00162455,-0.00083212,-0.00090317,0.00025120,0.001936
 94,0.00289869,-0.04968280,0.00029513,0.00058656,0.00005836,0.00000122,
 -0.00001518,0.00001038,0.00000607,-0.00000401,-0.00000214,-0.00000166,
 0.00000316,0.00000014,0.00000177,0.00000187,0.00000121,-0.00000077,-0.
 00000632,0.00000335,0.00000146,-0.00000065,-0.00000434,-0.00000518,-0.
 00000430,-0.00000366,0.00000546,0.00000318,0.00000533,0.00006975,-0.00
 012914,-0.00000137,-0.00007235,0.00012632,-0.00002384,-0.00034312,-0.0
 0020827,0.00038073,0.00029188,0.00029981,0.00017113,-0.00001613,-0.000
 10409,-0.00003746,0.00050954,-0.00000683,-0.00004012,-0.00002295,0.000
 25755,-0.00000627,0.01609242,0.02555490,0.00084973,-0.01286840,-0.0212
 3502,0.00084435,-0.00273476,-0.00256398,0.04844326,-0.00109301,0.00396
 647,-0.00304626,-0.01134544,-0.00029489,0.01668739,0.00008825,-0.00033
 136,-0.00077372,-0.00004658,0.00009483,-0.00041975,-0.00001935,0.00002
 979,0.00003783,0.00003119,-0.00012073,0.00002725,-0.00015632,-0.000280
 67,-0.00007775,0.00115511,0.00018067,-0.00006232,0.00897306,-0.0015157
 3,-0.02164124,-0.00309431,0.00008388,-0.00308420,0.00127858,-0.0000859
 5,-0.00091566,-0.09818422,0.00451753,0.10874338,0.00070456,0.00019192,
 -0.00041559,-0.00001593,-0.00004399,0.00007206,0.00000701,0.00000372,-
 0.00001340,0.00001366,0.00000823,-0.00001352,-0.00000177,0.00001827,-0
 .00000095,0.00001346,0.00000056,-0.00003784,0.00000921,0.00000779,-0.0
 0000549,0.00001388,-0.00000447,-0.00003932,-0.00002332,-0.00001415,-0.
 00002219,-0.00009945,0.00003802,-0.00004805,-0.00018571,-0.00004787,0.
 00018723,0.00022397,0.00035161,0.00015832,0.00069054,0.00029207,-0.001
 26710,-0.00002971,0.00020740,-0.00004863,-0.00013712,-0.00011300,0.000
 10819,-0.00018660,0.00001230,0.00020525,0.00035683,-0.00033744,0.00005
 565,-0.00010357,0.00005403,0.00016876,0.11004945,0.00278547,-0.0030317
 8,0.00347935,0.01308122,0.00206240,-0.02834622,-0.00134471,-0.00024951
 ,0.00302723,0.00015336,0.00010270,0.00045206,0.00002597,-0.00001890,-0
 .00001893,-0.00003935,0.00009394,-0.00003383,0.00050889,0.00023099,0.0
 0016318,0.00032509,-0.00000332,-0.00094651,-0.00126477,-0.00034397,0.0
 0166706,0.00084799,0.00021216,0.00082687,-0.00029801,0.00019240,0.0011
 6320,0.00620776,-0.05186019,-0.01908899,-0.00044190,-0.00178478,0.0000
 1846,-0.00002523,0.00008178,-0.00008456,-0.00001114,-0.00001706,0.0000
 0430,-0.00000147,0.00000138,0.00000453,-0.00000215,-0.00001558,-0.0000
 1368,-0.00003008,0.00000130,0.00002689,-0.00000868,-0.00002600,-0.0000
 1600,-0.00001860,0.00001098,0.00006097,0.00004518,-0.00002197,0.000000
 06,0.00000339,0.00009046,0.00002170,-0.00026927,0.00008242,-0.00002326
 ,-0.00000801,-0.00000178,0.00013545,-0.00004045,0.00043355,0.00038536,
 0.00015013,0.00025751,-0.00038847,-0.00014048,0.00005521,0.00013885,0.
 00033340,0.00020701,-0.00000076,-0.00010915,-0.00014390,-0.00015505,-0
 .00010928,-0.00007810,0.00011020,-0.00938425,0.05070171,-0.00052334,-0
 .00069528,-0.00072286,0.00097356,0.00054901,0.00012760,0.00085018,0.00
 014220,-0.00070222,-0.00012985,-0.00020471,0.00028256,0.00000802,-0.00
 003881,-0.00002484,-0.00003658,0.00012910,-0.00005379,-0.00041517,-0.0
 0010143,-0.00012778,0.00147476,0.00042024,0.00041968,0.01040137,-0.000
 49032,-0.02474931,-0.00550700,-0.00012997,-0.00246743,0.00190117,-0.00
 067976,0.00087602,0.10448743,-0.01418635,-0.23847504,-0.00041760,0.000
 13763,0.00070313,0.00000534,0.00004455,-0.00002989,0.00000209,-0.00000
 464,0.00000283,-0.00000400,-0.00001657,0.00002612,-0.00000845,-0.00000
 121,0.00001067,-0.00001981,0.00000405,0.00004539,0.00000269,0.00000216
 ,0.00000583,-0.00002650,0.00000107,0.00002234,0.00000897,-0.00003844,0
 .00001108,-0.00000948,0.00016163,0.00015735,-0.00075344,-0.00053083,0.
 00053922,-0.00011320,0.00019922,0.00037043,0.00061387,0.00020707,-0.00
 168461,-0.00001905,0.00003968,0.00032522,0.00003549,-0.00011087,0.0003
 8522,-0.00096640,0.00054919,0.00061900,-0.00000298,-0.00030792,0.00049
 309,-0.00008202,0.00007687,-0.00005867,-0.11241860,0.01456205,0.265124
 46,0.00191328,-0.00106334,0.00001442,0.01109896,0.01551563,-0.00158878
 ,-0.00208462,0.00243203,0.00027570,0.00071740,0.00069749,-0.00000867,-
 0.00022136,0.00019396,0.00002654,0.00001638,-0.00003230,-0.00007793,-0
 .00021472,0.00029674,0.00003768,-0.00239425,0.00187750,-0.00403941,-0.
 01370586,-0.01667471,0.00247867,0.00075057,-0.00016984,0.00146057,0.00
 044988,-0.00135623,0.00050967,-0.15890038,-0.13240956,0.01369641,-0.00
 006654,-0.00001941,-0.00006005,0.00007480,-0.00004926,-0.00000282,0.00
 002099,0.00002778,0.00001792,0.00000028,-0.00000716,-0.00001208,0.0000
 5868,0.00008944,-0.00003129,-0.00000473,0.00000081,0.00001976,0.000001
 26,0.00001864,0.00002703,-0.00000109,-0.00001826,0.00001645,0.00008356
 ,-0.00009059,0.00002906,0.00007888,-0.00005749,-0.00001696,0.00030216,
 0.00031124,0.00004673,-0.00076723,-0.00140361,-0.00021053,0.00007968,0
 .00030449,0.00021310,0.00048650,0.00046788,-0.00064677,0.00004486,0.00
 003605,-0.00012320,-0.00001699,-0.00000124,-0.00008809,0.00029569,0.00
 034048,-0.00004003,-0.00007861,0.00095708,-0.00015638,-0.00888634,-0.0
 1092088,0.00068853,0.17086893,-0.00003046,0.00601683,-0.00046639,-0.02
 279496,-0.02677232,0.00301226,0.00526456,-0.00321890,-0.00060314,-0.00
 171633,-0.00067157,-0.00008298,0.00054765,-0.00036305,-0.00008050,0.00
 000163,-0.00012454,0.00020284,0.00031763,0.00020740,0.00036837,0.00083
 388,0.00097059,0.00019358,0.00118698,0.00118537,-0.00108061,0.00032828
 ,0.00027213,0.00028758,0.00040078,0.00081616,-0.00000824,-0.12750624,-
 0.20196022,0.01587611,0.00016352,0.00050206,0.00013984,0.00004405,0.00
 002156,0.00007242,-0.00003461,0.00001083,-0.00002268,-0.00000557,0.000
 03449,0.00000905,-0.00009520,-0.00022866,0.00006868,0.00006714,-0.0000
 4438,-0.00008019,-0.00000219,0.00001115,-0.00003296,0.00001282,0.00003
 101,-0.00007149,-0.00008390,-0.00001197,-0.00008865,-0.00004406,-0.000
 02335,-0.00011692,-0.00002788,-0.00004147,0.00009725,0.00003440,0.0002
 6164,0.00003819,0.00021785,0.00016183,-0.00004592,0.00005480,0.0002964
 2,-0.00043309,-0.00010484,-0.00016862,-0.00007814,0.00005716,0.0000002
 9,-0.00001483,-0.00009719,0.00008843,-0.00008459,-0.00021174,0.0002567
 7,0.00008984,0.00251539,0.00277893,0.00031141,0.14070665,0.21970517,-0
 .00060517,0.00039013,-0.00119098,-0.00005551,-0.00273296,-0.00046212,0
 .00033376,0.00045878,0.00102347,0.00003966,-0.00002800,0.00042849,-0.0
 0000635,-0.00004687,-0.00002802,-0.00006652,0.00005611,-0.00004216,-0.
 00011169,0.00054869,-0.00007946,-0.00292095,0.00105289,-0.00375287,-0.
 01483673,-0.01880442,0.00126887,-0.00057531,-0.00125131,0.00134524,0.0
 0081838,-0.00067538,0.00030139,0.01339607,0.01611835,-0.05172102,-0.00
 045459,-0.00027679,0.00031764,0.00002512,-0.00004661,-0.00000136,0.000
 00828,0.00001339,0.00000848,0.00001103,-0.00000137,0.00000065,0.000000
 27,-0.00000240,0.00000162,-0.00001154,0.00001407,0.00003326,0.00000801
 ,0.00000852,0.00001438,0.00001007,-0.00000406,-0.00000291,0.00010735,-
 0.00003777,0.00006332,0.00003873,-0.00004612,-0.00001688,-0.00024535,-
 0.00004519,0.00021827,-0.00104046,-0.00127493,0.00024594,0.00020042,0.
 00013961,0.00033070,0.00011329,0.00054546,-0.00035540,0.00010184,-0.00
 008275,-0.00015288,-0.00000370,0.00014508,0.00000104,0.00019733,-0.000
 02572,-0.00006239,0.00007925,0.00039911,0.00025506,0.01790028,0.022868
 51,-0.00145080,-0.01245526,-0.01737607,0.05346143\\-0.00026875,0.00001
 268,0.00004378,0.00020665,-0.00002927,0.00006821,-0.00004405,0.0001231
 5,-0.00018528,0.00001101,-0.00001161,0.00009900,0.00001323,0.00000195,
 -0.00004201,-0.00000911,-0.00012042,-0.00002399,0.00000842,-0.00002428
 ,0.00002277,0.00004361,-0.00000905,-0.00002280,0.00005732,-0.00001547,
 0.00011357,0.00000337,0.00001798,-0.00002133,-0.00000202,-0.00002580,-
 0.00000566,-0.00007107,-0.00000402,-0.00017039,0.00001079,0.00004901,0
 .00002488,-0.00003027,-0.00004913,-0.00003254,-0.00000340,0.00002913,0
 .00000548,0.00002961,-0.00000502,-0.00000001,0.00000644,0.00001171,-0.
 00002452,-0.00000717,0.00003941,-0.00001833,0.00009094,-0.00002224,0.0
 0007301,-0.00004166,0.00003135,0.00000321,-0.00001812,0.00000820,0.000
 01123,-0.00005578,0.00005515,0.00001019,0.00002092,0.00000033,0.000009
 63,0.00000271,-0.00002603,0.00001816,0.00000946,0.00000638,0.00000200,
 -0.00001485,-0.00000285,0.00000249,-0.00001095,-0.00000911,0.00000846,
 0.00001670,0.00000628,-0.00002251,0.00000135,0.00000028,0.00001209,0.0
 0000734,-0.00001775,-0.00000804,0.00002934,0.00000453,0.00002940,0.000
 00799,-0.00002550,0.00001985\\\@


                                                                                    A
                                                                                  AA
                                                                                 AAA
                                                                                AAAA
                                                                               AAAAA
                                                                              AAAAAA   KKKKKKKK
                                                                             AAAAAAA   KKKKKKKK
                                                                            AAAAAAAA   KKKKKKKK
                                       ZZZZZZZZZZZZZZZZZZZZ                AAAA  AAA   KKKKKKKK
                                       ZZZZZZZZZZZZZZZZZZZ                AAAA   AAA   KKKKKKKK          K
                                       ZZZZZZZZZZZZZZZZZZ                AAAA    AAA   KKKKKKKK         KKK
                                       ZZZZZZZZZZZZZZZZZ                AAAA     AAA   KKKKKKKK        KKKKK
                                       ZZZZZZZZZZZZZZZZ                AAAA      AAA   KKKKKKKK       KKKKKKK
                                                ZZZZZZ                AAAA       AAA   KKKKKKKK      KKKKKKK
                                               ZZZZZZ                AAAA        AAA   KKKKKKKK     KKKKKKK
                                              ZZZZZZ                AAAA         AAA   KKKKKKKK    KKKKKKK
                                             ZZZZZZ                AAAA          AAA   KKKKKKKK   KKKKKKK
                                            ZZZZZZ                AAAAAAAAAAAAAAAAAA   KKKKKKKK  KKKKKKK
                                           ZZZZZZ                AAAAAAAAAAAAAAAAAAA   KKKKKKKK KKKKKKK
                                          ZZZZZZ                AAAAAAAAAAAAAAAAAAAA   KKKKKKKKKKKKKKK
                                         ZZZZZZ                AAAAAAAAAAAAAAAAAAAAA   KKKKKKKKKKKKKK
                                        ZZZZZZ                AAAAAA        AAAAAAAA   KKKKKKKKKKKKK
                                       ZZZZZZ                AAAAAA         AAAAAAAA   KKKKKKKKKKKK
                                      ZZZZZZ                AAAAAA          AAAAAAAA   KKKKKKKKKKK
                                     ZZZZZZ                AAAAAA           AAAAAAAA   KKKKKKKKKKKK
                                    ZZZZZZ                AAAAAA            AAAAAAAA   KKKKKKKKKKKKK
                                   ZZZZZZ                AAAAAA             AAAAAAAA   KKKKKKKKKKKKKK
                                  ZZZZZZ                AAAAAA              AAAAAAAA   KKKKKKKKKKKKKKK
                                 ZZZZZZ                AAAAAA               AAAAAAAA   KKKKK KKKKKKKKKK
                                ZZZZZZ                AAAAAA                AAAAAAAA   KKKKK  KKKKKKKKKK
                               ZZZZZZ                AAAAAA                            KKKKK   KKKKKKKKKK
                              ZZZZZZ                AAAAAA                             KKKKK    KKKKKKKKKK
                             ZZZZZZ                                                    KKKKK     KKKKKKKKKK
                            ZZZZZZ                                                     KKKKK      KKKKKKKKKK
                           ZZZZZZ                                                      KKKKK       KKKKKKKKKK
                          ZZZZZZ                                                       KKKKK        KKKKKKKKKK
                         ZZZZZZZZZZZZZZZZZZZZZZZZZZZZZZZZZZZZZZZZ                      KKKKK         KKKKKKKKKK
                        ZZZZZZZZZZZZZZZZZZZZZZZZZZZZZZZZZZZZZZZZZ                      KKKKK          KKKKKKKKKK
                       ZZZZZZZZZZZZZZZZZZZZZZZZZZZZZZZZZZZZZZZZZZ                      KKKKK           KKKKKKKKKK
                       ZZZZZZZZZZZZZZZZZZZZZZZZZZZZZZZZZZZZZZZZZZ                      KKKKK            KKKKKKKKKK
                       ZZZZZZZZZZZZZZZZZZZZZZZZZZZZZZZZZZZZZZZZZZ                      KKKKK             KKKKKKKKKK
                       ZZZZZZZZZZZZZZZZZZZZZZZZZZZZZZZZZZZZZZZZZZ                      KKKKK              KKKKKKKKKK
                       ZZZZZZZZZZZZZZZZZZZZZZZZZZZZZZZZZZZZZZZZZZ                      KKKKK               KKKKKKKKKK
                       ZZZZZZZZZZZZZZZZZZZZZZZZZZZZZZZZZZZZZZZZZZ                      KKKKK                KKKKKKKKKK
                       ZZZZZZZZZZZZZZZZZZZZZZZZZZZZZZZZZZZZZZZZZZ                      KKKKK
                                                                                       KKKKK
                                                                                          (J.P.)
 Job cpu time:       0 days  0 hours  3 minutes 18.8 seconds.
 Elapsed time:       0 days  0 hours  3 minutes 23.4 seconds.
 File lengths (MBytes):  RWF=    188 Int=      0 D2E=      0 Chk=     16 Scr=      1
 Normal termination of Gaussian 16 at Sat Feb 24 04:42:40 2024.
