 Entering Gaussian System, Link 0=g16
 Input=/Volumes/SSD-PMU3/b3lyp_6-31gd_freq/JHSRFFYIQCJZBD-VIFPVBQESA-N_calculating/gaussianinput1.gjf
 Output=/Volumes/SSD-PMU3/b3lyp_6-31gd_freq/JHSRFFYIQCJZBD-VIFPVBQESA-N_calculating/gaussianinput1.log
 Initial command:
 /Applications/g16/l1.exe "/Users/macmini_m1_2022/PycharmProjects/sphere_model/sphere_model_lib/Gau-93258.inp" -scrdir="/Users/macmini_m1_2022/PycharmProjects/sphere_model/sphere_model_lib/"
 Entering Link 1 = /Applications/g16/l1.exe PID=     93259.
  
 Copyright (c) 1988,1990,1992,1993,1995,1998,2003,2009,2016,
            Gaussian, Inc.  All Rights Reserved.
  
 This is part of the Gaussian(R) 16 program.  It is based on
 the Gaussian(R) 09 system (copyright 2009, Gaussian, Inc.),
 the Gaussian(R) 03 system (copyright 2003, Gaussian, Inc.),
 the Gaussian(R) 98 system (copyright 1998, Gaussian, Inc.),
 the Gaussian(R) 94 system (copyright 1995, Gaussian, Inc.),
 the Gaussian 92(TM) system (copyright 1992, Gaussian, Inc.),
 the Gaussian 90(TM) system (copyright 1990, Gaussian, Inc.),
 the Gaussian 88(TM) system (copyright 1988, Gaussian, Inc.),
 the Gaussian 86(TM) system (copyright 1986, Carnegie Mellon
 University), and the Gaussian 82(TM) system (copyright 1983,
 Carnegie Mellon University). Gaussian is a federally registered
 trademark of Gaussian, Inc.
  
 This software contains proprietary and confidential information,
 including trade secrets, belonging to Gaussian, Inc.
  
 This software is provided under written license and may be
 used, copied, transmitted, or stored only in accord with that
 written license.
  
 The following legend is applicable only to US Government
 contracts under FAR:
  
                    RESTRICTED RIGHTS LEGEND
  
 Use, reproduction and disclosure by the US Government is
 subject to restrictions as set forth in subparagraphs (a)
 and (c) of the Commercial Computer Software - Restricted
 Rights clause in FAR 52.227-19.
  
 Gaussian, Inc.
 340 Quinnipiac St., Bldg. 40, Wallingford CT 06492
  
  
 ---------------------------------------------------------------
 Warning -- This program may not be used in any manner that
 competes with the business of Gaussian, Inc. or will provide
 assistance to any competitor of Gaussian, Inc.  The licensee
 of this program is prohibited from giving any competitor of
 Gaussian, Inc. access to this program.  By using this program,
 the user acknowledges that Gaussian, Inc. is engaged in the
 business of creating and licensing software in the field of
 computational chemistry and represents and warrants to the
 licensee that it is not a competitor of Gaussian, Inc. and that
 it will not use this program in any manner prohibited above.
 ---------------------------------------------------------------
  

 Cite this work as:
 Gaussian 16, Revision A.03,
 M. J. Frisch, G. W. Trucks, H. B. Schlegel, G. E. Scuseria, 
 M. A. Robb, J. R. Cheeseman, G. Scalmani, V. Barone, 
 G. A. Petersson, H. Nakatsuji, X. Li, M. Caricato, A. V. Marenich, 
 J. Bloino, B. G. Janesko, R. Gomperts, B. Mennucci, H. P. Hratchian, 
 J. V. Ortiz, A. F. Izmaylov, J. L. Sonnenberg, D. Williams-Young, 
 F. Ding, F. Lipparini, F. Egidi, J. Goings, B. Peng, A. Petrone, 
 T. Henderson, D. Ranasinghe, V. G. Zakrzewski, J. Gao, N. Rega, 
 G. Zheng, W. Liang, M. Hada, M. Ehara, K. Toyota, R. Fukuda, 
 J. Hasegawa, M. Ishida, T. Nakajima, Y. Honda, O. Kitao, H. Nakai, 
 T. Vreven, K. Throssell, J. A. Montgomery, Jr., J. E. Peralta, 
 F. Ogliaro, M. J. Bearpark, J. J. Heyd, E. N. Brothers, K. N. Kudin, 
 V. N. Staroverov, T. A. Keith, R. Kobayashi, J. Normand, 
 K. Raghavachari, A. P. Rendell, J. C. Burant, S. S. Iyengar, 
 J. Tomasi, M. Cossi, J. M. Millam, M. Klene, C. Adamo, R. Cammi, 
 J. W. Ochterski, R. L. Martin, K. Morokuma, O. Farkas, 
 J. B. Foresman, and D. J. Fox, Gaussian, Inc., Wallingford CT, 2016.
 
 ******************************************
 Gaussian 16:  EM64M-G16RevA.03 25-Dec-2016
                24-Feb-2024 
 ******************************************
 %nprocshared=10
 Will use up to   10 processors via shared memory.
 %mem=12GB
 %chk= 1.chk
 ---------------------
 # freq b3lyp/6-31g(d)
 ---------------------
 1/10=4,30=1,38=1/1,3;
 2/12=2,17=6,18=5,40=1/2;
 3/5=1,6=6,7=1,11=2,25=1,30=1,71=2,74=-5,140=1/1,2,3;
 4//1;
 5/5=2,38=5,98=1/2;
 8/6=4,10=90,11=11/1;
 11/6=1,8=1,9=11,15=111,16=1/1,2,10;
 10/6=1/2;
 6/7=2,8=2,9=2,10=2,28=1/1;
 7/8=1,10=1,25=1/1,2,3,16;
 1/10=4,30=1/3;
 99//99;
 ---------
 good luck
 ---------
 Symbolic Z-matrix:
 Charge =  0 Multiplicity = 1
 O                     1.21851   0.        0. 
 C                     0.        0.        0. 
 C                    -0.84107  -1.28227  -0.04243 
 C                     0.01494  -2.56158   0.10058 
 C                     0.61064  -2.66535   1.51511 
 C                    -0.76529  -3.8437   -0.23105 
 C                    -1.70915  -1.21009  -1.32886 
 C                    -2.52233   0.09111  -1.41961 
 C                    -1.67423   1.38152  -1.3263 
 C                    -2.60208   2.60423  -1.22877 
 C                    -0.76707   1.53764  -2.56336 
 C                    -0.79991   1.29408  -0.04243 
 H                    -1.5405   -1.22952   0.80959 
 H                     0.84998  -2.4713   -0.60678 
 H                    -0.1838   -2.77098   2.26667 
 H                     1.25915  -3.54547   1.59712 
 H                     1.20815  -1.78488   1.76287 
 H                    -0.13806  -4.72397  -0.04864 
 H                    -1.65931  -3.94268   0.39958 
 H                    -1.08609  -3.88304  -1.27706 
 H                    -2.39912  -2.05982  -1.34891 
 H                    -1.05989  -1.31887  -2.20808 
 H                    -3.26122   0.10003  -0.60446 
 H                    -3.09742   0.10009  -2.35531 
 H                    -3.22683   2.69371  -2.12614 
 H                    -3.26948   2.5296   -0.36145 
 H                    -2.0247    3.53141  -1.13042 
 H                    -0.19576   2.47165  -2.5074 
 H                    -1.36627   1.56516  -3.48159 
 H                    -0.04289   0.72177  -2.65776 
 H                    -0.10321   2.13637   0.01969 
 H                    -1.45961   1.32909   0.83696 
 

 GradGradGradGradGradGradGradGradGradGradGradGradGradGradGradGradGradGrad
 Berny optimization.
 Initialization pass.
 Trust Radius=3.00D-01 FncErr=1.00D-07 GrdErr=1.00D-07 EigMax=2.50D+02 EigMin=1.00D-04
 Number of steps in this run=      2 maximum allowed number of steps=      2.
 GradGradGradGradGradGradGradGradGradGradGradGradGradGradGradGradGradGrad

                          Input orientation:                          
 ---------------------------------------------------------------------
 Center     Atomic      Atomic             Coordinates (Angstroms)
 Number     Number       Type             X           Y           Z
 ---------------------------------------------------------------------
      1          8           0        1.218512    0.000000    0.000000
      2          6           0        0.000000    0.000000    0.000000
      3          6           0       -0.841066   -1.282274   -0.042431
      4          6           0        0.014936   -2.561581    0.100582
      5          6           0        0.610639   -2.665347    1.515107
      6          6           0       -0.765294   -3.843701   -0.231049
      7          6           0       -1.709146   -1.210090   -1.328862
      8          6           0       -2.522333    0.091106   -1.419614
      9          6           0       -1.674234    1.381515   -1.326297
     10          6           0       -2.602081    2.604230   -1.228767
     11          6           0       -0.767073    1.537643   -2.563360
     12          6           0       -0.799913    1.294083   -0.042431
     13          1           0       -1.540502   -1.229520    0.809586
     14          1           0        0.849978   -2.471303   -0.606775
     15          1           0       -0.183802   -2.770984    2.266670
     16          1           0        1.259145   -3.545466    1.597120
     17          1           0        1.208148   -1.784879    1.762870
     18          1           0       -0.138057   -4.723971   -0.048636
     19          1           0       -1.659307   -3.942681    0.399580
     20          1           0       -1.086087   -3.883037   -1.277057
     21          1           0       -2.399120   -2.059820   -1.348906
     22          1           0       -1.059894   -1.318868   -2.208078
     23          1           0       -3.261222    0.100034   -0.604463
     24          1           0       -3.097418    0.100093   -2.355310
     25          1           0       -3.226834    2.693712   -2.126140
     26          1           0       -3.269481    2.529603   -0.361454
     27          1           0       -2.024705    3.531408   -1.130417
     28          1           0       -0.195759    2.471646   -2.507402
     29          1           0       -1.366273    1.565164   -3.481592
     30          1           0       -0.042891    0.721769   -2.657758
     31          1           0       -0.103213    2.136371    0.019686
     32          1           0       -1.459609    1.329091    0.836961
 ---------------------------------------------------------------------
                    Distance matrix (angstroms):
                    1          2          3          4          5
     1  O    0.000000
     2  C    1.218512   0.000000
     3  C    2.426497   1.534086   0.000000
     4  C    2.832033   2.563598   1.545904   0.000000
     5  C    3.125561   3.126100   2.538949   1.538347   0.000000
     6  C    4.331617   3.925952   2.569480   1.537065   2.516102
     7  C    3.435313   2.480196   1.553602   2.615778   3.948080
     8  C    4.002190   2.895819   2.570888   3.973094   5.101582
     9  C    3.469240   2.543758   3.072174   4.520762   5.447138
    10  C    4.784225   3.881070   4.428711   5.941511   6.754173
    11  C    3.588552   3.086027   3.783185   4.950936   6.016403
    12  C    2.398018   1.521943   2.576686   3.943422   4.482485
    13  H    3.127188   2.130797   1.103597   2.167132   2.680815
    14  H    2.571251   2.682905   2.142873   1.098089   2.144136
    15  H    3.844819   3.584680   2.824925   2.185242   1.098700
    16  H    3.888801   4.087367   3.495862   2.180759   1.096310
    17  H    2.508707   2.784443   2.776869   2.188658   1.092533
    18  H    4.915134   4.726238   3.512768   2.172925   2.691425
    19  H    4.897575   4.296242   2.818272   2.190873   2.833485
    20  H    4.692550   4.229472   2.889343   2.203721   3.486808
    21  H    4.376033   3.437758   2.176921   2.860148   4.198557
    22  H    3.436009   2.781797   2.176982   2.833638   4.297184
    23  H    4.521438   3.318275   2.843204   4.279544   5.208763
    24  H    4.917800   3.892493   3.514466   4.775213   6.031374
    25  H    5.615840   4.710522   5.083522   6.563952   7.530232
    26  H    5.164458   4.149584   4.530936   6.076268   6.750135
    27  H    4.926169   4.224703   5.075061   6.542172   7.234888
    28  H    3.794241   3.526247   4.537005   5.672684   6.574158
    29  H    4.610025   4.054371   4.495728   5.636465   6.839035
    30  H    3.029153   2.754354   3.390163   4.288609   5.414098
    31  H    2.512255   2.138953   3.497916   4.700134   5.079603
    32  H    3.104725   2.144165   2.824031   4.225383   4.549873
                    6          7          8          9         10
     6  C    0.000000
     7  C    3.005321   0.000000
     8  C    4.470188   1.537082   0.000000
     9  C    5.415591   2.591841   1.546976   0.000000
    10  C    6.778277   3.918723   2.521621   1.538000   0.000000
    11  C    5.865027   3.156188   2.545891   1.541960   2.507190
    12  C    5.141362   2.958461   2.512074   1.555761   2.524220
    13  H    2.918529   2.145176   2.770808   3.376001   4.469840
    14  H    2.152615   2.942989   4.312671   4.661927   6.169653
    15  H    2.779830   4.206057   5.220055   5.689820   6.852669
    16  H    2.743993   4.777667   6.051852   6.436320   7.791885
    17  H    3.479789   4.289498   5.250144   5.279880   6.536973
    18  H    1.096164   4.056434   5.545207   6.424112   7.820911
    19  H    1.098521   3.233736   4.508405   5.596958   6.811929
    20  H    1.094801   2.745092   4.228113   5.297532   6.662222
    21  H    2.664812   1.094763   2.155612   3.516924   4.670010
    22  H    3.220282   1.098354   2.179089   2.906376   4.327596
    23  H    4.682109   2.156413   1.100231   2.163740   2.663685
    24  H    5.050228   2.167366   1.098331   2.174020   2.790190
    25  H    7.237977   4.263649   2.787303   2.184531   1.097088
    26  H    6.848866   4.166033   2.761195   2.189484   1.096916
    27  H    7.535729   4.756129   3.488115   2.187062   1.096674
    28  H    6.737192   4.151443   3.501885   2.183869   2.728163
    29  H    6.339008   3.529000   2.785871   2.184917   2.771660
    30  H    5.220565   2.876534   2.842247   2.206657   3.483551
    31  H    6.021834   3.949228   3.479488   2.202177   2.832290
    32  H    5.327335   3.346715   2.784622   2.174511   2.682993
                   11         12         13         14         15
    11  C    0.000000
    12  C    2.532880   0.000000
    13  H    4.430818   2.764593   0.000000
    14  H    4.744969   4.149549   3.043435   0.000000
    15  H    6.498743   4.715539   2.517904   3.068419   0.000000
    16  H    6.874093   5.509000   3.717773   2.485638   1.769242
    17  H    5.801458   4.095293   2.961799   2.492926   1.778691
    18  H    6.776969   6.054343   3.861941   2.522349   3.029339
    19  H    6.293572   5.325188   2.746536   3.078021   2.652549
    20  H    5.580333   5.329988   3.406130   2.488095   3.822144
    21  H    4.132822   3.938655   2.466923   3.358082   4.299509
    22  H    2.893376   3.403694   3.057002   2.745886   4.785347
    23  H    3.482065   2.792790   2.593863   4.849097   5.094768
    24  H    2.745968   3.471822   3.769406   5.025076   6.172110
    25  H    2.752831   3.491525   5.182080   6.753240   7.643280
    26  H    3.477703   2.779757   4.300199   6.483763   6.672681
    27  H    2.758634   2.772986   5.163768   6.676117   7.392514
    28  H    1.096309   2.797810   5.148725   5.398027   7.090633
    29  H    1.096790   3.496009   5.123946   5.428573   7.296776
    30  H    1.094989   2.782186   4.251217   3.898648   6.038971
    31  H    2.733370   1.094851   3.744191   4.746755   5.397922
    32  H    3.476389   1.099888   2.560036   4.675635   4.525745
                   16         17         18         19         20
    16  H    0.000000
    17  H    1.769107   0.000000
    18  H    2.459585   3.705683   0.000000
    19  H    3.179504   3.838876   1.767912   0.000000
    20  H    3.724911   4.348211   1.764922   1.772921   0.000000
    21  H    4.926369   4.771910   3.728379   2.673891   2.247963
    22  H    4.981487   4.596695   4.136146   3.747475   2.728085
    23  H    6.210504   5.397447   5.773571   4.462934   4.587859
    24  H    6.920364   6.249034   6.111477   5.099177   4.590578
    25  H    8.538970   7.406162   8.299312   7.271734   6.968312
    26  H    7.826297   6.570896   7.906833   6.712845   6.835751
    27  H    8.264701   6.861877   8.537035   7.637828   7.475059
    28  H    7.427616   6.190653   7.604325   7.192782   6.533638
    29  H    7.668421   6.734598   7.269589   6.744310   5.883993
    30  H    6.165110   5.233578   6.039260   5.806652   4.919231
    31  H    6.052073   4.487155   6.860771   6.286543   6.235452
    32  H    5.633007   4.203694   6.258621   5.293653   5.636920
                   21         22         23         24         25
    21  H    0.000000
    22  H    1.755196   0.000000
    23  H    2.441799   3.070946   0.000000
    24  H    2.483081   2.487294   1.758493   0.000000
    25  H    4.887256   4.561046   3.007299   2.606938   0.000000
    26  H    4.774452   4.806561   2.441706   3.147632   1.772813
    27  H    5.608008   5.061363   3.685096   3.798026   1.771528
    28  H    5.170212   3.899272   4.317729   3.750603   3.063020
    29  H    4.330777   3.167546   3.743703   2.532155   2.563700
    30  H    3.873260   2.323942   3.867846   3.131787   3.782680
    31  H    4.975164   4.221001   3.809101   4.330392   3.830432
    32  H    4.140702   4.055086   2.614210   3.792552   3.710154
                   26         27         28         29         30
    26  H    0.000000
    27  H    1.773241   0.000000
    28  H    3.749162   2.522742   0.000000
    29  H    3.779895   3.134912   1.772247   0.000000
    30  H    4.353408   3.762237   1.762965   1.772388   0.000000
    31  H    3.213277   2.638370   2.550911   3.765707   3.028769
    32  H    2.480537   3.006678   3.753334   4.326008   3.819554
                   31         32
    31  H    0.000000
    32  H    1.777484   0.000000
 Stoichiometry    C11H20O
 Framework group  C1[X(C11H20O)]
 Deg. of freedom    90
 Full point group                 C1      NOp   1
 Largest Abelian subgroup         C1      NOp   1
 Largest concise Abelian subgroup C1      NOp   1
                         Standard orientation:                         
 ---------------------------------------------------------------------
 Center     Atomic      Atomic             Coordinates (Angstroms)
 Number     Number       Type             X           Y           Z
 ---------------------------------------------------------------------
      1          8           0       -0.537462    2.003845    0.655986
      2          6           0       -0.130811    1.083366   -0.031127
      3          6           0       -0.948158   -0.185208   -0.306960
      4          6           0       -2.397277   -0.087465    0.222491
      5          6           0       -3.204808    0.945232   -0.582457
      6          6           0       -3.128763   -1.439304    0.216903
      7          6           0       -0.124118   -1.381523    0.243919
      8          6           0        1.310561   -1.413073   -0.306825
      9          6           0        2.113970   -0.112540   -0.069584
     10          6           0        3.449727   -0.184123   -0.828577
     11          6           0        2.400363    0.094468    1.431339
     12          6           0        1.275546    1.080039   -0.612902
     13          1           0       -0.981300   -0.307382   -1.403272
     14          1           0       -2.338212    0.270339    1.258969
     15          1           0       -3.306969    0.630505   -1.630146
     16          1           0       -4.215640    1.050183   -0.171242
     17          1           0       -2.730409    1.929141   -0.560162
     18          1           0       -4.169439   -1.305606    0.534227
     19          1           0       -3.147575   -1.880127   -0.789114
     20          1           0       -2.672365   -2.168125    0.894478
     21          1           0       -0.624454   -2.318749   -0.020241
     22          1           0       -0.112910   -1.336256    1.341282
     23          1           0        1.266041   -1.602526   -1.389707
     24          1           0        1.853345   -2.261524    0.131179
     25          1           0        4.064943   -1.014401   -0.460132
     26          1           0        3.289662   -0.336278   -1.903031
     27          1           0        4.026190    0.740153   -0.701696
     28          1           0        3.000318    0.998482    1.588518
     29          1           0        2.960888   -0.755513    1.839128
     30          1           0        1.484746    0.208491    2.020955
     31          1           0        1.751749    2.037590   -0.378326
     32          1           0        1.203693    0.991623   -1.706873
 ---------------------------------------------------------------------
 Rotational constants (GHZ):           1.7036239           0.5843243           0.5066058
 Standard basis: 6-31G(d) (6D, 7F)
 There are   220 symmetry adapted cartesian basis functions of A   symmetry.
 There are   220 symmetry adapted basis functions of A   symmetry.
   220 basis functions,   416 primitive gaussians,   220 cartesian basis functions
    47 alpha electrons       47 beta electrons
       nuclear repulsion energy       771.4761802483 Hartrees.
 NAtoms=   32 NActive=   32 NUniq=   32 SFac= 1.00D+00 NAtFMM=   60 NAOKFM=F Big=F
 Integral buffers will be    131072 words long.
 Raffenetti 2 integral format.
 Two-electron integral symmetry is turned on.
 One-electron integrals computed using PRISM.
 NBasis=   220 RedAO= T EigKep=  2.29D-03  NBF=   220
 NBsUse=   220 1.00D-06 EigRej= -1.00D+00 NBFU=   220
 ExpMin= 1.61D-01 ExpMax= 5.48D+03 ExpMxC= 8.25D+02 IAcc=3 IRadAn=         5 AccDes= 0.00D+00
 Harris functional with IExCor=  402 and IRadAn=       5 diagonalized for initial guess.
 HarFok:  IExCor=  402 AccDes= 0.00D+00 IRadAn=         5 IDoV= 1 UseB2=F ITyADJ=14
 ICtDFT=  3500011 ScaDFX=  1.000000  1.000000  1.000000  1.000000
 FoFCou: FMM=F IPFlag=           0 FMFlag=      100000 FMFlg1=           0
         NFxFlg=           0 DoJE=T BraDBF=F KetDBF=T FulRan=T
         wScrn=  0.000000 ICntrl=       500 IOpCl=  0 I1Cent=   200000004 NGrid=           0
         NMat0=    1 NMatS0=      1 NMatT0=    0 NMatD0=    1 NMtDS0=    0 NMtDT0=    0
 Petite list used in FoFCou.
 Requested convergence on RMS density matrix=1.00D-08 within 128 cycles.
 Requested convergence on MAX density matrix=1.00D-06.
 Requested convergence on             energy=1.00D-06.
 No special actions if energy rises.
 Integral accuracy reduced to 1.0D-05 until final iterations.
 Initial convergence to 1.0D-05 achieved.  Increase integral accuracy.
 SCF Done:  E(RB3LYP) =  -506.459072704     A.U. after   13 cycles
            NFock= 13  Conv=0.82D-08     -V/T= 2.0099
 DoSCS=F DFT=T ScalE2(SS,OS)=  1.000000  1.000000
 Range of M.O.s used for correlation:     1   220
 NBasis=   220 NAE=    47 NBE=    47 NFC=     0 NFV=     0
 NROrb=    220 NOA=    47 NOB=    47 NVA=   173 NVB=   173
 Symmetrizing basis deriv contribution to polar:
 IMax=3 JMax=2 DiffMx= 0.00D+00
 G2DrvN: will do    33 centers at a time, making    1 passes.
 Calling FoFCou, ICntrl=  3107 FMM=F I1Cent=   0 AccDes= 0.00D+00.
 End of G2Drv F.D. properties file   721 does not exist.
 End of G2Drv F.D. properties file   722 does not exist.
 End of G2Drv F.D. properties file   788 does not exist.
          IDoAtm=11111111111111111111111111111111
          Differentiating once with respect to electric field.
                with respect to dipole field.
          Differentiating once with respect to nuclear coordinates.
 Keep R1 ints in memory in canonical form, NReq=306010929.
          There are    99 degrees of freedom in the 1st order CPHF.  IDoFFX=6 NUNeed=     3.
     96 vectors produced by pass  0 Test12= 8.21D-15 1.01D-09 XBig12= 7.77D+01 2.26D+00.
 AX will form    96 AO Fock derivatives at one time.
     96 vectors produced by pass  1 Test12= 8.21D-15 1.01D-09 XBig12= 6.25D+00 4.34D-01.
     96 vectors produced by pass  2 Test12= 8.21D-15 1.01D-09 XBig12= 3.41D-02 1.54D-02.
     96 vectors produced by pass  3 Test12= 8.21D-15 1.01D-09 XBig12= 6.23D-05 9.46D-04.
     96 vectors produced by pass  4 Test12= 8.21D-15 1.01D-09 XBig12= 4.45D-08 2.81D-05.
     43 vectors produced by pass  5 Test12= 8.21D-15 1.01D-09 XBig12= 2.90D-11 5.38D-07.
      3 vectors produced by pass  6 Test12= 8.21D-15 1.01D-09 XBig12= 1.91D-14 2.19D-08.
 InvSVY:  IOpt=1 It=  1 EMax= 1.24D-14
 Solved reduced A of dimension   526 with    99 vectors.
 Isotropic polarizability for W=    0.000000      114.34 Bohr**3.
 End of Minotr F.D. properties file   721 does not exist.
 End of Minotr F.D. properties file   722 does not exist.
 End of Minotr F.D. properties file   788 does not exist.

 **********************************************************************

            Population analysis using the SCF density.

 **********************************************************************

 Orbital symmetries:
       Occupied  (A) (A) (A) (A) (A) (A) (A) (A) (A) (A) (A) (A)
                 (A) (A) (A) (A) (A) (A) (A) (A) (A) (A) (A) (A)
                 (A) (A) (A) (A) (A) (A) (A) (A) (A) (A) (A) (A)
                 (A) (A) (A) (A) (A) (A) (A) (A) (A) (A) (A)
       Virtual   (A) (A) (A) (A) (A) (A) (A) (A) (A) (A) (A) (A)
                 (A) (A) (A) (A) (A) (A) (A) (A) (A) (A) (A) (A)
                 (A) (A) (A) (A) (A) (A) (A) (A) (A) (A) (A) (A)
                 (A) (A) (A) (A) (A) (A) (A) (A) (A) (A) (A) (A)
                 (A) (A) (A) (A) (A) (A) (A) (A) (A) (A) (A) (A)
                 (A) (A) (A) (A) (A) (A) (A) (A) (A) (A) (A) (A)
                 (A) (A) (A) (A) (A) (A) (A) (A) (A) (A) (A) (A)
                 (A) (A) (A) (A) (A) (A) (A) (A) (A) (A) (A) (A)
                 (A) (A) (A) (A) (A) (A) (A) (A) (A) (A) (A) (A)
                 (A) (A) (A) (A) (A) (A) (A) (A) (A) (A) (A) (A)
                 (A) (A) (A) (A) (A) (A) (A) (A) (A) (A) (A) (A)
                 (A) (A) (A) (A) (A) (A) (A) (A) (A) (A) (A) (A)
                 (A) (A) (A) (A) (A) (A) (A) (A) (A) (A) (A) (A)
                 (A) (A) (A) (A) (A) (A) (A) (A) (A) (A) (A) (A)
                 (A) (A) (A) (A) (A)
 The electronic state is 1-A.
 Alpha  occ. eigenvalues --  -19.13365 -10.26643 -10.20707 -10.19299 -10.19072
 Alpha  occ. eigenvalues --  -10.18708 -10.18599 -10.18469 -10.17863 -10.17611
 Alpha  occ. eigenvalues --  -10.17134 -10.16346  -1.03218  -0.84589  -0.80669
 Alpha  occ. eigenvalues --   -0.75390  -0.72708  -0.68839  -0.68143  -0.67507
 Alpha  occ. eigenvalues --   -0.61127  -0.57289  -0.54394  -0.52455  -0.47425
 Alpha  occ. eigenvalues --   -0.46245  -0.45484  -0.44229  -0.43905  -0.43162
 Alpha  occ. eigenvalues --   -0.41617  -0.40324  -0.39531  -0.39180  -0.38245
 Alpha  occ. eigenvalues --   -0.37977  -0.37413  -0.36391  -0.35391  -0.34642
 Alpha  occ. eigenvalues --   -0.33628  -0.33030  -0.32147  -0.31834  -0.30968
 Alpha  occ. eigenvalues --   -0.30340  -0.23345
 Alpha virt. eigenvalues --   -0.01219   0.07635   0.09401   0.10331   0.12592
 Alpha virt. eigenvalues --    0.12847   0.13156   0.13986   0.14696   0.15281
 Alpha virt. eigenvalues --    0.16048   0.16104   0.16819   0.17549   0.18240
 Alpha virt. eigenvalues --    0.18538   0.19400   0.19746   0.19931   0.20917
 Alpha virt. eigenvalues --    0.21507   0.22601   0.23217   0.23760   0.23991
 Alpha virt. eigenvalues --    0.25164   0.25806   0.26227   0.27968   0.29107
 Alpha virt. eigenvalues --    0.29957   0.34290   0.37852   0.48660   0.49685
 Alpha virt. eigenvalues --    0.50054   0.51376   0.52593   0.53658   0.54142
 Alpha virt. eigenvalues --    0.55711   0.57080   0.60929   0.60987   0.62580
 Alpha virt. eigenvalues --    0.62751   0.65057   0.67334   0.68461   0.69426
 Alpha virt. eigenvalues --    0.70330   0.72747   0.73349   0.73605   0.74704
 Alpha virt. eigenvalues --    0.76968   0.78033   0.80373   0.81921   0.82880
 Alpha virt. eigenvalues --    0.84341   0.84995   0.86545   0.86737   0.88065
 Alpha virt. eigenvalues --    0.89092   0.89384   0.89706   0.90892   0.91238
 Alpha virt. eigenvalues --    0.91660   0.92275   0.92643   0.93330   0.94267
 Alpha virt. eigenvalues --    0.94431   0.95331   0.95403   0.96639   0.97268
 Alpha virt. eigenvalues --    0.98114   1.00255   1.00784   1.02674   1.04771
 Alpha virt. eigenvalues --    1.09655   1.13715   1.16068   1.16829   1.18153
 Alpha virt. eigenvalues --    1.22955   1.27322   1.33132   1.36482   1.41869
 Alpha virt. eigenvalues --    1.44222   1.45150   1.46754   1.51119   1.53595
 Alpha virt. eigenvalues --    1.57546   1.61175   1.64918   1.66189   1.70424
 Alpha virt. eigenvalues --    1.71068   1.72445   1.74153   1.77518   1.79679
 Alpha virt. eigenvalues --    1.80930   1.83489   1.85794   1.86334   1.88180
 Alpha virt. eigenvalues --    1.88930   1.90446   1.91756   1.96764   1.98122
 Alpha virt. eigenvalues --    1.98656   1.99470   2.00976   2.03885   2.04970
 Alpha virt. eigenvalues --    2.05834   2.06833   2.09614   2.10211   2.10995
 Alpha virt. eigenvalues --    2.14749   2.15856   2.18169   2.19701   2.22517
 Alpha virt. eigenvalues --    2.24113   2.25121   2.26947   2.28904   2.29882
 Alpha virt. eigenvalues --    2.32510   2.38174   2.38833   2.43017   2.46588
 Alpha virt. eigenvalues --    2.49083   2.50621   2.53941   2.55261   2.57057
 Alpha virt. eigenvalues --    2.62790   2.65498   2.68476   2.71654   2.74543
 Alpha virt. eigenvalues --    2.75976   2.78821   2.82260   2.87343   3.00277
 Alpha virt. eigenvalues --    3.04856   4.05534   4.13431   4.20300   4.26205
 Alpha virt. eigenvalues --    4.28796   4.29861   4.30820   4.43576   4.54641
 Alpha virt. eigenvalues --    4.57903   4.67687   4.73283
          Condensed to atoms (all electrons):
               1          2          3          4          5          6
     1  O    8.039012   0.553067  -0.090581   0.004424  -0.007390   0.000452
     2  C    0.553067   4.544264   0.294467  -0.026669  -0.002662   0.004078
     3  C   -0.090581   0.294467   5.273835   0.359319  -0.038114  -0.040998
     4  C    0.004424  -0.026669   0.359319   4.866227   0.375595   0.361024
     5  C   -0.007390  -0.002662  -0.038114   0.375595   5.128615  -0.056019
     6  C    0.000452   0.004078  -0.040998   0.361024  -0.056019   5.135864
     7  C   -0.000455  -0.029218   0.356628  -0.033939   0.003795  -0.006060
     8  C    0.000161  -0.013632  -0.035727   0.003441  -0.000119   0.000310
     9  C   -0.001091  -0.020264  -0.008285   0.000175  -0.000005  -0.000007
    10  C   -0.000056   0.003109   0.000027   0.000004   0.000000   0.000000
    11  C    0.000297  -0.002121  -0.001190  -0.000013   0.000000  -0.000000
    12  C   -0.071252   0.337318  -0.118504   0.005689  -0.000303  -0.000118
    13  H    0.002207  -0.034736   0.341345  -0.040866  -0.006212  -0.003079
    14  H    0.010407  -0.006661  -0.050073   0.376883  -0.041121  -0.046230
    15  H    0.000186  -0.000054  -0.007933  -0.036354   0.367468  -0.005377
    16  H    0.000105   0.000009   0.004475  -0.029323   0.369129  -0.003903
    17  H    0.010114   0.004603  -0.007199  -0.027947   0.369246   0.005151
    18  H    0.000002  -0.000061   0.004486  -0.030579  -0.004555   0.371495
    19  H   -0.000005  -0.000018  -0.005897  -0.031945  -0.004576   0.367435
    20  H    0.000002  -0.000057  -0.005766  -0.026353   0.005112   0.368603
    21  H   -0.000070   0.003416  -0.030687  -0.006567   0.000032   0.003429
    22  H    0.000702  -0.005112  -0.042641  -0.002265   0.000011  -0.001218
    23  H   -0.000001  -0.001210  -0.004694   0.000083  -0.000001  -0.000028
    24  H   -0.000000   0.000261   0.004260  -0.000118   0.000002   0.000003
    25  H    0.000001  -0.000104   0.000013  -0.000000   0.000000  -0.000000
    26  H    0.000000   0.000041  -0.000016   0.000000   0.000000  -0.000000
    27  H   -0.000001   0.000054  -0.000008  -0.000000   0.000000   0.000000
    28  H    0.000040  -0.000384   0.000022  -0.000001   0.000000   0.000000
    29  H    0.000012   0.000118   0.000092  -0.000001  -0.000000   0.000000
    30  H    0.001325   0.006070  -0.000439  -0.000006  -0.000000   0.000001
    31  H    0.005062  -0.022610   0.006518  -0.000152   0.000003   0.000001
    32  H    0.002064  -0.029507   0.002498  -0.000109   0.000059  -0.000003
               7          8          9         10         11         12
     1  O   -0.000455   0.000161  -0.001091  -0.000056   0.000297  -0.071252
     2  C   -0.029218  -0.013632  -0.020264   0.003109  -0.002121   0.337318
     3  C    0.356628  -0.035727  -0.008285   0.000027  -0.001190  -0.118504
     4  C   -0.033939   0.003441   0.000175   0.000004  -0.000013   0.005689
     5  C    0.003795  -0.000119  -0.000005   0.000000   0.000000  -0.000303
     6  C   -0.006060   0.000310  -0.000007   0.000000  -0.000000  -0.000118
     7  C    5.061915   0.354328  -0.031613   0.004660  -0.003506  -0.009461
     8  C    0.354328   5.094815   0.388921  -0.052498  -0.060846  -0.059044
     9  C   -0.031613   0.388921   4.762804   0.379483   0.384983   0.363012
    10  C    0.004660  -0.052498   0.379483   5.159322  -0.064438  -0.051321
    11  C   -0.003506  -0.060846   0.384983  -0.064438   5.166698  -0.067120
    12  C   -0.009461  -0.059044   0.363012  -0.051321  -0.067120   5.332767
    13  H   -0.044351  -0.001869  -0.002008  -0.000061   0.000083   0.001816
    14  H   -0.003795  -0.000032  -0.000058   0.000000  -0.000025   0.000603
    15  H    0.000040  -0.000003   0.000000   0.000000  -0.000000   0.000016
    16  H   -0.000116   0.000001   0.000000  -0.000000  -0.000000   0.000005
    17  H    0.000115  -0.000001   0.000002   0.000000  -0.000000   0.000178
    18  H    0.000287  -0.000003   0.000000  -0.000000  -0.000000   0.000002
    19  H   -0.001431  -0.000063  -0.000001  -0.000000  -0.000000   0.000002
    20  H    0.002488   0.000020  -0.000003  -0.000000  -0.000000   0.000001
    21  H    0.369170  -0.029512   0.004194  -0.000156   0.000056  -0.000233
    22  H    0.370357  -0.036325  -0.006988   0.000023   0.002813   0.000366
    23  H   -0.040658   0.364830  -0.038113  -0.006702   0.006291  -0.004331
    24  H   -0.030260   0.358131  -0.032174  -0.003786  -0.006863   0.005939
    25  H    0.000020  -0.005080  -0.028436   0.365007  -0.004269   0.005302
    26  H    0.000023  -0.005962  -0.027697   0.364349   0.005763  -0.005616
    27  H   -0.000161   0.005367  -0.027597   0.365163  -0.004638  -0.004582
    28  H   -0.000004   0.005481  -0.028380  -0.005569   0.367713  -0.004383
    29  H   -0.000203  -0.005558  -0.029964  -0.004411   0.367206   0.005560
    30  H    0.001832  -0.004869  -0.027673   0.005560   0.366797  -0.006124
    31  H   -0.000116   0.005396  -0.026150  -0.004527  -0.005900   0.336908
    32  H   -0.000462  -0.004660  -0.030745  -0.008268   0.006543   0.341514
              13         14         15         16         17         18
     1  O    0.002207   0.010407   0.000186   0.000105   0.010114   0.000002
     2  C   -0.034736  -0.006661  -0.000054   0.000009   0.004603  -0.000061
     3  C    0.341345  -0.050073  -0.007933   0.004475  -0.007199   0.004486
     4  C   -0.040866   0.376883  -0.036354  -0.029323  -0.027947  -0.030579
     5  C   -0.006212  -0.041121   0.367468   0.369129   0.369246  -0.004555
     6  C   -0.003079  -0.046230  -0.005377  -0.003903   0.005151   0.371495
     7  C   -0.044351  -0.003795   0.000040  -0.000116   0.000115   0.000287
     8  C   -0.001869  -0.000032  -0.000003   0.000001  -0.000001  -0.000003
     9  C   -0.002008  -0.000058   0.000000   0.000000   0.000002   0.000000
    10  C   -0.000061   0.000000   0.000000  -0.000000   0.000000  -0.000000
    11  C    0.000083  -0.000025  -0.000000  -0.000000  -0.000000  -0.000000
    12  C    0.001816   0.000603   0.000016   0.000005   0.000178   0.000002
    13  H    0.634458   0.006858   0.006396  -0.000015  -0.000410  -0.000130
    14  H    0.006858   0.610628   0.005781  -0.003403  -0.003216  -0.002531
    15  H    0.006396   0.005781   0.599377  -0.032271  -0.029937  -0.000188
    16  H   -0.000015  -0.003403  -0.032271   0.578347  -0.026504   0.004642
    17  H   -0.000410  -0.003216  -0.029937  -0.026504   0.537838   0.000039
    18  H   -0.000130  -0.002531  -0.000188   0.004642   0.000039   0.575787
    19  H    0.004058   0.005492   0.004691  -0.000211  -0.000092  -0.031856
    20  H   -0.000093  -0.003464  -0.000025  -0.000021  -0.000180  -0.030195
    21  H   -0.006445  -0.000259  -0.000006  -0.000004  -0.000008  -0.000045
    22  H    0.006469   0.004205   0.000009   0.000003  -0.000004  -0.000057
    23  H    0.005206   0.000005  -0.000001   0.000000  -0.000000  -0.000000
    24  H   -0.000016   0.000002   0.000000  -0.000000   0.000000  -0.000000
    25  H   -0.000001  -0.000000  -0.000000  -0.000000  -0.000000  -0.000000
    26  H   -0.000008  -0.000000  -0.000000  -0.000000  -0.000000  -0.000000
    27  H    0.000001   0.000000   0.000000  -0.000000   0.000000   0.000000
    28  H    0.000000   0.000000   0.000000   0.000000  -0.000000   0.000000
    29  H    0.000001   0.000000   0.000000  -0.000000  -0.000000  -0.000000
    30  H    0.000030   0.000080   0.000000  -0.000000   0.000000  -0.000000
    31  H   -0.000145  -0.000007  -0.000000  -0.000000   0.000003  -0.000000
    32  H    0.002059  -0.000010  -0.000014  -0.000000  -0.000058  -0.000000
              19         20         21         22         23         24
     1  O   -0.000005   0.000002  -0.000070   0.000702  -0.000001  -0.000000
     2  C   -0.000018  -0.000057   0.003416  -0.005112  -0.001210   0.000261
     3  C   -0.005897  -0.005766  -0.030687  -0.042641  -0.004694   0.004260
     4  C   -0.031945  -0.026353  -0.006567  -0.002265   0.000083  -0.000118
     5  C   -0.004576   0.005112   0.000032   0.000011  -0.000001   0.000002
     6  C    0.367435   0.368603   0.003429  -0.001218  -0.000028   0.000003
     7  C   -0.001431   0.002488   0.369170   0.370357  -0.040658  -0.030260
     8  C   -0.000063   0.000020  -0.029512  -0.036325   0.364830   0.358131
     9  C   -0.000001  -0.000003   0.004194  -0.006988  -0.038113  -0.032174
    10  C   -0.000000  -0.000000  -0.000156   0.000023  -0.006702  -0.003786
    11  C   -0.000000  -0.000000   0.000056   0.002813   0.006291  -0.006863
    12  C    0.000002   0.000001  -0.000233   0.000366  -0.004331   0.005939
    13  H    0.004058  -0.000093  -0.006445   0.006469   0.005206  -0.000016
    14  H    0.005492  -0.003464  -0.000259   0.004205   0.000005   0.000002
    15  H    0.004691  -0.000025  -0.000006   0.000009  -0.000001   0.000000
    16  H   -0.000211  -0.000021  -0.000004   0.000003   0.000000  -0.000000
    17  H   -0.000092  -0.000180  -0.000008  -0.000004  -0.000000   0.000000
    18  H   -0.031856  -0.030195  -0.000045  -0.000057  -0.000000  -0.000000
    19  H    0.591008  -0.033013   0.001335   0.000193   0.000009   0.000001
    20  H   -0.033013   0.576965   0.001008   0.001022   0.000007   0.000005
    21  H    0.001335   0.001008   0.586840  -0.037570  -0.004897  -0.002059
    22  H    0.000193   0.001022  -0.037570   0.595489   0.005616  -0.003719
    23  H    0.000009   0.000007  -0.004897   0.005616   0.617709  -0.035751
    24  H    0.000001   0.000005  -0.002059  -0.003719  -0.035751   0.604277
    25  H    0.000000   0.000000   0.000004  -0.000005  -0.000141   0.004059
    26  H   -0.000000   0.000000  -0.000004  -0.000000   0.005605  -0.000198
    27  H    0.000000   0.000000   0.000002   0.000003   0.000008  -0.000108
    28  H    0.000000   0.000000   0.000001  -0.000102  -0.000179  -0.000028
    29  H    0.000000   0.000000  -0.000011   0.000324   0.000001   0.004713
    30  H   -0.000000  -0.000002  -0.000025   0.003315  -0.000047  -0.000290
    31  H    0.000000   0.000000   0.000018  -0.000040  -0.000102  -0.000156
    32  H   -0.000000  -0.000000  -0.000020   0.000049   0.003921  -0.000080
              25         26         27         28         29         30
     1  O    0.000001   0.000000  -0.000001   0.000040   0.000012   0.001325
     2  C   -0.000104   0.000041   0.000054  -0.000384   0.000118   0.006070
     3  C    0.000013  -0.000016  -0.000008   0.000022   0.000092  -0.000439
     4  C   -0.000000   0.000000  -0.000000  -0.000001  -0.000001  -0.000006
     5  C    0.000000   0.000000   0.000000   0.000000  -0.000000  -0.000000
     6  C   -0.000000  -0.000000   0.000000   0.000000   0.000000   0.000001
     7  C    0.000020   0.000023  -0.000161  -0.000004  -0.000203   0.001832
     8  C   -0.005080  -0.005962   0.005367   0.005481  -0.005558  -0.004869
     9  C   -0.028436  -0.027697  -0.027597  -0.028380  -0.029964  -0.027673
    10  C    0.365007   0.364349   0.365163  -0.005569  -0.004411   0.005560
    11  C   -0.004269   0.005763  -0.004638   0.367713   0.367206   0.366797
    12  C    0.005302  -0.005616  -0.004582  -0.004383   0.005560  -0.006124
    13  H   -0.000001  -0.000008   0.000001   0.000000   0.000001   0.000030
    14  H   -0.000000  -0.000000   0.000000   0.000000   0.000000   0.000080
    15  H   -0.000000  -0.000000   0.000000   0.000000   0.000000   0.000000
    16  H   -0.000000  -0.000000  -0.000000   0.000000  -0.000000  -0.000000
    17  H   -0.000000  -0.000000   0.000000  -0.000000  -0.000000   0.000000
    18  H   -0.000000  -0.000000   0.000000   0.000000  -0.000000  -0.000000
    19  H    0.000000  -0.000000   0.000000   0.000000   0.000000  -0.000000
    20  H    0.000000   0.000000   0.000000   0.000000   0.000000  -0.000002
    21  H    0.000004  -0.000004   0.000002   0.000001  -0.000011  -0.000025
    22  H   -0.000005  -0.000000   0.000003  -0.000102   0.000324   0.003315
    23  H   -0.000141   0.005605   0.000008  -0.000179   0.000001  -0.000047
    24  H    0.004059  -0.000198  -0.000108  -0.000028   0.004713  -0.000290
    25  H    0.577641  -0.029865  -0.030305  -0.000163   0.003953  -0.000069
    26  H   -0.029865   0.580492  -0.030113  -0.000021  -0.000044  -0.000188
    27  H   -0.030305  -0.030113   0.575233   0.004398  -0.000176  -0.000046
    28  H   -0.000163  -0.000021   0.004398   0.568635  -0.029817  -0.028889
    29  H    0.003953  -0.000044  -0.000176  -0.029817   0.577525  -0.030012
    30  H   -0.000069  -0.000188  -0.000046  -0.028889  -0.030012   0.557172
    31  H   -0.000032  -0.000219   0.003575   0.004096   0.000021  -0.000023
    32  H    0.000072   0.005003  -0.000204  -0.000068  -0.000168   0.000023
              31         32
     1  O    0.005062   0.002064
     2  C   -0.022610  -0.029507
     3  C    0.006518   0.002498
     4  C   -0.000152  -0.000109
     5  C    0.000003   0.000059
     6  C    0.000001  -0.000003
     7  C   -0.000116  -0.000462
     8  C    0.005396  -0.004660
     9  C   -0.026150  -0.030745
    10  C   -0.004527  -0.008268
    11  C   -0.005900   0.006543
    12  C    0.336908   0.341514
    13  H   -0.000145   0.002059
    14  H   -0.000007  -0.000010
    15  H   -0.000000  -0.000014
    16  H   -0.000000  -0.000000
    17  H    0.000003  -0.000058
    18  H   -0.000000  -0.000000
    19  H    0.000000  -0.000000
    20  H    0.000000  -0.000000
    21  H    0.000018  -0.000020
    22  H   -0.000040   0.000049
    23  H   -0.000102   0.003921
    24  H   -0.000156  -0.000080
    25  H   -0.000032   0.000072
    26  H   -0.000219   0.005003
    27  H    0.003575  -0.000204
    28  H    0.004096  -0.000068
    29  H    0.000021  -0.000168
    30  H   -0.000023   0.000023
    31  H    0.572252  -0.028692
    32  H   -0.028692   0.595667
 Mulliken charges:
               1
     1  O   -0.458738
     2  C    0.444205
     3  C   -0.159233
     4  C   -0.059659
     5  C   -0.457987
     6  C   -0.454807
     7  C   -0.289846
     8  C   -0.265402
     9  C    0.083676
    10  C   -0.444919
    11  C   -0.454310
    12  C   -0.334606
    13  H    0.129457
    14  H    0.139941
    15  H    0.128198
    16  H    0.139053
    17  H    0.168265
    18  H    0.143461
    19  H    0.134885
    20  H    0.143939
    21  H    0.149074
    22  H    0.145077
    23  H    0.127565
    24  H    0.133955
    25  H    0.142399
    26  H    0.138676
    27  H    0.144132
    28  H    0.147600
    29  H    0.140840
    30  H    0.156498
    31  H    0.155017
    32  H    0.143596
 Sum of Mulliken charges =  -0.00000
 Mulliken charges with hydrogens summed into heavy atoms:
               1
     1  O   -0.458738
     2  C    0.444205
     3  C   -0.029777
     4  C    0.080282
     5  C   -0.022471
     6  C   -0.032522
     7  C    0.004305
     8  C   -0.003883
     9  C    0.083676
    10  C   -0.019712
    11  C   -0.009373
    12  C   -0.035993
 APT charges:
               1
     1  O   -0.633344
     2  C    0.698867
     3  C   -0.065317
     4  C    0.133209
     5  C    0.050796
     6  C    0.060813
     7  C    0.101340
     8  C    0.088549
     9  C    0.147591
    10  C    0.066474
    11  C    0.035924
    12  C   -0.106526
    13  H   -0.035833
    14  H   -0.042523
    15  H   -0.031487
    16  H   -0.038937
    17  H    0.013785
    18  H   -0.034104
    19  H   -0.027072
    20  H   -0.023981
    21  H   -0.039718
    22  H   -0.031294
    23  H   -0.049996
    24  H   -0.054364
    25  H   -0.031567
    26  H   -0.026973
    27  H   -0.027172
    28  H   -0.019966
    29  H   -0.023025
    30  H   -0.010956
    31  H   -0.028312
    32  H   -0.014878
 Sum of APT charges =   0.00000
 APT charges with hydrogens summed into heavy atoms:
               1
     1  O   -0.633344
     2  C    0.698867
     3  C   -0.101151
     4  C    0.090686
     5  C   -0.005844
     6  C   -0.024344
     7  C    0.030327
     8  C   -0.015812
     9  C    0.147591
    10  C   -0.019238
    11  C   -0.018022
    12  C   -0.149717
 Electronic spatial extent (au):  <R**2>=           2488.0734
 Charge=             -0.0000 electrons
 Dipole moment (field-independent basis, Debye):
    X=              1.1893    Y=             -2.1938    Z=             -1.1611  Tot=              2.7523
 Quadrupole moment (field-independent basis, Debye-Ang):
   XX=            -75.1361   YY=            -81.3858   ZZ=            -76.0110
   XY=              1.9481   XZ=              0.4419   YZ=             -2.7929
 Traceless Quadrupole moment (field-independent basis, Debye-Ang):
   XX=              2.3749   YY=             -3.8748   ZZ=              1.4999
   XY=              1.9481   XZ=              0.4419   YZ=             -2.7929
 Octapole moment (field-independent basis, Debye-Ang**2):
  XXX=             -0.1197  YYY=             -4.7796  ZZZ=              0.4767  XYY=              6.9574
  XXY=              3.9275  XXZ=              4.6080  XZZ=             -0.5426  YZZ=              0.2312
  YYZ=             -4.1993  XYZ=              0.3667
 Hexadecapole moment (field-independent basis, Debye-Ang**3):
 XXXX=          -2375.9789 YYYY=           -693.4353 ZZZZ=           -339.5651 XXXY=             -5.6713
 XXXZ=             -6.4195 YYYX=              2.4612 YYYZ=             -8.6421 ZZZX=             -4.6791
 ZZZY=              4.9731 XXYY=           -507.6593 XXZZ=           -459.2494 YYZZ=           -172.5913
 XXYZ=              1.7799 YYXZ=              5.1506 ZZXY=              0.6294
 N-N= 7.714761802483D+02 E-N=-2.716570402581D+03  KE= 5.015155884764D+02
  Exact polarizability: 133.827  -1.115 109.954  -1.746   1.460  99.228
 Approx polarizability: 159.818  -4.948 164.707  -3.923   9.253 156.936
 Calling FoFJK, ICntrl=    100127 FMM=F ISym2X=0 I1Cent= 0 IOpClX= 0 NMat=1 NMatS=1 NMatT=0.
 Full mass-weighted force constant matrix:
 Low frequencies ---   -5.3601   -3.2310   -0.0007   -0.0004    0.0009    6.8532
 Low frequencies ---   60.5765   72.4606  106.1444
 Diagonal vibrational polarizability:
        8.8822730       4.5903672       6.6219842
 Harmonic frequencies (cm**-1), IR intensities (KM/Mole), Raman scattering
 activities (A**4/AMU), depolarization ratios for plane and unpolarized
 incident light, reduced masses (AMU), force constants (mDyne/A),
 and normal coordinates:
                      1                      2                      3
                      A                      A                      A
 Frequencies --     60.5757                72.4605               106.1441
 Red. masses --      3.0868                 2.7744                 4.4514
 Frc consts  --      0.0067                 0.0086                 0.0295
 IR Inten    --      0.2472                 0.1194                 2.2450
  Atom  AN      X      Y      Z        X      Y      Z        X      Y      Z
     1   8    -0.03   0.07  -0.13     0.04   0.00  -0.09     0.15  -0.20   0.25
     2   6     0.01   0.03  -0.05     0.01  -0.02  -0.08     0.03  -0.06  -0.01
     3   6     0.00   0.03  -0.05    -0.01  -0.02  -0.03    -0.01  -0.02  -0.07
     4   6     0.03   0.03   0.04     0.02  -0.04   0.05     0.01   0.04  -0.03
     5   6    -0.05  -0.05   0.03    -0.01   0.09   0.25     0.04   0.01  -0.09
     6   6     0.06   0.01   0.21    -0.01  -0.03  -0.13    -0.04   0.07   0.13
     7   6    -0.00  -0.03  -0.16     0.01  -0.02  -0.03    -0.01  -0.04  -0.08
     8   6     0.01   0.01  -0.13     0.03  -0.01   0.02     0.02  -0.00  -0.02
     9   6    -0.00  -0.02   0.02    -0.00   0.00   0.01    -0.03   0.04  -0.03
    10   6     0.06   0.03   0.12     0.04  -0.01   0.09     0.03   0.04   0.08
    11   6    -0.12  -0.12   0.05    -0.10   0.09   0.01    -0.15   0.15  -0.02
    12   6     0.04   0.01   0.02    -0.00  -0.04  -0.10    -0.05  -0.03  -0.16
    13   1    -0.06   0.09  -0.05    -0.06  -0.04  -0.02    -0.03  -0.01  -0.07
    14   1     0.10   0.11   0.01     0.08  -0.20   0.10     0.06   0.13  -0.06
    15   1    -0.14  -0.14   0.06    -0.05   0.27   0.20    -0.03  -0.09  -0.05
    16   1    -0.01  -0.02   0.11     0.01   0.01   0.31     0.07   0.13  -0.05
    17   1    -0.06  -0.05  -0.10    -0.01   0.09   0.41     0.11  -0.02  -0.21
    18   1     0.08   0.02   0.29     0.00  -0.05  -0.07    -0.00   0.13   0.21
    19   1    -0.03  -0.07   0.24    -0.06   0.13  -0.20    -0.14  -0.01   0.16
    20   1     0.13   0.07   0.22    -0.00  -0.15  -0.26    -0.00   0.10   0.14
    21   1    -0.01   0.00  -0.26     0.02  -0.02  -0.05     0.01  -0.03  -0.13
    22   1    -0.02  -0.14  -0.16    -0.02  -0.03  -0.03    -0.06  -0.07  -0.08
    23   1     0.04   0.11  -0.15     0.07  -0.05   0.02     0.08  -0.04  -0.01
    24   1    -0.01  -0.04  -0.20     0.02   0.00   0.07     0.02   0.03   0.04
    25   1     0.03   0.00   0.12     0.03   0.02   0.17     0.03   0.09   0.17
    26   1     0.15   0.10   0.10     0.11  -0.07   0.09     0.12  -0.02   0.07
    27   1     0.05   0.02   0.23     0.02   0.01   0.08    -0.02   0.07   0.07
    28   1    -0.12  -0.14   0.16    -0.13   0.11   0.00    -0.22   0.20  -0.04
    29   1    -0.17  -0.15   0.05    -0.10   0.12   0.09    -0.13   0.21   0.07
    30   1    -0.17  -0.14  -0.01    -0.13   0.10  -0.04    -0.20   0.14  -0.09
    31   1     0.04   0.00   0.08    -0.01  -0.02  -0.18    -0.05  -0.00  -0.27
    32   1     0.09   0.06   0.02     0.00  -0.14  -0.10    -0.09  -0.16  -0.14
                      4                      5                      6
                      A                      A                      A
 Frequencies --    176.4535               197.9259               219.9053
 Red. masses --      2.8961                 2.2528                 1.1390
 Frc consts  --      0.0531                 0.0520                 0.0325
 IR Inten    --      1.9194                 0.2599                 0.4887
  Atom  AN      X      Y      Z        X      Y      Z        X      Y      Z
     1   8     0.12   0.06   0.09    -0.02  -0.06   0.01    -0.03  -0.04   0.01
     2   6     0.04   0.08   0.01    -0.01  -0.01  -0.04    -0.01  -0.01  -0.02
     3   6    -0.01   0.11  -0.01    -0.03   0.02  -0.14    -0.00  -0.02  -0.03
     4   6    -0.02  -0.00  -0.01    -0.02   0.01  -0.06     0.00  -0.01  -0.02
     5   6    -0.14  -0.09   0.01    -0.14   0.00   0.04    -0.02   0.00   0.01
     6   6     0.17  -0.11  -0.05    -0.02   0.01   0.02    -0.02   0.01   0.00
     7   6    -0.05   0.09  -0.01    -0.05   0.03  -0.10     0.02   0.02   0.02
     8   6    -0.07   0.02   0.00     0.03   0.00   0.09     0.00   0.02  -0.02
     9   6    -0.02  -0.01  -0.01     0.05   0.00   0.06     0.01   0.01   0.00
    10   6    -0.01  -0.14   0.02     0.01  -0.04  -0.01     0.02  -0.01   0.00
    11   6    -0.05   0.02  -0.01     0.15   0.04   0.03     0.02  -0.00   0.00
    12   6     0.03   0.02  -0.04     0.03  -0.00   0.05     0.02   0.03   0.02
    13   1    -0.00   0.13  -0.01    -0.03   0.05  -0.14     0.00  -0.04  -0.03
    14   1    -0.06  -0.02  -0.00     0.08   0.01  -0.07     0.03  -0.01  -0.02
    15   1    -0.15  -0.10   0.01    -0.42  -0.07   0.09    -0.13  -0.03   0.04
    16   1    -0.14  -0.19   0.04    -0.03   0.09   0.29     0.03   0.07   0.11
    17   1    -0.23  -0.04  -0.01    -0.07  -0.02  -0.15     0.03  -0.02  -0.07
    18   1     0.08  -0.24  -0.28     0.03   0.02   0.20     0.00   0.03   0.08
    19   1     0.45  -0.19  -0.02    -0.19   0.04   0.01    -0.11   0.03  -0.00
    20   1     0.13   0.01   0.10     0.08  -0.01  -0.07     0.01  -0.02  -0.05
    21   1    -0.08   0.11  -0.00    -0.00   0.02  -0.16     0.02  -0.00   0.08
    22   1    -0.05   0.10  -0.01    -0.18   0.02  -0.09     0.04   0.09   0.01
    23   1    -0.07   0.01   0.00     0.17  -0.09   0.11    -0.03   0.06  -0.02
    24   1    -0.10   0.01   0.01    -0.04   0.03   0.23     0.01   0.01  -0.06
    25   1    -0.10  -0.19   0.07    -0.03  -0.10  -0.08     0.09   0.12   0.17
    26   1    -0.00  -0.18   0.02    -0.05   0.02  -0.01     0.02  -0.24   0.04
    27   1     0.07  -0.19  -0.01     0.08  -0.09   0.01    -0.07   0.06  -0.18
    28   1     0.07  -0.05  -0.04     0.00   0.15  -0.02     0.43  -0.27  -0.04
    29   1    -0.18  -0.03   0.05     0.35   0.14  -0.03    -0.40  -0.23   0.11
    30   1    -0.05   0.18  -0.05     0.19  -0.13   0.12     0.04   0.48  -0.06
    31   1     0.08   0.00  -0.07     0.01   0.00   0.08    -0.01   0.02   0.08
    32   1     0.00  -0.01  -0.04     0.09   0.01   0.05     0.06   0.08   0.01
                      7                      8                      9
                      A                      A                      A
 Frequencies --    230.7312               253.4052               261.9224
 Red. masses --      1.0729                 1.2392                 2.2472
 Frc consts  --      0.0337                 0.0469                 0.0908
 IR Inten    --      0.0380                 0.4549                 1.7847
  Atom  AN      X      Y      Z        X      Y      Z        X      Y      Z
     1   8     0.01  -0.00   0.01     0.04   0.03  -0.00     0.11   0.03   0.01
     2   6     0.00   0.00  -0.00     0.01   0.00   0.01     0.02   0.01  -0.02
     3   6    -0.01   0.01  -0.02    -0.01   0.02  -0.00    -0.03   0.01   0.04
     4   6    -0.01  -0.00  -0.01    -0.02   0.02  -0.00    -0.07  -0.02   0.00
     5   6    -0.02  -0.01  -0.02    -0.04   0.00  -0.00    -0.11  -0.07  -0.02
     6   6    -0.01  -0.00   0.04     0.01  -0.00   0.00    -0.11  -0.00  -0.04
     7   6    -0.01   0.01  -0.02    -0.02  -0.01  -0.03     0.04   0.08   0.11
     8   6     0.00   0.01   0.00     0.00  -0.03   0.02    -0.00   0.02  -0.04
     9   6     0.01   0.00   0.01     0.00  -0.03   0.01     0.04  -0.01  -0.02
    10   6     0.01  -0.03   0.00    -0.00   0.08  -0.01     0.09   0.08   0.05
    11   6     0.02   0.01   0.00     0.03  -0.04   0.01     0.02  -0.09  -0.01
    12   6     0.01   0.01   0.00    -0.00  -0.04  -0.00     0.01  -0.04  -0.06
    13   1    -0.01   0.02  -0.02    -0.02   0.04  -0.00    -0.01  -0.06   0.04
    14   1    -0.01   0.01  -0.01    -0.03   0.02  -0.00    -0.10  -0.02   0.00
    15   1     0.41   0.23  -0.13     0.03   0.04  -0.02    -0.21  -0.17   0.02
    16   1    -0.18  -0.38  -0.33    -0.06  -0.07  -0.05    -0.08  -0.02   0.05
    17   1    -0.27   0.10   0.39    -0.09   0.03   0.06    -0.11  -0.07  -0.16
    18   1     0.07  -0.02   0.30    -0.02  -0.01  -0.09    -0.03  -0.00   0.22
    19   1    -0.26   0.09   0.00     0.10  -0.05   0.02    -0.36   0.17  -0.11
    20   1     0.15  -0.06  -0.14    -0.02   0.04   0.07     0.01  -0.14  -0.27
    21   1     0.00   0.01  -0.04    -0.03   0.01  -0.07     0.03   0.04   0.28
    22   1    -0.02  -0.01  -0.02    -0.06  -0.04  -0.02     0.15   0.21   0.10
    23   1     0.02   0.01   0.00     0.04  -0.06   0.03    -0.11   0.07  -0.04
    24   1    -0.01   0.01   0.01    -0.03  -0.03   0.06    -0.01  -0.02  -0.11
    25   1    -0.01  -0.04   0.01     0.29   0.43   0.29     0.07   0.05  -0.01
    26   1     0.01  -0.04   0.01     0.01  -0.38   0.06     0.17   0.22   0.02
    27   1     0.03  -0.04  -0.01    -0.30   0.32  -0.39     0.06   0.08   0.21
    28   1     0.06  -0.01  -0.02    -0.05   0.01   0.03    -0.03  -0.08   0.07
    29   1    -0.02  -0.00   0.02     0.12  -0.01  -0.04     0.07  -0.10  -0.09
    30   1     0.03   0.07   0.00     0.03  -0.15   0.04     0.02  -0.20   0.01
    31   1     0.00   0.01   0.01     0.01  -0.05  -0.04     0.01  -0.02  -0.13
    32   1     0.02   0.01   0.00    -0.01  -0.08   0.00    -0.00  -0.12  -0.05
                     10                     11                     12
                      A                      A                      A
 Frequencies --    271.9330               290.6886               293.3168
 Red. masses --      1.5177                 2.1516                 1.6948
 Frc consts  --      0.0661                 0.1071                 0.0859
 IR Inten    --      0.3241                 0.1223                 1.8509
  Atom  AN      X      Y      Z        X      Y      Z        X      Y      Z
     1   8    -0.01  -0.09  -0.01     0.02  -0.01   0.00     0.07   0.07  -0.02
     2   6    -0.02  -0.04  -0.07     0.01   0.02  -0.04     0.01   0.00   0.05
     3   6    -0.03  -0.02  -0.06     0.04   0.02  -0.07    -0.02   0.01   0.05
     4   6    -0.02   0.02  -0.03     0.07   0.02  -0.05    -0.04  -0.00   0.03
     5   6    -0.04   0.06   0.03     0.03   0.01   0.01    -0.02  -0.02  -0.02
     6   6     0.01   0.01   0.04     0.13  -0.00  -0.00    -0.05  -0.00  -0.01
     7   6     0.00   0.05   0.04    -0.02   0.03   0.05    -0.03  -0.07  -0.09
     8   6    -0.00   0.01   0.01    -0.01  -0.06   0.10     0.04  -0.04   0.04
     9   6     0.02   0.00   0.00    -0.05  -0.02   0.02     0.01  -0.02   0.03
    10   6     0.03   0.07   0.02    -0.11   0.10  -0.08    -0.01   0.09  -0.02
    11   6     0.03  -0.05   0.01    -0.10  -0.09   0.04     0.05   0.03   0.02
    12   6     0.00  -0.02  -0.02    -0.01  -0.01  -0.01    -0.02  -0.07  -0.01
    13   1    -0.04  -0.10  -0.05     0.07  -0.03  -0.06    -0.04   0.11   0.03
    14   1     0.02   0.03  -0.03     0.12   0.01  -0.05    -0.08  -0.00   0.03
    15   1     0.10   0.22  -0.03    -0.05   0.02   0.01     0.02  -0.05  -0.01
    16   1    -0.09  -0.11  -0.06     0.05   0.02   0.08    -0.03  -0.01  -0.05
    17   1    -0.14   0.10   0.24     0.03   0.01  -0.02    -0.02  -0.02  -0.03
    18   1    -0.10   0.04  -0.34     0.21  -0.08   0.30    -0.08   0.01  -0.11
    19   1     0.36  -0.24   0.14    -0.13   0.11  -0.05     0.04  -0.02  -0.00
    20   1    -0.18   0.19   0.36     0.33  -0.06  -0.21    -0.12   0.00   0.04
    21   1     0.00   0.01   0.17    -0.03   0.03   0.10    -0.02  -0.02  -0.27
    22   1     0.03   0.18   0.04    -0.07   0.12   0.05    -0.11  -0.24  -0.08
    23   1    -0.02  -0.01   0.01     0.03  -0.20   0.13     0.15  -0.11   0.05
    24   1    -0.01   0.00   0.02    -0.02   0.01   0.24     0.00  -0.01   0.14
    25   1    -0.01  -0.01  -0.11    -0.04   0.07  -0.27    -0.02  -0.03  -0.25
    26   1     0.05   0.27  -0.01    -0.22   0.27  -0.08    -0.04   0.36  -0.06
    27   1     0.05   0.03   0.20    -0.14   0.11   0.00     0.03   0.03   0.19
    28   1     0.10  -0.10   0.04    -0.02  -0.16   0.12     0.34  -0.15  -0.06
    29   1    -0.02  -0.11  -0.03    -0.21  -0.17   0.03    -0.24  -0.11   0.12
    30   1     0.05  -0.02   0.03    -0.12  -0.03  -0.01     0.07   0.39  -0.02
    31   1    -0.03  -0.00  -0.01     0.03  -0.03  -0.02    -0.00  -0.05  -0.12
    32   1     0.05  -0.03  -0.02     0.02  -0.04  -0.01    -0.08  -0.17   0.00
                     13                     14                     15
                      A                      A                      A
 Frequencies --    364.6468               372.1103               391.8713
 Red. masses --      2.1786                 3.2339                 2.3771
 Frc consts  --      0.1707                 0.2638                 0.2151
 IR Inten    --      0.2552                 0.7320                 0.2312
  Atom  AN      X      Y      Z        X      Y      Z        X      Y      Z
     1   8    -0.08  -0.01   0.01     0.13   0.04  -0.01    -0.08   0.07   0.06
     2   6    -0.06  -0.01   0.01    -0.01   0.04  -0.09    -0.05   0.09   0.04
     3   6    -0.05   0.02   0.03    -0.05   0.00  -0.08     0.01   0.05  -0.04
     4   6    -0.01   0.05   0.03    -0.01  -0.14   0.00     0.01  -0.07  -0.02
     5   6     0.06   0.06  -0.03     0.18  -0.03   0.02     0.06  -0.01   0.02
     6   6     0.15  -0.02  -0.01    -0.10  -0.13   0.05    -0.07  -0.04   0.03
     7   6    -0.05   0.01  -0.01    -0.05   0.07  -0.05     0.02   0.07  -0.03
     8   6    -0.05   0.01  -0.02    -0.06   0.12   0.00     0.08  -0.06   0.09
     9   6    -0.04  -0.01  -0.00    -0.04   0.08   0.09     0.01   0.01  -0.10
    10   6     0.03   0.01   0.11    -0.11  -0.01   0.02     0.09  -0.03   0.03
    11   6     0.13  -0.02  -0.03     0.07  -0.04   0.10    -0.03  -0.09  -0.10
    12   6    -0.10  -0.06  -0.07    -0.01   0.04  -0.05    -0.05   0.04  -0.05
    13   1    -0.08   0.02   0.03    -0.08  -0.01  -0.08     0.04   0.12  -0.05
    14   1    -0.03   0.05   0.03     0.03  -0.18   0.01     0.03  -0.08  -0.02
    15   1     0.05   0.01  -0.01     0.20   0.02  -0.00     0.05   0.04   0.00
    16   1     0.07   0.19  -0.05     0.17   0.18  -0.06     0.06   0.04   0.01
    17   1     0.16   0.02  -0.08     0.38  -0.13   0.07     0.12  -0.04   0.06
    18   1     0.17  -0.23   0.16    -0.09  -0.02   0.03    -0.07   0.08  -0.00
    19   1     0.08   0.09  -0.06    -0.12  -0.21   0.09    -0.09  -0.13   0.07
    20   1     0.36  -0.02  -0.16    -0.16  -0.11   0.12    -0.15  -0.02   0.11
    21   1    -0.04   0.01  -0.03    -0.02   0.05  -0.04    -0.00   0.08  -0.02
    22   1    -0.03  -0.01  -0.01    -0.09   0.10  -0.05    -0.04   0.11  -0.03
    23   1    -0.07   0.06  -0.03    -0.05   0.23  -0.02     0.22  -0.41   0.15
    24   1    -0.07  -0.03  -0.07    -0.07   0.07  -0.09     0.04   0.10   0.45
    25   1    -0.02   0.01   0.19    -0.12  -0.02   0.01     0.01  -0.03   0.17
    26   1     0.19   0.03   0.09    -0.21  -0.07   0.04     0.25  -0.09   0.01
    27   1     0.00   0.01   0.22    -0.05  -0.03  -0.09     0.11  -0.05   0.07
    28   1     0.24  -0.07  -0.13     0.11  -0.07   0.14     0.01  -0.14   0.03
    29   1     0.14  -0.07  -0.13     0.10  -0.10  -0.07    -0.09  -0.17  -0.17
    30   1     0.24   0.04   0.12     0.13  -0.11   0.20    -0.04  -0.12  -0.12
    31   1    -0.08  -0.02  -0.27    -0.06   0.07  -0.10     0.01   0.03  -0.10
    32   1    -0.19  -0.25  -0.05     0.09  -0.09  -0.04    -0.16   0.04  -0.04
                     16                     17                     18
                      A                      A                      A
 Frequencies --    412.2615               433.0964               450.2023
 Red. masses --      2.1901                 2.3863                 2.3166
 Frc consts  --      0.2193                 0.2637                 0.2766
 IR Inten    --      0.4171                 0.4483                 1.9925
  Atom  AN      X      Y      Z        X      Y      Z        X      Y      Z
     1   8    -0.04  -0.05   0.00    -0.02   0.03   0.00    -0.07   0.05   0.04
     2   6    -0.01  -0.01  -0.04    -0.03  -0.02   0.07    -0.02   0.06   0.05
     3   6     0.01  -0.01   0.05    -0.04   0.00   0.02     0.08   0.04  -0.07
     4   6     0.03   0.06   0.08    -0.11  -0.01  -0.08     0.12  -0.02  -0.06
     5   6    -0.04  -0.05  -0.00    -0.03   0.14  -0.04     0.00  -0.07   0.03
     6   6     0.01   0.10  -0.04     0.01  -0.09   0.04    -0.03   0.07  -0.01
     7   6     0.05  -0.04  -0.02     0.09   0.03  -0.00     0.08   0.06  -0.02
     8   6     0.07   0.10   0.05     0.10   0.05  -0.03     0.02  -0.05  -0.09
     9   6     0.01   0.11   0.04     0.10   0.01   0.04    -0.03  -0.07   0.06
    10   6    -0.03  -0.06  -0.03     0.04  -0.05  -0.10    -0.08  -0.01   0.02
    11   6     0.01  -0.10   0.07    -0.06  -0.00   0.08     0.03   0.03   0.06
    12   6    -0.04   0.04  -0.11    -0.03  -0.09   0.01    -0.06  -0.10  -0.01
    13   1    -0.06  -0.03   0.05     0.02   0.03   0.02     0.14   0.08  -0.08
    14   1     0.01   0.08   0.07    -0.15   0.00  -0.08     0.17  -0.03  -0.06
    15   1     0.02  -0.18   0.03    -0.12   0.26  -0.06    -0.03  -0.03   0.03
    16   1    -0.07  -0.16  -0.04     0.00   0.27   0.02     0.01  -0.23   0.10
    17   1    -0.18   0.01  -0.09     0.12   0.06   0.05    -0.13  -0.00   0.05
    18   1    -0.02   0.09  -0.15     0.03  -0.22   0.15    -0.02   0.28  -0.07
    19   1     0.11   0.20  -0.09    -0.02  -0.20   0.09    -0.07   0.00   0.02
    20   1    -0.08   0.02  -0.07     0.21   0.06   0.06    -0.20   0.03   0.07
    21   1     0.12  -0.03  -0.17     0.14   0.00   0.02    -0.02   0.06   0.17
    22   1    -0.03  -0.17  -0.01     0.13   0.03  -0.01     0.20   0.22  -0.03
    23   1     0.13   0.07   0.05     0.09   0.13  -0.04    -0.01   0.12  -0.12
    24   1     0.12   0.15   0.08     0.07  -0.01  -0.09    -0.00  -0.14  -0.22
    25   1    -0.11  -0.10   0.01     0.04  -0.08  -0.16    -0.04  -0.01  -0.03
    26   1    -0.14  -0.17   0.00    -0.13  -0.09  -0.06    -0.14   0.00   0.03
    27   1     0.10  -0.12  -0.18     0.12  -0.08  -0.24    -0.09  -0.00   0.00
    28   1     0.05  -0.16   0.30    -0.11   0.01   0.20     0.03   0.05  -0.09
    29   1    -0.05  -0.22  -0.11    -0.12  -0.00   0.17     0.07   0.08   0.11
    30   1    -0.01  -0.20   0.08    -0.16  -0.03  -0.07     0.07   0.10   0.11
    31   1    -0.08   0.11  -0.32    -0.05  -0.03  -0.21     0.06  -0.09  -0.31
    32   1    -0.07  -0.20  -0.09    -0.15  -0.28   0.03    -0.21  -0.36   0.02
                     19                     20                     21
                      A                      A                      A
 Frequencies --    463.1462               539.8978               609.3200
 Red. masses --      2.7025                 2.5570                 4.0330
 Frc consts  --      0.3416                 0.4391                 0.8822
 IR Inten    --      0.1395                 2.6912                 7.3248
  Atom  AN      X      Y      Z        X      Y      Z        X      Y      Z
     1   8    -0.05  -0.06   0.00     0.09   0.02   0.00    -0.15  -0.06   0.08
     2   6    -0.04  -0.02  -0.04    -0.07  -0.00  -0.07     0.07   0.19  -0.14
     3   6    -0.10   0.08  -0.03    -0.05  -0.02  -0.01     0.06   0.08   0.09
     4   6    -0.01   0.02   0.18    -0.07   0.04   0.07    -0.09   0.01   0.06
     5   6     0.09  -0.08   0.01    -0.03   0.03  -0.02    -0.04   0.06  -0.03
     6   6     0.01   0.02  -0.02     0.01   0.01  -0.00    -0.06  -0.10   0.01
     7   6    -0.03   0.17  -0.07     0.17   0.01  -0.06     0.04  -0.04   0.01
     8   6    -0.00  -0.00  -0.01     0.15  -0.09  -0.06     0.02  -0.13  -0.04
     9   6     0.09  -0.07   0.02    -0.09  -0.01   0.01    -0.01  -0.09   0.05
    10   6     0.08   0.00  -0.08    -0.13  -0.03   0.07    -0.05   0.01   0.01
    11   6    -0.04   0.03   0.04     0.01  -0.00  -0.01     0.03   0.01   0.08
    12   6     0.03  -0.09   0.05    -0.07   0.02   0.05     0.20   0.10  -0.17
    13   1    -0.29   0.08  -0.03    -0.17  -0.04  -0.00    -0.03  -0.04   0.10
    14   1    -0.00   0.01   0.18    -0.07   0.06   0.06    -0.21  -0.02   0.07
    15   1     0.28  -0.29   0.05     0.03  -0.03  -0.01    -0.00   0.05  -0.03
    16   1     0.02   0.02  -0.20    -0.05   0.09  -0.10    -0.05   0.18  -0.09
    17   1     0.11  -0.09  -0.12     0.00   0.02  -0.06     0.06   0.01  -0.03
    18   1    -0.03  -0.05  -0.11    -0.02  -0.14  -0.03    -0.06  -0.17   0.04
    19   1     0.12   0.23  -0.12     0.10   0.09  -0.04    -0.05  -0.08   0.01
    20   1    -0.05  -0.11  -0.13     0.08   0.00  -0.05    -0.00  -0.08  -0.00
    21   1    -0.05   0.14   0.06     0.12  -0.03   0.20    -0.10   0.05  -0.06
    22   1    -0.01   0.28  -0.07     0.36   0.19  -0.07     0.12  -0.16   0.01
    23   1     0.06  -0.04  -0.00     0.31  -0.23  -0.04     0.03  -0.08  -0.05
    24   1    -0.16  -0.06   0.07     0.15   0.03   0.15     0.02  -0.15  -0.07
    25   1     0.16   0.02  -0.17    -0.20  -0.05   0.12     0.09   0.05  -0.12
    26   1    -0.02   0.04  -0.07    -0.11  -0.07   0.07    -0.14   0.09   0.01
    27   1     0.04   0.03  -0.10    -0.07  -0.06   0.05    -0.14   0.07   0.01
    28   1    -0.12   0.08   0.04     0.04  -0.00  -0.13     0.02   0.03  -0.05
    29   1    -0.06   0.10   0.21     0.07   0.01  -0.07     0.08   0.06   0.12
    30   1    -0.13   0.05  -0.11     0.10   0.03   0.11     0.06   0.05   0.12
    31   1     0.01  -0.08   0.08    -0.11  -0.03   0.32     0.42   0.01  -0.21
    32   1     0.07  -0.05   0.04     0.11   0.23   0.02     0.32  -0.01  -0.16
                     22                     23                     24
                      A                      A                      A
 Frequencies --    667.4992               737.9721               772.3967
 Red. masses --      4.4709                 2.1927                 2.5311
 Frc consts  --      1.1737                 0.7036                 0.8897
 IR Inten    --      2.2469                 2.9274                 2.5912
  Atom  AN      X      Y      Z        X      Y      Z        X      Y      Z
     1   8    -0.05  -0.13  -0.12     0.00   0.02  -0.03     0.03  -0.07  -0.05
     2   6     0.23  -0.17   0.17     0.09  -0.05   0.11    -0.04  -0.09  -0.04
     3   6     0.08   0.09   0.08    -0.01  -0.06  -0.04     0.07   0.12   0.18
     4   6    -0.04   0.00   0.02    -0.01   0.01   0.02     0.04  -0.02  -0.06
     5   6    -0.02   0.02  -0.01    -0.01   0.01  -0.00     0.01  -0.01  -0.01
     6   6    -0.05  -0.06   0.01     0.00  -0.01   0.00     0.01  -0.00  -0.02
     7   6     0.03   0.16  -0.08    -0.08  -0.06  -0.05     0.00   0.11  -0.02
     8   6     0.00   0.12   0.00    -0.06  -0.11  -0.09    -0.03  -0.06  -0.05
     9   6    -0.06   0.04  -0.03    -0.01   0.07  -0.02    -0.01  -0.01  -0.02
    10   6    -0.18   0.02   0.09     0.05   0.01  -0.03     0.04  -0.00  -0.03
    11   6    -0.03  -0.01  -0.12     0.02   0.03   0.13     0.02   0.01   0.12
    12   6     0.14  -0.07   0.02     0.01   0.12  -0.04    -0.12   0.02  -0.06
    13   1     0.09   0.30   0.05    -0.05   0.12  -0.06     0.16   0.12   0.17
    14   1    -0.14  -0.02   0.04     0.03   0.01   0.02    -0.16  -0.04  -0.04
    15   1    -0.01   0.02  -0.01     0.03  -0.03   0.01    -0.12   0.10  -0.03
    16   1    -0.03   0.07  -0.04    -0.02   0.03  -0.05     0.07  -0.08   0.15
    17   1     0.02  -0.00  -0.00     0.00   0.00  -0.02    -0.02  -0.00   0.07
    18   1    -0.04  -0.04   0.02    -0.01  -0.07  -0.00     0.06   0.20   0.07
    19   1    -0.07  -0.08   0.02     0.04   0.04  -0.02    -0.16  -0.14   0.05
    20   1    -0.05  -0.06   0.02     0.03  -0.02  -0.03    -0.05   0.04   0.07
    21   1     0.05   0.13   0.00    -0.16  -0.16   0.49    -0.19   0.27  -0.21
    22   1     0.09   0.20  -0.08     0.21   0.39  -0.06     0.08  -0.15  -0.01
    23   1     0.17  -0.09   0.03     0.12  -0.32  -0.06     0.04  -0.18  -0.03
    24   1    -0.05   0.22   0.26    -0.07   0.02   0.18    -0.15  -0.06   0.10
    25   1    -0.19   0.03   0.13     0.00  -0.02  -0.01     0.02  -0.02  -0.02
    26   1    -0.15   0.01   0.09     0.03  -0.04  -0.02     0.05  -0.02  -0.03
    27   1    -0.19   0.03   0.10     0.12  -0.02  -0.09     0.07  -0.02  -0.04
    28   1     0.01  -0.04  -0.14     0.04   0.01   0.18     0.04   0.01   0.09
    29   1    -0.01  -0.04  -0.22     0.02  -0.01   0.05     0.04   0.01   0.09
    30   1     0.03  -0.02  -0.03     0.05  -0.00   0.18     0.06   0.02   0.18
    31   1     0.19  -0.05  -0.16    -0.03   0.18  -0.20    -0.31   0.03   0.28
    32   1    -0.10  -0.18   0.04    -0.19   0.01  -0.02     0.06   0.30  -0.09
                     25                     26                     27
                      A                      A                      A
 Frequencies --    850.2974               894.4644               903.2966
 Red. masses --      2.1787                 2.1924                 2.0866
 Frc consts  --      0.9281                 1.0335                 1.0031
 IR Inten    --      1.4005                 0.2136                 0.3099
  Atom  AN      X      Y      Z        X      Y      Z        X      Y      Z
     1   8    -0.01   0.03   0.03     0.01   0.02   0.01     0.02  -0.03   0.01
     2   6    -0.04   0.03  -0.00    -0.02   0.02  -0.00    -0.01   0.06  -0.12
     3   6    -0.11  -0.09   0.10     0.05  -0.11   0.01     0.03   0.02   0.06
     4   6    -0.04  -0.04  -0.10     0.09   0.01   0.05     0.06   0.01   0.01
     5   6     0.06  -0.09   0.03    -0.04   0.10  -0.05    -0.01   0.04  -0.03
     6   6     0.06   0.12  -0.04    -0.03  -0.08   0.03     0.00  -0.06   0.00
     7   6    -0.01   0.00  -0.04     0.06   0.04  -0.04    -0.05  -0.02   0.02
     8   6    -0.04   0.09  -0.05    -0.10   0.14  -0.01    -0.04  -0.03  -0.08
     9   6     0.00  -0.02   0.01    -0.05  -0.09  -0.02     0.01   0.10   0.03
    10   6    -0.01  -0.01   0.01     0.04  -0.05  -0.04     0.02   0.06  -0.01
    11   6    -0.00  -0.01  -0.01    -0.01  -0.03   0.06    -0.00   0.01  -0.06
    12   6     0.10  -0.02  -0.02    -0.02   0.01  -0.00     0.01  -0.04   0.17
    13   1    -0.16  -0.12   0.10     0.05  -0.18   0.02    -0.05  -0.22   0.09
    14   1    -0.21  -0.03  -0.09     0.19   0.06   0.02    -0.00  -0.01   0.02
    15   1    -0.11   0.12  -0.02    -0.06   0.00  -0.02    -0.06   0.02  -0.02
    16   1     0.13  -0.14   0.22    -0.04  -0.04  -0.03     0.00  -0.04   0.03
    17   1     0.08  -0.11   0.19    -0.20   0.18  -0.17    -0.10   0.09  -0.07
    18   1     0.10   0.15   0.08    -0.06  -0.08  -0.08     0.02   0.09   0.01
    19   1    -0.03  -0.07   0.05     0.04   0.08  -0.04    -0.10  -0.05  -0.00
    20   1     0.16   0.29   0.07    -0.13  -0.23  -0.06    -0.12  -0.13   0.01
    21   1     0.09  -0.10   0.11     0.20  -0.03  -0.10    -0.22   0.07   0.03
    22   1     0.23   0.02  -0.04     0.13  -0.06  -0.04     0.14  -0.09   0.02
    23   1     0.23  -0.21  -0.01     0.07  -0.16   0.04     0.13  -0.25  -0.05
    24   1    -0.15   0.21   0.32    -0.21   0.24   0.31    -0.05   0.10   0.19
    25   1     0.07   0.02  -0.05     0.22   0.07  -0.08    -0.23  -0.07   0.12
    26   1    -0.05   0.04   0.01     0.16   0.09  -0.08    -0.02  -0.13   0.02
    27   1    -0.08   0.04   0.01    -0.20   0.08   0.12     0.30  -0.10  -0.15
    28   1    -0.02   0.01  -0.09    -0.03   0.03  -0.21    -0.02   0.01  -0.00
    29   1     0.03   0.03   0.05     0.09   0.10   0.20    -0.03  -0.01  -0.06
    30   1     0.01   0.03   0.00     0.06   0.10   0.14    -0.04  -0.00  -0.11
    31   1     0.15  -0.04  -0.04     0.02  -0.01  -0.01    -0.00   0.06  -0.21
    32   1     0.19  -0.08  -0.02    -0.05   0.01  -0.00     0.03  -0.47   0.20
                     28                     29                     30
                      A                      A                      A
 Frequencies --    933.9067               940.3179               942.1437
 Red. masses --      1.9861                 1.2442                 1.7478
 Frc consts  --      1.0206                 0.6482                 0.9141
 IR Inten    --      0.0729                 3.4271                 4.2743
  Atom  AN      X      Y      Z        X      Y      Z        X      Y      Z
     1   8     0.03  -0.02  -0.03    -0.00  -0.00  -0.00    -0.01   0.03   0.02
     2   6     0.02  -0.02  -0.02     0.02   0.01  -0.01    -0.06  -0.02   0.03
     3   6     0.01  -0.03   0.02     0.01   0.00  -0.02    -0.03  -0.03   0.06
     4   6    -0.02  -0.01  -0.00    -0.03  -0.03   0.00     0.09  -0.03   0.02
     5   6    -0.00  -0.03  -0.01    -0.03  -0.06  -0.03    -0.02   0.05  -0.07
     6   6     0.01   0.02   0.01     0.02   0.02   0.07     0.04  -0.05   0.04
     7   6     0.01   0.04  -0.02     0.01   0.02   0.02    -0.05  -0.02  -0.05
     8   6    -0.00  -0.04   0.01    -0.00  -0.00  -0.01     0.02  -0.01   0.02
     9   6     0.09  -0.06   0.08    -0.03   0.01  -0.04     0.05   0.02   0.06
    10   6    -0.02  -0.03   0.06    -0.00   0.01  -0.03     0.00   0.00   0.06
    11   6     0.03  -0.06  -0.09     0.00   0.01   0.04    -0.01   0.02  -0.07
    12   6    -0.07   0.19   0.04     0.01  -0.02   0.02     0.03  -0.04  -0.09
    13   1    -0.03  -0.07   0.03     0.05  -0.06  -0.01    -0.07   0.15   0.03
    14   1    -0.07   0.11  -0.04    -0.02   0.34  -0.13     0.05   0.14  -0.03
    15   1    -0.07   0.14  -0.05    -0.13   0.35  -0.15    -0.17   0.20  -0.10
    16   1     0.04   0.02   0.07     0.05   0.15   0.10     0.04  -0.04   0.11
    17   1     0.08  -0.07   0.13     0.26  -0.21   0.33    -0.09   0.08   0.02
    18   1    -0.01  -0.01  -0.04    -0.06  -0.02  -0.17     0.03   0.18  -0.08
    19   1     0.05   0.10  -0.02     0.18   0.40  -0.10    -0.02   0.16  -0.06
    20   1    -0.01  -0.04  -0.03    -0.13  -0.26  -0.14    -0.25  -0.32  -0.06
    21   1    -0.00   0.06  -0.05     0.00   0.05  -0.09    -0.09  -0.07   0.21
    22   1     0.00  -0.01  -0.02    -0.04  -0.08   0.02     0.04   0.21  -0.05
    23   1     0.01   0.03   0.00    -0.05  -0.06  -0.00     0.11   0.16  -0.01
    24   1    -0.12  -0.13  -0.02     0.03   0.03   0.01    -0.07  -0.11  -0.06
    25   1     0.19   0.03  -0.15    -0.10  -0.00   0.09     0.09  -0.03  -0.15
    26   1    -0.23   0.07   0.08     0.13  -0.03  -0.04    -0.30   0.03   0.10
    27   1    -0.15   0.06   0.01     0.04  -0.02   0.03     0.03   0.01  -0.12
    28   1    -0.12   0.05  -0.20     0.02  -0.00   0.04     0.03  -0.03   0.10
    29   1     0.00   0.09   0.26     0.01  -0.00   0.00    -0.06  -0.08  -0.21
    30   1    -0.11   0.06  -0.33     0.02   0.00   0.07    -0.02  -0.08  -0.08
    31   1    -0.25   0.36  -0.30     0.07  -0.05  -0.01    -0.04  -0.07   0.19
    32   1    -0.21  -0.18   0.07    -0.04  -0.02   0.02     0.25   0.18  -0.12
                     31                     32                     33
                      A                      A                      A
 Frequencies --    957.6331               974.0411               994.0777
 Red. masses --      1.6127                 1.4588                 1.6706
 Frc consts  --      0.8714                 0.8155                 0.9726
 IR Inten    --      2.3706                 0.3927                 2.4857
  Atom  AN      X      Y      Z        X      Y      Z        X      Y      Z
     1   8     0.00  -0.01  -0.01     0.00  -0.01  -0.01    -0.00   0.03   0.01
     2   6     0.02   0.00  -0.01     0.01   0.00  -0.01    -0.03  -0.02   0.05
     3   6     0.03   0.03  -0.01    -0.02   0.05  -0.00     0.02  -0.09  -0.03
     4   6    -0.03   0.00  -0.00     0.01  -0.08   0.03    -0.02  -0.07   0.01
     5   6    -0.01  -0.03   0.01    -0.10   0.02  -0.01    -0.07   0.03   0.02
     6   6    -0.00   0.02   0.00     0.11   0.02  -0.02     0.03   0.06   0.00
     7   6     0.01  -0.02   0.00    -0.00  -0.05   0.01     0.03   0.09   0.02
     8   6    -0.00   0.01   0.02     0.01   0.03   0.01    -0.05  -0.05  -0.05
     9   6    -0.09   0.00   0.09    -0.02  -0.02  -0.01     0.05   0.03  -0.01
    10   6     0.13  -0.01   0.00    -0.00  -0.02  -0.02    -0.01   0.04   0.06
    11   6    -0.11  -0.02  -0.04     0.00  -0.02   0.01    -0.00   0.02  -0.01
    12   6    -0.02   0.01   0.02    -0.01   0.02   0.01     0.04  -0.01  -0.04
    13   1     0.05   0.06  -0.02    -0.10   0.09  -0.00     0.21  -0.28  -0.01
    14   1    -0.04   0.01  -0.01    -0.05  -0.25   0.09     0.19  -0.20   0.04
    15   1     0.03   0.01  -0.00     0.12   0.03  -0.04     0.17  -0.11   0.03
    16   1    -0.01   0.07  -0.03    -0.17   0.34  -0.27    -0.17   0.24  -0.27
    17   1     0.09  -0.07   0.06     0.19  -0.12   0.02     0.10  -0.06  -0.07
    18   1    -0.01  -0.03  -0.00     0.20   0.56   0.03     0.03   0.06  -0.01
    19   1     0.02   0.02  -0.00    -0.21  -0.05   0.02     0.05   0.06   0.00
    20   1     0.03   0.03  -0.00    -0.24  -0.09   0.10     0.03   0.06   0.01
    21   1    -0.00  -0.01   0.02     0.01  -0.08   0.09     0.05   0.17  -0.28
[...]
 -0.00000615,0.00002251,0.00001363,0.00098019,0.00108435,-0.00005388,-0
 .00249879,0.00243999,0.00033138,0.01077745,0.01751886,0.00209721,-0.12
 510680,-0.11871278,-0.01248604,0.00112129,0.00053841,-0.00041710,0.001
 23193,0.00006124,0.00051891,0.00000916,0.00001385,-0.00001754,0.000000
 51,0.00000608,0.00000261,-0.00000216,-0.00000023,0.00000133,0.00000287
 ,-0.00000639,0.00000164,-0.00000531,0.00000267,-0.00001043,-0.00000655
 ,-0.00000454,-0.00001095,-0.00000262,-0.00000388,0.00000479,-0.0000010
 8,-0.00000898,-0.00001877,-0.00019537,0.00036002,-0.00007128,0.0000474
 6,-0.00012794,0.00003503,0.00005213,0.00018326,-0.00034012,-0.00002711
 ,0.00013398,0.00021017,-0.01002288,-0.01509187,-0.00036280,-0.01053630
 ,-0.01574023,-0.00301741,0.13404822,0.00011926,0.00018922,-0.00005901,
 0.00012010,-0.00024045,-0.00009948,-0.00014045,0.00026604,-0.00013897,
 0.00006216,0.00010344,0.00011566,0.00002933,-0.00005960,-0.00002536,0.
 00000288,-0.00001205,-0.00004114,-0.00179080,-0.00068121,-0.00035970,0
 .00554115,-0.00341636,0.00010102,-0.01524136,-0.02270108,-0.00225547,-
 0.11765930,-0.23184822,-0.01963296,-0.00151698,0.00054930,0.00076063,-
 0.00144302,0.00087803,-0.00050385,-0.00002555,0.00001259,0.00000569,0.
 00000573,-0.00002016,-0.00000696,-0.00000399,0.00000124,0.00000202,0.0
 0001684,-0.00001182,0.00002924,0.00000730,0.00001024,0.00001100,0.0000
 3118,-0.00000798,0.00003061,-0.00000118,0.00001363,-0.00001460,-0.0000
 0200,0.00004004,0.00005649,0.00037921,-0.00059909,0.00006008,0.0001306
 3,-0.00009134,-0.00005963,0.00018719,0.00036372,0.00009942,0.00000175,
 0.00020551,-0.00016752,0.00181617,0.00319000,-0.00021977,-0.00079200,-
 0.00125127,0.00021223,0.12804277,0.25386616,0.00011691,-0.00005941,-0.
 00004271,-0.00011616,0.00003325,-0.00008921,0.00010897,-0.00012415,0.0
 0003041,-0.00003173,0.00000100,0.00003831,0.00001136,-0.00000731,-0.00
 000595,0.00001470,0.00000007,-0.00000023,-0.00027588,-0.00003150,0.000
 60985,0.00069089,-0.00008796,-0.00011461,-0.00109576,-0.00136693,-0.00
 188094,-0.01235869,-0.01956139,-0.05169148,-0.00069833,-0.00080754,0.0
 0004286,0.00049228,0.00060648,0.00019764,0.00000056,-0.00001121,0.0000
 0903,0.00000513,0.00000393,-0.00000095,-0.00000156,0.00000029,0.000000
 43,0.00000317,-0.00000575,0.00000582,-0.00000503,0.00000233,-0.0000043
 7,0.00000016,-0.00000651,0.00000006,-0.00000164,0.00000048,-0.00000062
 ,-0.00000463,-0.00000048,-0.00000074,0.00004397,-0.00007829,0.00000078
 ,-0.00005296,0.00010426,-0.00003455,-0.00040668,-0.00016539,0.00025477
 ,0.00023553,0.00034335,0.00025979,-0.01454718,-0.02412082,-0.00167006,
 0.01397380,0.02328930,0.00340288,0.01347187,0.02181188,0.05051444,-0.0
 0002255,-0.00008255,-0.00012516,0.00000202,0.00003001,0.00028333,0.000
 01671,-0.00006726,0.00001825,0.00000707,0.00003597,0.00005435,0.000017
 70,-0.00002074,-0.00000972,0.00000621,-0.00000448,-0.00000644,-0.00022
 234,0.00060241,0.00025317,-0.00200562,0.00104881,0.00396522,-0.0114194
 3,-0.01678304,-0.00189595,0.00033590,-0.00139806,-0.00079798,-0.117749
 04,-0.11511651,-0.00914880,0.00033054,0.00040278,-0.00088906,-0.000014
 77,0.00000669,-0.00006243,0.00002400,-0.00001660,-0.00000199,-0.000002
 78,0.00000167,-0.00000381,0.00000661,-0.00000534,0.00001028,0.00000081
 ,0.00000165,0.00000108,0.00000817,-0.00000562,0.00000538,0.00000079,0.
 00000739,-0.00000700,-0.00000478,0.00000459,0.00001128,0.00018727,-0.0
 0010316,-0.00015141,0.00019683,-0.00019926,-0.00030921,-0.00062751,-0.
 00136845,0.00035020,0.00037984,0.00034641,0.00009944,-0.00014007,-0.00
 002372,0.00001281,0.00038278,0.00029429,-0.00013758,-0.00007022,0.0008
 8653,0.00049798,0.12653188,0.00035478,0.00031367,-0.00003898,-0.000319
 10,-0.00045065,-0.00020899,-0.00008326,0.00018999,0.00000713,0.0000337
 8,0.00007846,0.00003875,0.00000229,-0.00003926,-0.00001824,-0.00000238
 ,0.00000014,-0.00002047,-0.00002508,0.00009160,-0.00045464,0.00028575,
 0.00105163,0.00098932,-0.00144697,-0.00361340,-0.00026467,0.00097116,0
 .00058355,-0.00054682,-0.11573095,-0.24104033,-0.01380593,-0.00024220,
 -0.00015969,-0.00050965,0.00002369,0.00000959,0.00006096,-0.00001892,-
 0.00000695,-0.00000756,-0.00000031,0.00000193,0.00000609,0.00001420,-0
 .00001433,0.00001984,0.00000311,0.00001138,0.00000802,0.00001756,-0.00
 001429,0.00001495,-0.00000125,0.00000638,-0.00000333,0.00000273,0.0000
 3209,0.00002567,-0.00008084,-0.00001180,0.00015594,-0.00015211,0.00028
 840,0.00027374,-0.00023539,-0.00013362,0.00005259,0.00011943,0.0000273
 0,-0.00012713,0.00001324,-0.00001423,0.00005905,0.00009789,0.00021736,
 0.00017358,-0.00013158,0.00060124,-0.00003669,0.12753714,0.26031968,-0
 .00012023,-0.00016284,0.00005501,0.00006538,0.00027098,0.00005799,-0.0
 0001243,-0.00012272,0.00013939,-0.00004732,-0.00003001,-0.00004457,-0.
 00000399,0.00002093,0.00000495,0.00001299,-0.00000122,0.00000267,0.000
 30377,-0.00043890,-0.00002863,0.00268135,-0.00061924,-0.00469586,0.013
 88057,0.02388839,0.00084120,-0.00058872,0.00095828,0.00088132,-0.00964
 105,-0.01463220,-0.04993378,0.00091944,0.00101280,0.00134888,0.0000453
 1,-0.00001611,0.00004954,-0.00000540,0.00001021,0.00000240,-0.00000137
 ,-0.00000098,0.00000207,-0.00000264,-0.00000440,-0.00000652,-0.0000081
 3,0.00000098,-0.00001163,-0.00000745,-0.00000486,-0.00000584,-0.000002
 86,-0.00000441,0.00000727,0.00000034,-0.00000592,-0.00001144,-0.000080
 61,0.00004380,0.00002359,-0.00020660,0.00010186,0.00004893,0.00112941,
 0.00146927,0.00019840,0.00023748,-0.00005554,0.00022776,-0.00001737,-0
 .00020600,-0.00003111,-0.00039020,0.00011302,0.00001700,0.00004303,-0.
 00055531,0.00006147,0.00687274,0.01580364,0.05266276,0.00059549,0.0000
 9009,-0.00041283,-0.00102627,0.00022789,0.00037019,-0.00004505,-0.0000
 1241,0.00008531,-0.00001249,-0.00002217,0.00000922,-0.00000386,0.00000
 576,0.00000161,-0.00000803,-0.00000142,-0.00001965,0.00006426,0.000028
 23,-0.00001650,0.00112014,0.00026762,0.00039948,0.01045347,-0.00050519
 ,0.01626959,0.00101672,-0.00033583,0.00037347,-0.13046735,0.00371292,-
 0.12126472,-0.00175335,-0.00069713,0.00311077,0.00003449,0.00004348,0.
 00000699,0.00001155,-0.00002318,-0.00001159,0.00000719,0.00000473,-0.0
 0000783,-0.00000418,0.00001048,-0.00000599,0.00000741,-0.00000146,0.00
 002045,-0.00000413,0.00001152,-0.00000163,0.00000637,0.00000406,0.0000
 0278,0.00000581,-0.00000349,0.00000361,0.00004372,0.00000149,-0.000042
 52,-0.00006363,0.00000596,-0.00010994,0.00020166,0.00028087,-0.0000955
 5,-0.00001469,0.00001930,-0.00017225,-0.00003726,0.00002177,-0.0001079
 6,0.00022303,-0.00019862,-0.00017078,-0.00009445,0.00009902,-0.0000284
 8,-0.00947654,0.00172317,-0.01312320,0.14016651,-0.00039235,-0.0000555
 0,0.00024635,0.00043662,0.00032576,-0.00039399,0.00000789,0.00011939,-
 0.00012083,-0.00000101,-0.00000871,-0.00003403,-0.00000830,0.00001189,
 0.00000683,0.00000597,0.00000095,0.00002547,-0.00000008,-0.00016507,-0
 .00002800,0.00077451,0.00038538,0.00095613,0.00190346,-0.00179411,0.00
 331150,-0.00037130,0.00001852,-0.00080732,0.00384548,-0.04995920,0.004
 87957,-0.00090068,0.00009663,0.00041477,-0.00003529,-0.00001473,-0.000
 01411,-0.00001042,0.00002371,0.00000872,-0.00000184,-0.00000270,0.0000
 0466,-0.00000252,-0.00000255,-0.00000454,-0.00000923,-0.00000072,-0.00
 001507,-0.00000423,-0.00000240,-0.00000546,-0.00000360,-0.00000639,-0.
 00000047,-0.00000344,-0.00000821,-0.00001215,-0.00002671,-0.00002765,-
 0.00000387,0.00010415,-0.00006178,0.00003563,0.00001887,0.00000656,-0.
 00019999,-0.00041178,-0.00000417,-0.00003732,0.00030387,0.00018781,-0.
 00010746,0.00000434,-0.00012873,0.00015670,-0.00006908,0.00000914,-0.0
 0011683,-0.01565784,0.00203551,-0.02468879,-0.00359765,0.04816045,-0.0
 0052752,0.00037895,0.00019307,0.00105360,-0.00160769,-0.00003277,0.000
 02054,0.00003859,0.00002209,0.00011722,0.00002879,0.00006721,-0.000000
 44,-0.00002037,-0.00000037,-0.00005260,0.00002044,-0.00003121,0.000047
 21,0.00026617,-0.00003037,-0.00161170,-0.00089751,0.00044148,-0.015550
 22,0.00078865,-0.02247901,-0.00160025,0.00057779,0.00051055,-0.1205373
 5,0.00494698,-0.22783180,0.00447542,0.00088731,-0.00351767,-0.00003132
 ,0.00000073,0.00004322,-0.00001504,-0.00001328,-0.00001110,0.00000492,
 -0.00000257,-0.00000082,-0.00000509,0.00002280,0.00000416,0.00002578,-
 0.00000837,0.00003301,0.00000650,0.00002877,0.00000555,0.00000739,0.00
 000091,-0.00000191,0.00000951,0.00000707,0.00001873,0.00000801,0.00005
 302,0.00002596,-0.00006385,0.00006949,-0.00005610,0.00016199,-0.000214
 22,0.00047731,0.00092317,0.00061331,0.00063773,0.00096527,-0.00057288,
 0.00042556,0.00021017,0.00011950,0.00046561,0.00008939,-0.00000736,-0.
 00003044,-0.00051446,-0.00038074,-0.00087600,0.13123198,-0.00606553,0.
 24959743,-0.00008394,-0.00023484,-0.00042198,0.00035769,0.00062123,0.0
 0052013,0.00019308,-0.00027194,0.00003799,-0.00000140,-0.00006715,-0.0
 0001184,-0.00000460,0.00002826,0.00001758,0.00000453,0.00000099,0.0000
 3087,-0.00038471,0.00030456,0.00096711,0.00012526,0.00106329,-0.000320
 70,-0.01225656,0.01410882,-0.00040947,-0.00176848,-0.00178106,0.003714
 61,-0.16325326,0.13036354,0.01332530,0.00057053,-0.00031369,-0.0008251
 8,-0.00004830,0.00000753,-0.00015673,0.00002968,0.00000862,0.00000108,
 0.00000428,0.00000217,-0.00000902,-0.00001228,0.00001406,-0.00001749,-
 0.00000277,-0.00001153,-0.00000271,-0.00001687,0.00001558,-0.00001639,
 0.00000122,-0.00000405,-0.00000289,-0.00000586,-0.00004271,-0.00002408
 ,0.00030488,-0.00008113,-0.00043523,0.00041997,-0.00107177,-0.00052164
 ,0.00014196,-0.00009675,-0.00002075,-0.00012534,-0.00001902,0.00003835
 ,0.00037178,-0.00035133,-0.00002585,-0.00054334,0.00121748,0.00040507,
 0.00018638,0.00021810,0.00001535,0.01278015,-0.01329982,-0.00138247,-0
 .01169723,0.01356903,0.00183116,0.17481499,-0.00074185,-0.00031132,0.0
 0101677,0.00137803,0.00020481,-0.00010460,-0.00009980,0.00000989,-0.00
 008608,-0.00001235,-0.00001964,-0.00001206,0.00001424,0.00002334,0.000
 01337,-0.00000441,0.00000651,0.00000897,-0.00033429,-0.00099842,0.0003
 0594,0.00002140,0.00005873,-0.00055964,-0.00349028,0.00385501,-0.00030
 481,-0.00025633,0.00043905,-0.00013036,0.13034479,-0.19821236,-0.01488
 401,0.00006254,0.00039638,-0.00018485,-0.00002680,-0.00000454,-0.00001
 467,-0.00000037,0.00001688,0.00001886,-0.00001022,-0.00000808,0.000003
 43,-0.00000697,-0.00000264,-0.00000801,-0.00001182,-0.00000116,-0.0000
 3063,-0.00000388,0.00000220,-0.00000632,-0.00000334,-0.00000655,0.0000
 0402,-0.00000132,-0.00000964,-0.00001284,-0.00010781,0.00010540,0.0000
 3631,-0.00097599,-0.00113332,0.00070827,0.00018382,0.00014195,-0.00004
 069,-0.00007712,-0.00004325,-0.00002888,-0.00012097,-0.00007520,0.0001
 1324,0.00004345,0.00034067,0.00016435,-0.00008694,0.00045007,0.0002507
 2,0.01928874,-0.02090865,-0.00137385,-0.00125477,0.00027472,0.00055439
 ,-0.14367317,0.21551011,-0.00118974,0.00015272,0.00043568,0.00142631,0
 .00026204,-0.00173000,-0.00008845,0.00021920,-0.00020748,-0.00003488,0
 .00006561,-0.00003361,0.00001254,0.00000261,-0.00000532,0.00003341,0.0
 0000244,0.00003660,0.00020643,0.00030646,0.00015865,-0.00072966,-0.000
 41589,0.00068719,0.01651100,-0.02229502,-0.00097231,0.00276905,0.00180
 534,-0.00471827,0.01240163,-0.01391752,-0.05179754,-0.00022123,-0.0004
 7230,0.00130071,-0.00003281,-0.00008182,0.00005037,-0.00001010,0.00003
 549,0.00002225,-0.00001288,-0.00000680,0.00001080,0.00000652,-0.000026
 95,0.00000911,-0.00002426,0.00000473,-0.00004598,0.00000066,-0.0000282
 4,-0.00000056,-0.00001199,-0.00000677,-0.00000213,-0.00001462,0.000002
 13,-0.00001423,-0.00015355,0.00002769,0.00002286,0.00013665,0.00040769
 ,0.00020730,-0.00011530,-0.00010625,-0.00004532,0.00002698,0.00014693,
 0.00000509,0.00028694,0.00004356,0.00024809,0.00150553,-0.00134987,-0.
 00002488,-0.00025036,0.00022779,-0.00004620,0.00142980,-0.00196263,-0.
 00085131,-0.01744010,0.02215134,0.00321192,-0.01636331,0.01475790,0.05
 386018,0.00200470,-0.00119536,-0.00016940,0.01116427,0.01591818,0.0010
 1215,-0.00206472,0.00238892,-0.00008022,0.00073404,0.00069341,0.000043
 51,0.00003277,-0.00002710,0.00007626,-0.00021918,0.00020229,-0.0000935
 8,-0.00024138,0.00022626,-0.00002134,-0.00126127,0.00166383,-0.0036292
 9,-0.01129418,-0.01356819,-0.00015166,0.00026478,-0.00122256,0.0005320
 7,0.00061704,0.00003130,0.00134840,-0.15803006,-0.13290550,-0.00614373
 ,0.00003907,0.00005764,-0.00012716,0.00003950,-0.00006375,0.00002368,-
 0.00000126,0.00000600,-0.00001296,-0.00000087,-0.00000346,-0.00000539,
 0.00000261,-0.00001444,-0.00001626,0.00005940,0.00009656,0.00003068,0.
 00001250,0.00000615,-0.00001642,0.00000199,0.00000902,0.00003137,0.000
 05703,-0.00006699,0.00003486,0.00008126,-0.00005549,-0.00000094,0.0003
 2761,0.00030954,0.00007638,-0.00052538,-0.00116866,-0.00035514,0.00027
 212,0.00032520,0.00002215,0.00000087,-0.00002343,-0.00009086,-0.000061
 67,0.00086931,-0.00020026,0.00055288,0.00037683,-0.00045710,0.00001269
 ,0.00027930,0.00017651,0.00003977,0.00005657,-0.00008392,0.16878499,0.
 00001423,0.00601519,0.00009658,-0.02283614,-0.02639917,-0.00092445,0.0
 0519848,-0.00332166,0.00034487,-0.00173181,-0.00073202,-0.00039339,-0.
 00006296,-0.00002686,-0.00019199,0.00060695,-0.00036808,0.00015278,0.0
 0034127,0.00028815,0.00044945,0.00077943,0.00094988,0.00040117,0.00153
 933,0.00154148,-0.00080114,0.00038744,0.00081203,0.00007146,0.00026674
 ,0.00027106,0.00031235,-0.12770732,-0.20491490,-0.00949465,0.00013310,
 0.00041991,0.00013109,0.00007669,-0.00006003,-0.00006934,-0.00000044,0
 .00001529,0.00002091,0.00005047,-0.00003056,0.00006407,0.00001592,0.00
 003765,0.00006882,-0.00010251,-0.00024612,-0.00005179,-0.00002946,0.00
 003186,0.00001893,-0.00002003,0.00001798,-0.00003002,-0.00005353,-0.00
 002522,-0.00008863,-0.00002562,-0.00002101,-0.00012386,-0.00004967,-0.
 00004863,0.00008585,0.00002506,0.00028603,0.00004544,-0.00007868,0.000
 10030,-0.00010041,0.00005288,-0.00000155,-0.00000636,-0.00022442,0.000
 25947,0.00005362,0.00012785,0.00028490,-0.00040381,0.00021160,0.000165
 06,-0.00001311,-0.00009101,-0.00014976,-0.00007568,0.14120178,0.222657
 33,0.00007156,0.00009691,-0.00119928,0.00068150,0.00020361,-0.00043125
 ,-0.00002236,0.00081266,0.00111386,0.00003174,0.00003931,0.00040176,0.
 00004954,-0.00000506,0.00000414,-0.00005995,0.00002353,-0.00004678,-0.
 00012254,0.00062209,-0.00011594,-0.00246148,0.00134459,-0.00483423,-0.
 01695872,-0.02144788,-0.00195402,0.00083003,-0.00085772,0.00058054,-0.
 00065245,-0.00128062,0.00143205,-0.00598399,-0.00967233,-0.05052526,-0
 .00048534,-0.00027997,0.00021895,-0.00004834,0.00005393,0.00000296,0.0
 0000060,-0.00001046,-0.00000066,-0.00000625,0.00000148,0.00000753,-0.0
 0000251,-0.00000244,0.00000733,0.00002310,0.00002492,0.00000747,0.0000
 1042,0.00000254,-0.00000579,-0.00000020,0.00000694,0.00002088,0.000108
 00,-0.00004051,0.00009058,0.00005579,-0.00006111,-0.00001340,-0.000238
 71,-0.00000241,0.00017883,-0.00116353,-0.00147655,-0.00001314,0.000273
 80,0.00001923,-0.00002511,-0.00001079,0.00014647,-0.00001992,0.0000166
 0,0.00054711,0.00022823,0.00027210,0.00061972,-0.00043018,0.00012753,0
 .00019082,0.00040569,0.00011478,-0.00005044,-0.00015052,0.00983322,0.0
 0966628,0.05297148,-0.00146581,0.00490426,-0.00235182,-0.01371710,-0.0
 0194102,0.01446799,-0.00002064,-0.00039751,-0.00070395,0.00007378,0.00
 002450,-0.00040304,-0.00004328,-0.00000273,-0.00004658,0.00003224,0.00
 000891,-0.00001789,-0.00006745,-0.00025327,-0.00004697,0.00087861,0.00
 007264,0.00003439,0.00997824,-0.00088131,-0.01578185,0.00112127,0.0000
 3946,-0.00078481,-0.00170386,0.00014752,-0.00295356,-0.13918003,0.0020
 7575,0.12736706,0.00087939,0.00016259,-0.00042399,0.00005362,-0.000183
 05,-0.00005567,0.00005258,0.00007751,-0.00002929,0.00001639,0.00001253
 ,-0.00003058,-0.00001414,-0.00000444,0.00016256,-0.00001606,0.00000635
 ,0.00000241,0.00000425,0.00002093,0.00000738,-0.00000205,-0.00000279,-
 0.00001004,-0.00002399,-0.00001563,-0.00003925,-0.00008977,0.00001451,
 -0.00010390,-0.00009433,0.00004584,0.00006385,0.00021888,0.00032087,0.
 00014002,0.00036344,-0.00028369,0.00003411,-0.00002084,-0.00008971,0.0
 0009525,-0.00011928,0.00005002,0.00014236,-0.00001251,0.00019342,-0.00
 009265,0.00073802,0.00025385,-0.00085591,-0.00014124,-0.00009278,0.000
 02370,-0.01140193,0.00198437,0.01571686,0.15372364,0.00368053,-0.00380
 013,0.00342685,0.01641420,0.00415694,-0.02554126,-0.00148825,-0.000370
 36,0.00223059,0.00003593,0.00019327,0.00043863,0.00003458,0.00004607,0
 .00005148,-0.00008228,0.00005661,-0.00000872,0.00041502,0.00019779,0.0
 0026049,0.00043687,0.00004260,-0.00085321,-0.00185950,-0.00041167,0.00
 186847,-0.00056521,0.00015129,0.00101079,0.00075793,0.00019988,0.00100
 035,0.00334840,-0.05266514,-0.01097388,-0.00035456,-0.00171580,-0.0000
 1285,-0.00000674,0.00013943,0.00005424,-0.00005532,-0.00006663,0.00002
 214,-0.00001257,-0.00002335,0.00000729,-0.00000249,0.00002798,-0.00018
 184,0.00002155,0.00002340,-0.00000816,0.00000237,-0.00001654,-0.000002
 41,-0.00000265,-0.00001834,-0.00001114,0.00003602,-0.00001784,0.000017
 43,0.00000878,0.00008750,0.00004594,-0.00021519,0.00008420,-0.00009275
 ,-0.00001340,-0.00001990,0.00011503,-0.00007730,-0.00011327,-0.0001847
 4,0.00034930,0.00018840,0.00003914,-0.00011573,-0.00006846,0.00008722,
 0.00022969,0.00026237,-0.00036704,-0.00011664,0.00042115,0.00039996,-0
 .00013228,0.00004879,0.00012409,-0.01440315,0.00219199,0.02076538,-0.0
 0626791,0.05078780,-0.00052968,-0.00012600,-0.00102894,-0.00096786,0.0
 0111215,0.00183502,0.00080316,0.00015351,-0.00057825,-0.00015667,-0.00
 019806,0.00016047,0.00006940,0.00003974,0.00002341,0.00001290,-0.00001
 896,-0.00000758,-0.00042284,-0.00018003,-0.00021655,0.00155644,0.00041
 168,0.00069110,0.01633412,0.00000884,-0.02556504,0.00194069,-0.0006710
 8,0.00109166,-0.00530341,-0.00007022,-0.00381014,0.12375757,-0.0080039
 5,-0.20087883,-0.00043711,0.00013162,0.00058167,-0.00008550,0.00011960
 ,0.00001991,-0.00000558,-0.00001043,0.00001529,-0.00002327,-0.00000566
 ,-0.00001000,-0.00003917,-0.00002464,-0.00000949,-0.00000465,-0.000002
 99,-0.00000209,-0.00000558,-0.00001467,0.00000566,0.00000056,-0.000001
 94,0.00000056,-0.00000158,-0.00004137,-0.00000662,-0.00005404,0.000172
 90,0.00014539,-0.00087704,-0.00055366,0.00039477,-0.00014500,0.0002712
 8,0.00038484,-0.00003331,-0.00038301,0.00048674,-0.00105919,0.00053077
 ,0.00048652,-0.00010211,0.00007623,-0.00004371,-0.00007638,0.00007747,
 0.00029424,0.00101856,0.00026725,-0.00168672,-0.00005161,-0.00012381,0
 .00037888,-0.00158562,0.00078495,0.00209318,-0.13352618,0.00627248,0.2
 2475466\\0.00003409,0.00002704,0.00005932,0.00002433,-0.00000736,-0.00
 004362,-0.00000187,-0.00002178,-0.00002964,-0.00002874,0.00003669,-0.0
 0001567,0.00002357,0.00002955,0.00001145,-0.00000560,-0.00000247,0.000
 00121,0.00004632,0.00000019,0.00004404,-0.00004051,-0.00002780,-0.0000
 2156,0.00000572,0.00004735,0.00003160,0.00000406,-0.00000056,-0.000002
 11,0.00000448,-0.00001343,-0.00000501,-0.00007284,0.00002668,-0.000049
 11,0.00002576,0.00000456,0.00000446,0.00000974,-0.00000428,-0.00000247
 ,0.00000578,-0.00002745,-0.00000813,0.00000467,0.00000777,-0.00000120,
 -0.00002661,-0.00002186,0.00000143,-0.00000598,0.00000206,-0.00000057,
 -0.00000532,0.00000315,-0.00000217,-0.00000837,0.00001139,-0.00000667,
 0.00001345,-0.00002106,0.00001382,-0.00001399,-0.00001711,-0.00000590,
 0.00000191,0.00000993,-0.00000597,-0.00000706,0.00000337,-0.00000220,0
 .00000338,-0.00000212,0.00000295,0.00000418,-0.00000911,-0.00000505,-0
 .00000205,-0.00000888,0.00000355,-0.00000076,-0.00001039,0.00000317,-0
 .00000023,-0.00000449,0.00001188,0.00000157,-0.00002648,0.00001245,-0.
 00000367,-0.00000187,-0.00000618,0.00001058,0.00001874,0.00001189\\\@


 IF YOU'RE NOT PART OF THE SOLUTION,
 THEN YOU'RE PART OF THE PRECIPITATE.
 Job cpu time:       0 days  0 hours  3 minutes 15.2 seconds.
 Elapsed time:       0 days  0 hours  3 minutes 21.2 seconds.
 File lengths (MBytes):  RWF=    188 Int=      0 D2E=      0 Chk=     16 Scr=      1
 Normal termination of Gaussian 16 at Sat Feb 24 04:46:06 2024.
