 Entering Gaussian System, Link 0=g16
 Input=/Volumes/SSD-PMU3/b3lyp_6-31gd_freq/MSANHHHQJYQEOK-KNVOCYPGSA-N_calculating/gaussianinput0.gjf
 Output=/Volumes/SSD-PMU3/b3lyp_6-31gd_freq/MSANHHHQJYQEOK-KNVOCYPGSA-N_calculating/gaussianinput0.log
 Initial command:
 /Applications/g16/l1.exe "/Users/macmini_m1_2022/PycharmProjects/sphere_model/sphere_model_lib/Gau-50592.inp" -scrdir="/Users/macmini_m1_2022/PycharmProjects/sphere_model/sphere_model_lib/"
 Entering Link 1 = /Applications/g16/l1.exe PID=     50593.
  
 Copyright (c) 1988,1990,1992,1993,1995,1998,2003,2009,2016,
            Gaussian, Inc.  All Rights Reserved.
  
 This is part of the Gaussian(R) 16 program.  It is based on
 the Gaussian(R) 09 system (copyright 2009, Gaussian, Inc.),
 the Gaussian(R) 03 system (copyright 2003, Gaussian, Inc.),
 the Gaussian(R) 98 system (copyright 1998, Gaussian, Inc.),
 the Gaussian(R) 94 system (copyright 1995, Gaussian, Inc.),
 the Gaussian 92(TM) system (copyright 1992, Gaussian, Inc.),
 the Gaussian 90(TM) system (copyright 1990, Gaussian, Inc.),
 the Gaussian 88(TM) system (copyright 1988, Gaussian, Inc.),
 the Gaussian 86(TM) system (copyright 1986, Carnegie Mellon
 University), and the Gaussian 82(TM) system (copyright 1983,
 Carnegie Mellon University). Gaussian is a federally registered
 trademark of Gaussian, Inc.
  
 This software contains proprietary and confidential information,
 including trade secrets, belonging to Gaussian, Inc.
  
 This software is provided under written license and may be
 used, copied, transmitted, or stored only in accord with that
 written license.
  
 The following legend is applicable only to US Government
 contracts under FAR:
  
                    RESTRICTED RIGHTS LEGEND
  
 Use, reproduction and disclosure by the US Government is
 subject to restrictions as set forth in subparagraphs (a)
 and (c) of the Commercial Computer Software - Restricted
 Rights clause in FAR 52.227-19.
  
 Gaussian, Inc.
 340 Quinnipiac St., Bldg. 40, Wallingford CT 06492
  
  
 ---------------------------------------------------------------
 Warning -- This program may not be used in any manner that
 competes with the business of Gaussian, Inc. or will provide
 assistance to any competitor of Gaussian, Inc.  The licensee
 of this program is prohibited from giving any competitor of
 Gaussian, Inc. access to this program.  By using this program,
 the user acknowledges that Gaussian, Inc. is engaged in the
 business of creating and licensing software in the field of
 computational chemistry and represents and warrants to the
 licensee that it is not a competitor of Gaussian, Inc. and that
 it will not use this program in any manner prohibited above.
 ---------------------------------------------------------------
  

 Cite this work as:
 Gaussian 16, Revision A.03,
 M. J. Frisch, G. W. Trucks, H. B. Schlegel, G. E. Scuseria, 
 M. A. Robb, J. R. Cheeseman, G. Scalmani, V. Barone, 
 G. A. Petersson, H. Nakatsuji, X. Li, M. Caricato, A. V. Marenich, 
 J. Bloino, B. G. Janesko, R. Gomperts, B. Mennucci, H. P. Hratchian, 
 J. V. Ortiz, A. F. Izmaylov, J. L. Sonnenberg, D. Williams-Young, 
 F. Ding, F. Lipparini, F. Egidi, J. Goings, B. Peng, A. Petrone, 
 T. Henderson, D. Ranasinghe, V. G. Zakrzewski, J. Gao, N. Rega, 
 G. Zheng, W. Liang, M. Hada, M. Ehara, K. Toyota, R. Fukuda, 
 J. Hasegawa, M. Ishida, T. Nakajima, Y. Honda, O. Kitao, H. Nakai, 
 T. Vreven, K. Throssell, J. A. Montgomery, Jr., J. E. Peralta, 
 F. Ogliaro, M. J. Bearpark, J. J. Heyd, E. N. Brothers, K. N. Kudin, 
 V. N. Staroverov, T. A. Keith, R. Kobayashi, J. Normand, 
 K. Raghavachari, A. P. Rendell, J. C. Burant, S. S. Iyengar, 
 J. Tomasi, M. Cossi, J. M. Millam, M. Klene, C. Adamo, R. Cammi, 
 J. W. Ochterski, R. L. Martin, K. Morokuma, O. Farkas, 
 J. B. Foresman, and D. J. Fox, Gaussian, Inc., Wallingford CT, 2016.
 
 ******************************************
 Gaussian 16:  EM64M-G16RevA.03 25-Dec-2016
                21-Feb-2024 
 ******************************************
 %nprocshared=8
 Will use up to    8 processors via shared memory.
 %mem=4GB
 %chk= 0.chk
 ---------------------
 # freq b3lyp/6-31g(d)
 ---------------------
 1/10=4,30=1,38=1/1,3;
 2/12=2,17=6,18=5,40=1/2;
 3/5=1,6=6,7=1,11=2,25=1,30=1,71=2,74=-5,140=1/1,2,3;
 4//1;
 5/5=2,38=5,98=1/2;
 8/6=4,10=90,11=11/1;
 11/6=1,8=1,9=11,15=111,16=1/1,2,10;
 10/6=1/2;
 6/7=2,8=2,9=2,10=2,28=1/1;
 7/8=1,10=1,25=1/1,2,3,16;
 1/10=4,30=1/3;
 99//99;
 ---------
 good luck
 ---------
 Symbolic Z-matrix:
 Charge =  0 Multiplicity = 1
 O                     1.21672   0.        0. 
 C                     0.        0.        0. 
 C                    -0.81763  -1.28458  -0.00411 
 C                    -1.90664  -1.28159  -1.10137 
 C                    -2.76863  -2.547    -1.02858 
 C                    -2.75321   0.       -1.01223 
 C                    -1.90664   1.28159  -1.10137 
 C                    -2.76863   2.547    -1.02858 
 C                    -0.81763   1.28458  -0.00411 
 H                    -1.30997  -1.37533   0.97765 
 H                    -0.13431  -2.13278  -0.11194 
 H                    -1.39405  -1.27541  -2.07571 
 H                    -3.30584  -2.6014   -0.07291 
 H                    -3.51402  -2.56463  -1.83247 
 H                    -2.15584  -3.45143  -1.11857 
 H                    -3.50516   0.       -1.81289 
 H                    -3.31216   0.       -0.06245 
 H                    -1.39405   1.27541  -2.07571 
 H                    -3.51402   2.56463  -1.83247 
 H                    -2.15584   3.45143  -1.11857 
 H                    -3.30584   2.6014   -0.07291 
 H                    -1.30997   1.37533   0.97765 
 H                    -0.13431   2.13278  -0.11194 
 

 GradGradGradGradGradGradGradGradGradGradGradGradGradGradGradGradGradGrad
 Berny optimization.
 Initialization pass.
 Trust Radius=3.00D-01 FncErr=1.00D-07 GrdErr=1.00D-07 EigMax=2.50D+02 EigMin=1.00D-04
 Number of steps in this run=      2 maximum allowed number of steps=      2.
 GradGradGradGradGradGradGradGradGradGradGradGradGradGradGradGradGradGrad

                          Input orientation:                          
 ---------------------------------------------------------------------
 Center     Atomic      Atomic             Coordinates (Angstroms)
 Number     Number       Type             X           Y           Z
 ---------------------------------------------------------------------
      1          8           0        1.216723    0.000000    0.000000
      2          6           0        0.000000    0.000000    0.000000
      3          6           0       -0.817629   -1.284584   -0.004108
      4          6           0       -1.906635   -1.281588   -1.101368
      5          6           0       -2.768630   -2.547002   -1.028582
      6          6           0       -2.753208    0.000000   -1.012233
      7          6           0       -1.906635    1.281588   -1.101368
      8          6           0       -2.768630    2.547002   -1.028583
      9          6           0       -0.817628    1.284584   -0.004108
     10          1           0       -1.309967   -1.375328    0.977651
     11          1           0       -0.134313   -2.132778   -0.111937
     12          1           0       -1.394049   -1.275412   -2.075709
     13          1           0       -3.305844   -2.601403   -0.072911
     14          1           0       -3.514022   -2.564635   -1.832470
     15          1           0       -2.155842   -3.451433   -1.118565
     16          1           0       -3.505156    0.000000   -1.812886
     17          1           0       -3.312158    0.000000   -0.062448
     18          1           0       -1.394049    1.275412   -2.075709
     19          1           0       -3.514022    2.564635   -1.832471
     20          1           0       -2.155841    3.451434   -1.118566
     21          1           0       -3.305844    2.601404   -0.072912
     22          1           0       -1.309967    1.375328    0.977651
     23          1           0       -0.134313    2.132777   -0.111937
 ---------------------------------------------------------------------
                    Distance matrix (angstroms):
                    1          2          3          4          5
     1  O    0.000000
     2  C    1.216723   0.000000
     3  C    2.405984   1.522725   0.000000
     4  C    3.551175   2.547692   1.545937   0.000000
     5  C    4.840273   3.900066   2.539616   1.532842   0.000000
     6  C    4.096946   2.933389   2.532378   1.538538   2.547101
     7  C    3.551175   2.547692   2.995856   2.563176   3.925103
     8  C    4.840273   3.900066   4.420068   3.925103   5.094004
     9  C    2.405984   1.522724   2.569168   2.995856   4.420069
    10  H    3.038337   2.136198   1.102035   2.164976   2.743262
    11  H    2.527166   2.139933   1.094523   2.201051   2.819831
    12  H    3.570907   2.806887   2.150320   1.100965   2.145434
    13  H    5.217876   4.207282   2.816018   2.181151   1.097664
    14  H    5.684650   4.720556   3.500282   2.182753   1.096429
    15  H    4.953562   4.220336   2.779939   2.184177   1.096176
    16  H    5.057934   3.946223   3.484915   2.168870   2.764927
    17  H    4.529312   3.312747   2.806463   2.167330   2.777779
    18  H    3.570907   2.806887   3.343257   2.783942   4.194854
    19  H    5.684650   4.720556   5.042810   4.232214   5.227875
    20  H    4.953562   4.220336   5.046057   4.739609   6.030327
    21  H    5.217876   4.207282   4.614851   4.253603   5.263838
    22  H    3.038337   2.136198   2.877739   3.426009   4.640834
    23  H    2.527166   2.139932   3.486675   3.972151   5.447953
                    6          7          8          9         10
     6  C    0.000000
     7  C    1.538538   0.000000
     8  C    2.547101   1.532842   0.000000
     9  C    2.532379   1.545938   2.539617   0.000000
    10  H    2.816755   3.426009   4.640835   2.877739   0.000000
    11  H    3.495409   3.972152   5.447954   3.486676   1.772878
    12  H    2.145919   2.783942   4.194853   3.343258   3.056151
    13  H    2.820466   4.253602   5.263837   4.614851   2.567190
    14  H    2.798031   4.232214   5.227875   5.042810   3.764185
    15  H    3.504360   4.739608   6.030326   5.046057   3.069175
    16  H    1.098395   2.168870   2.764927   3.484916   3.807555
    17  H    1.102051   2.167330   2.777779   2.806464   2.642367
    18  H    2.145919   1.100965   2.145434   2.150320   4.044317
    19  H    2.798032   2.182754   1.096429   3.500283   5.317702
    20  H    3.504362   2.184177   1.096177   2.779941   5.329846
    21  H    2.820467   2.181151   1.097664   2.816020   4.571827
    22  H    2.816755   2.164976   2.743263   1.102036   2.750656
    23  H    3.495409   2.201050   2.819831   1.094522   3.856963
                   11         12         13         14         15
    11  H    0.000000
    12  H    2.485641   0.000000
    13  H    3.206204   3.069921   0.000000
    14  H    3.816958   2.493100   1.772213   0.000000
    15  H    2.615097   2.496301   1.771567   1.772209   0.000000
    16  H    4.336422   2.480428   3.136006   2.564725   3.770294
    17  H    3.827517   3.059254   2.601432   3.122672   3.790098
    18  H    4.130266   2.550824   4.764017   4.393110   4.882573
    19  H    6.037248   4.393110   5.461441   5.129270   6.208654
    20  H    6.023562   4.882573   6.249219   6.208655   6.902867
    21  H    5.698474   4.764017   5.202807   5.461441   6.249218
    22  H    3.856964   4.044317   4.571826   5.317701   5.329845
    23  H    4.265555   4.130265   5.698473   6.037247   6.023560
                   16         17         18         19         20
    16  H    0.000000
    17  H    1.761046   0.000000
    18  H    2.480428   3.059254   0.000000
    19  H    2.564725   3.122672   2.493100   0.000000
    20  H    3.770295   3.790099   2.496302   1.772210   0.000000
    21  H    3.136007   2.601433   3.069920   1.772213   1.771567
    22  H    3.807555   2.642367   3.056151   3.764186   3.069177
    23  H    4.336421   3.827517   2.485641   3.816958   2.615097
                   21         22         23
    21  H    0.000000
    22  H    2.567191   0.000000
    23  H    3.206204   1.772877   0.000000
 Stoichiometry    C8H14O
 Framework group  C1[X(C8H14O)]
 Deg. of freedom    63
 Full point group                 C1      NOp   1
 Largest Abelian subgroup         C1      NOp   1
 Largest concise Abelian subgroup C1      NOp   1
                         Standard orientation:                         
 ---------------------------------------------------------------------
 Center     Atomic      Atomic             Coordinates (Angstroms)
 Number     Number       Type             X           Y           Z
 ---------------------------------------------------------------------
      1          8           0        0.000000    2.736278   -0.332506
      2          6           0        0.000000    1.589406    0.073818
      3          6           0        1.284584    0.817344    0.342993
      4          6           0        1.281588   -0.575572   -0.327602
      5          6           0        2.547002   -1.363774    0.028868
      6          6           0       -0.000000   -1.343778    0.039129
      7          6           0       -1.281588   -0.575572   -0.327601
      8          6           0       -2.547002   -1.363774    0.028868
      9          6           0       -1.284584    0.817345    0.342993
     10          1           0        1.375328    0.681129    1.432806
     11          1           0        2.132778    1.425422    0.013161
     12          1           0        1.275412   -0.417794   -1.417185
     13          1           0        2.601403   -1.551001    1.109077
     14          1           0        2.564635   -2.334832   -0.479946
     15          1           0        3.451433   -0.816215   -0.260589
     16          1           0       -0.000000   -2.319935   -0.464447
     17          1           0        0.000000   -1.553459    1.121049
     18          1           0       -1.275412   -0.417794   -1.417184
     19          1           0       -2.564635   -2.334832   -0.479946
     20          1           0       -3.451434   -0.816215   -0.260590
     21          1           0       -2.601404   -1.551002    1.109077
     22          1           0       -1.375328    0.681129    1.432806
     23          1           0       -2.132777    1.425423    0.013162
 ---------------------------------------------------------------------
 Rotational constants (GHZ):           1.7425432           1.5700778           0.8836629
 Standard basis: 6-31G(d) (6D, 7F)
 There are   163 symmetry adapted cartesian basis functions of A   symmetry.
 There are   163 symmetry adapted basis functions of A   symmetry.
   163 basis functions,   308 primitive gaussians,   163 cartesian basis functions
    35 alpha electrons       35 beta electrons
       nuclear repulsion energy       469.4211286383 Hartrees.
 NAtoms=   23 NActive=   23 NUniq=   23 SFac= 1.00D+00 NAtFMM=   60 NAOKFM=F Big=F
 Integral buffers will be    131072 words long.
 Raffenetti 2 integral format.
 Two-electron integral symmetry is turned on.
 One-electron integrals computed using PRISM.
 NBasis=   163 RedAO= T EigKep=  2.92D-03  NBF=   163
 NBsUse=   163 1.00D-06 EigRej= -1.00D+00 NBFU=   163
 ExpMin= 1.61D-01 ExpMax= 5.48D+03 ExpMxC= 8.25D+02 IAcc=3 IRadAn=         5 AccDes= 0.00D+00
 Harris functional with IExCor=  402 and IRadAn=       5 diagonalized for initial guess.
 HarFok:  IExCor=  402 AccDes= 0.00D+00 IRadAn=         5 IDoV= 1 UseB2=F ITyADJ=14
 ICtDFT=  3500011 ScaDFX=  1.000000  1.000000  1.000000  1.000000
 FoFCou: FMM=F IPFlag=           0 FMFlag=      100000 FMFlg1=           0
         NFxFlg=           0 DoJE=T BraDBF=F KetDBF=T FulRan=T
         wScrn=  0.000000 ICntrl=       500 IOpCl=  0 I1Cent=   200000004 NGrid=           0
         NMat0=    1 NMatS0=      1 NMatT0=    0 NMatD0=    1 NMtDS0=    0 NMtDT0=    0
 Petite list used in FoFCou.
 Requested convergence on RMS density matrix=1.00D-08 within 128 cycles.
 Requested convergence on MAX density matrix=1.00D-06.
 Requested convergence on             energy=1.00D-06.
 No special actions if energy rises.
 Integral accuracy reduced to 1.0D-05 until final iterations.
 Initial convergence to 1.0D-05 achieved.  Increase integral accuracy.
 SCF Done:  E(RB3LYP) =  -388.521718448     A.U. after   14 cycles
            NFock= 14  Conv=0.27D-08     -V/T= 2.0097
 DoSCS=F DFT=T ScalE2(SS,OS)=  1.000000  1.000000
 Range of M.O.s used for correlation:     1   163
 NBasis=   163 NAE=    35 NBE=    35 NFC=     0 NFV=     0
 NROrb=    163 NOA=    35 NOB=    35 NVA=   128 NVB=   128
 Symmetrizing basis deriv contribution to polar:
 IMax=3 JMax=2 DiffMx= 0.00D+00
 G2DrvN: will do    24 centers at a time, making    1 passes.
 Calling FoFCou, ICntrl=  3107 FMM=F I1Cent=   0 AccDes= 0.00D+00.
 End of G2Drv F.D. properties file   721 does not exist.
 End of G2Drv F.D. properties file   722 does not exist.
 End of G2Drv F.D. properties file   788 does not exist.
          IDoAtm=11111111111111111111111
          Differentiating once with respect to electric field.
                with respect to dipole field.
          Differentiating once with respect to nuclear coordinates.
 Keep R1 ints in memory in canonical form, NReq=97235276.
          There are    72 degrees of freedom in the 1st order CPHF.  IDoFFX=6 NUNeed=     3.
     69 vectors produced by pass  0 Test12= 6.22D-15 1.39D-09 XBig12= 6.40D+01 3.51D+00.
 AX will form    69 AO Fock derivatives at one time.
     69 vectors produced by pass  1 Test12= 6.22D-15 1.39D-09 XBig12= 1.06D+01 1.05D+00.
     69 vectors produced by pass  2 Test12= 6.22D-15 1.39D-09 XBig12= 9.65D-02 4.49D-02.
     69 vectors produced by pass  3 Test12= 6.22D-15 1.39D-09 XBig12= 2.82D-04 1.83D-03.
     69 vectors produced by pass  4 Test12= 6.22D-15 1.39D-09 XBig12= 2.72D-07 5.66D-05.
     32 vectors produced by pass  5 Test12= 6.22D-15 1.39D-09 XBig12= 1.62D-10 1.42D-06.
      3 vectors produced by pass  6 Test12= 6.22D-15 1.39D-09 XBig12= 8.91D-14 3.28D-08.
 InvSVY:  IOpt=1 It=  1 EMax= 2.66D-15
 Solved reduced A of dimension   380 with    72 vectors.
 Isotropic polarizability for W=    0.000000       83.63 Bohr**3.
 End of Minotr F.D. properties file   721 does not exist.
 End of Minotr F.D. properties file   722 does not exist.
 End of Minotr F.D. properties file   788 does not exist.

 **********************************************************************

            Population analysis using the SCF density.

 **********************************************************************

 Orbital symmetries:
       Occupied  (A) (A) (A) (A) (A) (A) (A) (A) (A) (A) (A) (A)
                 (A) (A) (A) (A) (A) (A) (A) (A) (A) (A) (A) (A)
                 (A) (A) (A) (A) (A) (A) (A) (A) (A) (A) (A)
       Virtual   (A) (A) (A) (A) (A) (A) (A) (A) (A) (A) (A) (A)
                 (A) (A) (A) (A) (A) (A) (A) (A) (A) (A) (A) (A)
                 (A) (A) (A) (A) (A) (A) (A) (A) (A) (A) (A) (A)
                 (A) (A) (A) (A) (A) (A) (A) (A) (A) (A) (A) (A)
                 (A) (A) (A) (A) (A) (A) (A) (A) (A) (A) (A) (A)
                 (A) (A) (A) (A) (A) (A) (A) (A) (A) (A) (A) (A)
                 (A) (A) (A) (A) (A) (A) (A) (A) (A) (A) (A) (A)
                 (A) (A) (A) (A) (A) (A) (A) (A) (A) (A) (A) (A)
                 (A) (A) (A) (A) (A) (A) (A) (A) (A) (A) (A) (A)
                 (A) (A) (A) (A) (A) (A) (A) (A) (A) (A) (A) (A)
                 (A) (A) (A) (A) (A) (A) (A) (A)
 The electronic state is 1-A.
 Alpha  occ. eigenvalues --  -19.13116 -10.26731 -10.20021 -10.20020 -10.18787
 Alpha  occ. eigenvalues --  -10.18786 -10.18735 -10.18103 -10.18103  -1.02987
 Alpha  occ. eigenvalues --   -0.84149  -0.78435  -0.73466  -0.68823  -0.68554
 Alpha  occ. eigenvalues --   -0.58478  -0.57690  -0.53099  -0.47692  -0.47148
 Alpha  occ. eigenvalues --   -0.44803  -0.44140  -0.42705  -0.40363  -0.39858
 Alpha  occ. eigenvalues --   -0.39263  -0.38277  -0.37609  -0.36780  -0.35401
 Alpha  occ. eigenvalues --   -0.33704  -0.32677  -0.31756  -0.31498  -0.23367
 Alpha virt. eigenvalues --   -0.01030   0.07970   0.10026   0.10097   0.13607
 Alpha virt. eigenvalues --    0.13636   0.14963   0.15147   0.15618   0.16409
 Alpha virt. eigenvalues --    0.17226   0.17598   0.18305   0.18680   0.18827
 Alpha virt. eigenvalues --    0.21724   0.22977   0.24051   0.25816   0.26252
 Alpha virt. eigenvalues --    0.27083   0.28199   0.32635   0.36120   0.49415
 Alpha virt. eigenvalues --    0.50992   0.51029   0.52968   0.54297   0.54647
 Alpha virt. eigenvalues --    0.56379   0.60649   0.61216   0.66204   0.66612
 Alpha virt. eigenvalues --    0.67098   0.68757   0.69882   0.69953   0.70298
 Alpha virt. eigenvalues --    0.76563   0.77502   0.77774   0.80090   0.82707
 Alpha virt. eigenvalues --    0.83528   0.85905   0.86491   0.88329   0.88905
 Alpha virt. eigenvalues --    0.89948   0.90354   0.90392   0.91529   0.92753
 Alpha virt. eigenvalues --    0.93336   0.93911   0.95113   0.96728   0.98380
 Alpha virt. eigenvalues --    1.00060   1.03340   1.08447   1.11371   1.11495
 Alpha virt. eigenvalues --    1.17193   1.20958   1.33998   1.37227   1.39169
 Alpha virt. eigenvalues --    1.44759   1.48089   1.49729   1.51189   1.54719
 Alpha virt. eigenvalues --    1.69592   1.69716   1.72326   1.74309   1.75626
 Alpha virt. eigenvalues --    1.76548   1.79198   1.79248   1.87279   1.89230
 Alpha virt. eigenvalues --    1.89908   1.92318   1.94884   1.95620   1.96120
 Alpha virt. eigenvalues --    1.98972   1.99979   2.03395   2.04126   2.05558
 Alpha virt. eigenvalues --    2.07124   2.11426   2.17709   2.20676   2.21723
 Alpha virt. eigenvalues --    2.22067   2.23434   2.27035   2.38693   2.42541
 Alpha virt. eigenvalues --    2.44075   2.44657   2.51010   2.51658   2.55572
 Alpha virt. eigenvalues --    2.55722   2.62125   2.67608   2.70816   2.76154
 Alpha virt. eigenvalues --    2.81134   2.81831   2.98624   3.02202   3.99770
 Alpha virt. eigenvalues --    4.13669   4.22314   4.24011   4.32403   4.33811
 Alpha virt. eigenvalues --    4.55486   4.60972   4.64639
          Condensed to atoms (all electrons):
               1          2          3          4          5          6
     1  O    8.000525   0.589579  -0.078093   0.000817  -0.000054   0.000063
     2  C    0.589579   4.468038   0.323078  -0.020576   0.002573  -0.011817
     3  C   -0.078093   0.323078   5.344104   0.346816  -0.043230  -0.047353
     4  C    0.000817  -0.020576   0.346816   4.900025   0.368450   0.378710
     5  C   -0.000054   0.002573  -0.043230   0.368450   5.110157  -0.043165
     6  C    0.000063  -0.011817  -0.047353   0.378710  -0.043165   5.074912
     7  C    0.000817  -0.020576  -0.005052  -0.029946   0.003982   0.378710
     8  C   -0.000054   0.002573  -0.000029   0.003982  -0.000139  -0.043165
     9  C   -0.078093   0.323078  -0.134931  -0.005052  -0.000029  -0.047353
    10  H    0.001380  -0.026857   0.341163  -0.035939  -0.007316  -0.005126
    11  H    0.004748  -0.022435   0.341154  -0.026571  -0.003657   0.004630
    12  H    0.000471  -0.001272  -0.051648   0.378967  -0.045347  -0.047672
    13  H   -0.000000   0.000013  -0.006173  -0.033502   0.372510  -0.006298
    14  H    0.000001  -0.000078   0.004560  -0.028267   0.368585  -0.004059
    15  H   -0.000001   0.000010  -0.003181  -0.028091   0.369269   0.004641
    16  H    0.000002   0.000260   0.005131  -0.031501  -0.003671   0.360827
    17  H   -0.000008  -0.001003  -0.005689  -0.041832  -0.004464   0.363495
    18  H    0.000471  -0.001272  -0.000077  -0.004929   0.000019  -0.047672
    19  H    0.000001  -0.000078   0.000011   0.000018   0.000001  -0.004059
    20  H   -0.000001   0.000010  -0.000003  -0.000136   0.000002   0.004641
    21  H   -0.000000   0.000013   0.000004   0.000043   0.000000  -0.006298
    22  H    0.001380  -0.026857   0.003117  -0.001255  -0.000019  -0.005126
    23  H    0.004748  -0.022434   0.006613  -0.000052   0.000010   0.004630
               7          8          9         10         11         12
     1  O    0.000817  -0.000054  -0.078093   0.001380   0.004748   0.000471
     2  C   -0.020576   0.002573   0.323078  -0.026857  -0.022435  -0.001272
     3  C   -0.005052  -0.000029  -0.134931   0.341163   0.341154  -0.051648
     4  C   -0.029946   0.003982  -0.005052  -0.035939  -0.026571   0.378967
     5  C    0.003982  -0.000139  -0.000029  -0.007316  -0.003657  -0.045347
     6  C    0.378710  -0.043165  -0.047353  -0.005126   0.004630  -0.047672
     7  C    4.900026   0.368450   0.346816  -0.001255  -0.000052  -0.004929
     8  C    0.368450   5.110157  -0.043229  -0.000019   0.000010   0.000019
     9  C    0.346816  -0.043229   5.344104   0.003117   0.006613  -0.000077
    10  H   -0.001255  -0.000019   0.003117   0.592434  -0.027549   0.006472
    11  H   -0.000052   0.000010   0.006613  -0.027549   0.564260  -0.003929
    12  H   -0.004929   0.000019  -0.000077   0.006472  -0.003929   0.628775
    13  H    0.000043   0.000000   0.000004   0.005507  -0.000213   0.005606
    14  H    0.000018   0.000001   0.000011   0.000037  -0.000020  -0.002930
    15  H   -0.000136   0.000002  -0.000003  -0.000275   0.003654  -0.003221
    16  H   -0.031501  -0.003671   0.005131  -0.000044  -0.000153  -0.004503
    17  H   -0.041832  -0.004464  -0.005689   0.005109  -0.000035   0.006482
    18  H    0.378967  -0.045347  -0.051648   0.000101  -0.000037   0.005495
    19  H   -0.028267   0.368585   0.004560  -0.000000  -0.000000  -0.000007
    20  H   -0.028091   0.369269  -0.003181   0.000000  -0.000000   0.000002
    21  H   -0.033502   0.372510  -0.006173  -0.000005  -0.000000   0.000005
    22  H   -0.035939  -0.007316   0.341162   0.001167  -0.000128   0.000101
    23  H   -0.026570  -0.003657   0.341154  -0.000128  -0.000182  -0.000037
              13         14         15         16         17         18
     1  O   -0.000000   0.000001  -0.000001   0.000002  -0.000008   0.000471
     2  C    0.000013  -0.000078   0.000010   0.000260  -0.001003  -0.001272
     3  C   -0.006173   0.004560  -0.003181   0.005131  -0.005689  -0.000077
     4  C   -0.033502  -0.028267  -0.028091  -0.031501  -0.041832  -0.004929
     5  C    0.372510   0.368585   0.369269  -0.003671  -0.004464   0.000019
     6  C   -0.006298  -0.004059   0.004641   0.360827   0.363495  -0.047672
     7  C    0.000043   0.000018  -0.000136  -0.031501  -0.041832   0.378967
     8  C    0.000000   0.000001   0.000002  -0.003671  -0.004464  -0.045347
     9  C    0.000004   0.000011  -0.000003   0.005131  -0.005689  -0.051648
    10  H    0.005507   0.000037  -0.000275  -0.000044   0.005109   0.000101
    11  H   -0.000213  -0.000020   0.003654  -0.000153  -0.000035  -0.000037
    12  H    0.005606  -0.002930  -0.003221  -0.004503   0.006482   0.005495
    13  H    0.578311  -0.030627  -0.031095  -0.000269   0.004958   0.000005
    14  H   -0.030627   0.573428  -0.029626   0.004365  -0.000212  -0.000007
    15  H   -0.031095  -0.029626   0.570444  -0.000049  -0.000038   0.000002
    16  H   -0.000269   0.004365  -0.000049   0.602860  -0.036921  -0.004503
    17  H    0.004958  -0.000212  -0.000038  -0.036921   0.621248   0.006482
    18  H    0.000005  -0.000007   0.000002  -0.004503   0.006482   0.628775
    19  H    0.000000  -0.000002   0.000000   0.004365  -0.000212  -0.002930
    20  H    0.000000   0.000000  -0.000000  -0.000049  -0.000038  -0.003221
    21  H   -0.000001   0.000000   0.000000  -0.000269   0.004958   0.005606
    22  H   -0.000005  -0.000000   0.000000  -0.000044   0.005109   0.006472
    23  H   -0.000000  -0.000000  -0.000000  -0.000153  -0.000035  -0.003929
              19         20         21         22         23
     1  O    0.000001  -0.000001  -0.000000   0.001380   0.004748
     2  C   -0.000078   0.000010   0.000013  -0.026857  -0.022434
     3  C    0.000011  -0.000003   0.000004   0.003117   0.006613
     4  C    0.000018  -0.000136   0.000043  -0.001255  -0.000052
     5  C    0.000001   0.000002   0.000000  -0.000019   0.000010
     6  C   -0.004059   0.004641  -0.006298  -0.005126   0.004630
     7  C   -0.028267  -0.028091  -0.033502  -0.035939  -0.026570
     8  C    0.368585   0.369269   0.372510  -0.007316  -0.003657
     9  C    0.004560  -0.003181  -0.006173   0.341162   0.341154
    10  H   -0.000000   0.000000  -0.000005   0.001167  -0.000128
    11  H   -0.000000  -0.000000  -0.000000  -0.000128  -0.000182
    12  H   -0.000007   0.000002   0.000005   0.000101  -0.000037
    13  H    0.000000   0.000000  -0.000001  -0.000005  -0.000000
    14  H   -0.000002   0.000000   0.000000  -0.000000  -0.000000
    15  H    0.000000  -0.000000   0.000000   0.000000  -0.000000
    16  H    0.004365  -0.000049  -0.000269  -0.000044  -0.000153
    17  H   -0.000212  -0.000038   0.004958   0.005109  -0.000035
    18  H   -0.002930  -0.003221   0.005606   0.006472  -0.003929
    19  H    0.573428  -0.029626  -0.030627   0.000037  -0.000020
    20  H   -0.029626   0.570444  -0.031095  -0.000275   0.003654
    21  H   -0.030627  -0.031095   0.578311   0.005507  -0.000213
    22  H    0.000037  -0.000275   0.005507   0.592434  -0.027549
    23  H   -0.000020   0.003654  -0.000213  -0.027549   0.564260
 Mulliken charges:
               1
     1  O   -0.448699
     2  C    0.446027
     3  C   -0.340293
     4  C   -0.090181
     5  C   -0.444470
     6  C   -0.256093
     7  C   -0.090181
     8  C   -0.444470
     9  C   -0.340293
    10  H    0.148027
    11  H    0.159892
    12  H    0.133175
    13  H    0.141225
    14  H    0.144822
    15  H    0.147691
    16  H    0.134361
    17  H    0.124630
    18  H    0.133174
    19  H    0.144822
    20  H    0.147691
    21  H    0.141225
    22  H    0.148027
    23  H    0.159892
 Sum of Mulliken charges =  -0.00000
 Mulliken charges with hydrogens summed into heavy atoms:
               1
     1  O   -0.448699
     2  C    0.446027
     3  C   -0.032375
     4  C    0.042993
     5  C   -0.010732
     6  C    0.002897
     7  C    0.042993
     8  C   -0.010732
     9  C   -0.032374
 APT charges:
               1
     1  O   -0.662179
     2  C    0.759702
     3  C   -0.081151
     4  C    0.153202
     5  C    0.078573
     6  C    0.065652
     7  C    0.153202
     8  C    0.078574
     9  C   -0.081152
    10  H   -0.008590
    11  H   -0.025145
    12  H   -0.066216
    13  H   -0.025363
    14  H   -0.032145
    15  H   -0.029812
    16  H   -0.047415
    17  H   -0.042466
    18  H   -0.066216
    19  H   -0.032145
    20  H   -0.029812
    21  H   -0.025363
    22  H   -0.008590
    23  H   -0.025144
 Sum of APT charges =  -0.00000
 APT charges with hydrogens summed into heavy atoms:
               1
     1  O   -0.662179
     2  C    0.759702
     3  C   -0.114885
     4  C    0.086986
     5  C   -0.008747
     6  C   -0.024230
     7  C    0.086986
     8  C   -0.008747
     9  C   -0.114886
 Electronic spatial extent (au):  <R**2>=           1383.5334
 Charge=             -0.0000 electrons
 Dipole moment (field-independent basis, Debye):
    X=              0.0000    Y=             -2.9838    Z=              0.7322  Tot=              3.0723
 Quadrupole moment (field-independent basis, Debye-Ang):
   XX=            -54.5493   YY=            -66.8872   ZZ=            -55.0915
   XY=             -0.0000   XZ=             -0.0000   YZ=              2.4713
 Traceless Quadrupole moment (field-independent basis, Debye-Ang):
   XX=              4.2934   YY=             -8.0446   ZZ=              3.7512
   XY=             -0.0000   XZ=             -0.0000   YZ=              2.4713
 Octapole moment (field-independent basis, Debye-Ang**2):
  XXX=              0.0000  YYY=            -25.2964  ZZZ=              0.2125  XYY=             -0.0000
  XXY=              6.7909  XXZ=             -1.9546  XZZ=              0.0000  YZZ=              3.2166
  YYZ=              3.9038  XYZ=              0.0000
 Hexadecapole moment (field-independent basis, Debye-Ang**3):
 XXXX=           -955.3496 YYYY=           -841.0060 ZZZZ=           -126.0198 XXXY=             -0.0000
 XXXZ=             -0.0000 YYYX=             -0.0000 YYYZ=             18.7895 ZZZX=             -0.0000
 ZZZY=             -3.8252 XXYY=           -284.7960 XXZZ=           -181.7375 YYZZ=           -144.6519
 XXYZ=             -0.8583 YYXZ=              0.0000 ZZXY=             -0.0000
 N-N= 4.694211286383D+02 E-N=-1.840056144304D+03  KE= 3.847719354888D+02
  Exact polarizability:  91.548   0.000  89.981  -0.000  -1.793  69.351
 Approx polarizability: 111.695   0.000 128.449  -0.000  -7.064 110.391
 Calling FoFJK, ICntrl=    100127 FMM=F ISym2X=0 I1Cent= 0 IOpClX= 0 NMat=1 NMatS=1 NMatT=0.
 Full mass-weighted force constant matrix:
 Low frequencies ---   -3.2968   -0.0006   -0.0004    0.0008    3.1101   15.4379
 Low frequencies ---   92.1919  120.0873  154.8357
 Diagonal vibrational polarizability:
        5.9413515       3.4570997       9.8473009
 Harmonic frequencies (cm**-1), IR intensities (KM/Mole), Raman scattering
 activities (A**4/AMU), depolarization ratios for plane and unpolarized
 incident light, reduced masses (AMU), force constants (mDyne/A),
 and normal coordinates:
                      1                      2                      3
                      A                      A                      A
 Frequencies --     92.1866               120.0872               154.8352
 Red. masses --      3.8371                 2.4698                 2.3378
 Frc consts  --      0.0192                 0.0210                 0.0330
 IR Inten    --      2.9059                 0.9310                 0.1984
  Atom  AN      X      Y      Z        X      Y      Z        X      Y      Z
     1   8     0.00   0.15   0.28     0.11  -0.00  -0.00     0.00  -0.03  -0.04
     2   6     0.00   0.03  -0.06     0.01  -0.00   0.00     0.00  -0.01   0.02
     3   6     0.02   0.01  -0.20    -0.06  -0.04   0.19     0.01  -0.00   0.03
     4   6    -0.01  -0.07  -0.03    -0.02   0.04   0.03    -0.04  -0.01   0.06
     5   6    -0.00  -0.03   0.04     0.01   0.04  -0.12     0.05   0.03  -0.16
     6   6     0.00  -0.02   0.12     0.00  -0.00  -0.00    -0.00   0.00   0.22
     7   6     0.01  -0.07  -0.03    -0.02  -0.04  -0.03     0.04  -0.01   0.06
     8   6     0.00  -0.03   0.04     0.01  -0.04   0.12    -0.05   0.03  -0.16
     9   6    -0.02   0.01  -0.20    -0.06   0.04  -0.19    -0.01  -0.00   0.03
    10   1     0.15   0.14  -0.20    -0.25  -0.16   0.19     0.05   0.03   0.03
    11   1    -0.02  -0.01  -0.34     0.02  -0.03   0.39    -0.00  -0.01  -0.02
    12   1    -0.05  -0.22  -0.05    -0.06   0.17   0.04    -0.20  -0.03   0.05
    13   1     0.04   0.12   0.06     0.07  -0.10  -0.15     0.28   0.06  -0.17
    14   1    -0.02  -0.10   0.17     0.02   0.10  -0.25    -0.04   0.01  -0.13
    15   1    -0.01  -0.08  -0.07    -0.02   0.10  -0.09    -0.03   0.04  -0.37
    16   1     0.00  -0.11   0.29     0.03   0.00  -0.00    -0.00  -0.07   0.37
    17   1    -0.00   0.17   0.15    -0.00  -0.00  -0.00    -0.00   0.18   0.26
    18   1     0.05  -0.22  -0.05    -0.06  -0.17  -0.04     0.20  -0.03   0.05
    19   1     0.02  -0.10   0.17     0.02  -0.10   0.25     0.04   0.01  -0.13
    20   1     0.01  -0.08  -0.07    -0.02  -0.10   0.09     0.03   0.04  -0.37
    21   1    -0.04   0.12   0.06     0.07   0.10   0.15    -0.28   0.06  -0.17
    22   1    -0.15   0.14  -0.20    -0.25   0.16  -0.19    -0.05   0.03   0.03
    23   1     0.02  -0.01  -0.34     0.02   0.03  -0.39     0.00  -0.01  -0.02
                      4                      5                      6
                      A                      A                      A
 Frequencies --    237.2858               240.3857               250.2674
 Red. masses --      1.0396                 1.2957                 1.7329
 Frc consts  --      0.0345                 0.0441                 0.0639
 IR Inten    --      0.0694                 0.0188                 0.1062
  Atom  AN      X      Y      Z        X      Y      Z        X      Y      Z
     1   8     0.02  -0.00   0.00    -0.00  -0.02   0.01     0.00  -0.02   0.02
     2   6     0.00  -0.00   0.00    -0.00  -0.02   0.01     0.00  -0.03  -0.02
     3   6    -0.01  -0.01   0.02    -0.02  -0.03   0.01    -0.02  -0.04  -0.03
     4   6    -0.01  -0.00   0.00     0.00  -0.01  -0.01    -0.00  -0.04   0.00
     5   6     0.01   0.02   0.00     0.05   0.07   0.02     0.10   0.12   0.01
     6   6    -0.01  -0.00  -0.00     0.00  -0.05  -0.07    -0.00  -0.08   0.01
     7   6    -0.01   0.00  -0.00    -0.00  -0.01  -0.01     0.00  -0.04   0.00
     8   6     0.01  -0.02  -0.00    -0.05   0.07   0.02    -0.10   0.12   0.01
     9   6    -0.01   0.01  -0.02     0.02  -0.03   0.01     0.02  -0.04  -0.03
    10   1    -0.04  -0.03   0.02    -0.05  -0.06   0.01    -0.01  -0.02  -0.02
    11   1     0.00  -0.01   0.05    -0.00  -0.03   0.05    -0.01  -0.05  -0.04
    12   1    -0.01  -0.01   0.00     0.03  -0.00  -0.01    -0.01  -0.06  -0.00
    13   1     0.22   0.37   0.05     0.23   0.42   0.07    -0.00  -0.08  -0.01
    14   1    -0.16  -0.15   0.32    -0.04  -0.09   0.33     0.39   0.23  -0.18
    15   1    -0.01  -0.14  -0.37     0.00  -0.02  -0.31     0.01   0.39   0.25
    16   1    -0.01   0.00  -0.00     0.00  -0.00  -0.16    -0.00  -0.08   0.00
    17   1    -0.02  -0.00  -0.00     0.00  -0.15  -0.09    -0.00  -0.08   0.01
    18   1    -0.01   0.01  -0.00    -0.03  -0.00  -0.01     0.01  -0.06  -0.00
    19   1    -0.16   0.15  -0.32     0.04  -0.09   0.33    -0.39   0.23  -0.18
    20   1    -0.01   0.14   0.36    -0.00  -0.02  -0.31    -0.01   0.39   0.25
    21   1     0.22  -0.37  -0.05    -0.23   0.42   0.07     0.00  -0.08  -0.01
    22   1    -0.04   0.03  -0.02     0.05  -0.06   0.01     0.01  -0.02  -0.02
    23   1     0.00   0.01  -0.05     0.00  -0.03   0.05     0.01  -0.05  -0.04
                      7                      8                      9
                      A                      A                      A
 Frequencies --    308.0433               386.4349               389.5474
 Red. masses --      2.9337                 3.6650                 3.1061
 Frc consts  --      0.1640                 0.3225                 0.2777
 IR Inten    --      1.8558                 0.2426                 0.7664
  Atom  AN      X      Y      Z        X      Y      Z        X      Y      Z
     1   8     0.20   0.00   0.00     0.07   0.00  -0.00    -0.00   0.20  -0.02
     2   6     0.03   0.00   0.00     0.14   0.00  -0.00    -0.00   0.15  -0.13
     3   6    -0.04  -0.08  -0.08     0.15   0.14   0.04    -0.10   0.01   0.03
     4   6    -0.08  -0.05  -0.07    -0.09   0.14   0.07    -0.07  -0.05   0.09
     5   6     0.02   0.16   0.04    -0.14   0.10  -0.00    -0.03  -0.04  -0.03
     6   6    -0.08   0.00  -0.00    -0.05  -0.00   0.00     0.00  -0.19  -0.01
     7   6    -0.08   0.05   0.07    -0.09  -0.14  -0.07     0.07  -0.05   0.09
     8   6     0.02  -0.17  -0.04    -0.14  -0.10   0.00     0.03  -0.04  -0.03
     9   6    -0.04   0.08   0.08     0.15  -0.14  -0.04     0.10   0.01   0.03
    10   1    -0.00  -0.12  -0.09     0.31   0.25   0.04    -0.34   0.08   0.06
    11   1    -0.03  -0.11  -0.09     0.13   0.06  -0.17     0.05  -0.13   0.17
    12   1    -0.08  -0.10  -0.07    -0.13   0.19   0.07    -0.09  -0.04   0.09
    13   1    -0.06   0.21   0.06    -0.13   0.10  -0.00     0.07  -0.13  -0.05
    14   1     0.31   0.16   0.06    -0.20   0.10   0.00    -0.07   0.00  -0.11
    15   1    -0.08   0.38   0.14    -0.13   0.06  -0.01    -0.05  -0.01  -0.07
    16   1    -0.17   0.00  -0.00     0.17  -0.00  -0.00    -0.00  -0.04  -0.31
    17   1    -0.03   0.00  -0.00    -0.11  -0.00  -0.00     0.00  -0.50  -0.07
    18   1    -0.08   0.10   0.07    -0.13  -0.19  -0.07     0.09  -0.04   0.09
    19   1     0.31  -0.16  -0.06    -0.20  -0.10  -0.00     0.07   0.00  -0.11
    20   1    -0.08  -0.38  -0.14    -0.13  -0.06   0.01     0.05  -0.01  -0.07
    21   1    -0.06  -0.21  -0.06    -0.13  -0.10   0.00    -0.07  -0.13  -0.05
    22   1    -0.00   0.12   0.09     0.31  -0.25  -0.04     0.34   0.08   0.06
    23   1    -0.03   0.11   0.09     0.13  -0.06   0.17    -0.05  -0.13   0.17
                     10                     11                     12
                      A                      A                      A
 Frequencies --    429.4957               439.8891               477.7301
 Red. masses --      2.0242                 2.2212                 2.1104
 Frc consts  --      0.2200                 0.2532                 0.2838
 IR Inten    --      0.7282                 0.1882                 0.4985
  Atom  AN      X      Y      Z        X      Y      Z        X      Y      Z
     1   8    -0.00   0.01   0.01    -0.04   0.00   0.00    -0.00  -0.06  -0.02
     2   6    -0.00  -0.00  -0.02     0.00  -0.00  -0.00     0.00  -0.01   0.13
     3   6    -0.08  -0.07   0.01     0.02  -0.00   0.01     0.02   0.02  -0.02
     4   6    -0.08  -0.00  -0.09    -0.04  -0.09   0.16    -0.11   0.00   0.03
     5   6    -0.12   0.06   0.01     0.09  -0.00  -0.02    -0.13   0.06  -0.01
     6   6    -0.00   0.02   0.06    -0.13   0.00  -0.00    -0.00  -0.11  -0.01
     7   6     0.08  -0.00  -0.09    -0.04   0.09  -0.16     0.11   0.00   0.03
     8   6     0.12   0.06   0.01     0.09   0.00   0.02     0.13   0.06  -0.01
     9   6     0.08  -0.07   0.01     0.02   0.00  -0.01    -0.02   0.02  -0.02
    10   1    -0.26  -0.25   0.01     0.14   0.21   0.03     0.35   0.13  -0.04
    11   1     0.03  -0.10   0.24    -0.01  -0.07  -0.19    -0.08  -0.02  -0.35
    12   1    -0.12  -0.02  -0.09    -0.05  -0.09   0.16    -0.17   0.01   0.03
    13   1    -0.23   0.14   0.03     0.33  -0.09  -0.05    -0.14   0.08  -0.00
    14   1    -0.04   0.02   0.08     0.15   0.05  -0.13    -0.10   0.06   0.01
    15   1    -0.10   0.07   0.08    -0.05   0.16  -0.16    -0.13   0.08   0.00
    16   1    -0.00  -0.12   0.33    -0.13   0.00  -0.00    -0.00   0.01  -0.24
    17   1    -0.00   0.33   0.12    -0.38  -0.00  -0.00    -0.00  -0.34  -0.06
    18   1     0.12  -0.02  -0.09    -0.05   0.09  -0.16     0.17   0.01   0.03
    19   1     0.04   0.02   0.08     0.15  -0.05   0.13     0.10   0.06   0.01
    20   1     0.10   0.07   0.08    -0.05  -0.16   0.16     0.13   0.08   0.00
    21   1     0.23   0.14   0.03     0.33   0.09   0.05     0.14   0.08  -0.00
    22   1     0.26  -0.25   0.01     0.14  -0.21  -0.03    -0.35   0.13  -0.04
    23   1    -0.03  -0.10   0.24    -0.01   0.07   0.19     0.08  -0.02  -0.35
                     13                     14                     15
                      A                      A                      A
 Frequencies --    529.6835               626.2790               837.1992
 Red. masses --      3.0036                 4.3310                 2.8470
 Frc consts  --      0.4965                 1.0009                 1.1757
 IR Inten    --     13.5011                 1.4657                 2.7106
  Atom  AN      X      Y      Z        X      Y      Z        X      Y      Z
     1   8     0.24  -0.00  -0.00     0.00   0.15  -0.14    -0.00   0.08  -0.01
     2   6    -0.16  -0.00   0.00    -0.00   0.27   0.30    -0.00   0.03  -0.11
     3   6    -0.14   0.08  -0.06     0.04   0.00   0.05     0.23  -0.10   0.03
     4   6     0.03   0.05   0.06     0.00  -0.09  -0.12    -0.00  -0.02   0.03
     5   6     0.01  -0.04  -0.01     0.07  -0.06   0.01    -0.05   0.02  -0.01
     6   6     0.06  -0.00  -0.00     0.00  -0.10  -0.01     0.00   0.09   0.03
     7   6     0.03  -0.05  -0.06    -0.00  -0.09  -0.12     0.00  -0.02   0.03
     8   6     0.01   0.04   0.01    -0.07  -0.06   0.01     0.05   0.02  -0.01
     9   6    -0.14  -0.08   0.06    -0.04   0.00   0.05    -0.23  -0.10   0.03
    10   1     0.08   0.28  -0.05     0.31  -0.22  -0.01     0.12  -0.17   0.03
    11   1    -0.33   0.22  -0.29     0.06  -0.06  -0.04     0.38  -0.25   0.12
    12   1     0.05   0.03   0.06     0.02  -0.10  -0.12    -0.07  -0.03   0.02
    13   1     0.07  -0.13  -0.03    -0.03   0.04   0.03    -0.03   0.10   0.00
    14   1    -0.16  -0.00  -0.08     0.18  -0.11   0.11     0.12  -0.00   0.03
    15   1     0.05  -0.13  -0.05     0.08  -0.03   0.06    -0.14   0.17  -0.01
    16   1     0.14   0.00  -0.00     0.00  -0.26   0.29    -0.00   0.23  -0.24
    17   1     0.01  -0.00  -0.00    -0.00   0.24   0.05     0.00  -0.20  -0.03
    18   1     0.05  -0.03  -0.06    -0.02  -0.10  -0.12     0.07  -0.03   0.02
    19   1    -0.16   0.00   0.08    -0.18  -0.11   0.11    -0.12  -0.00   0.03
    20   1     0.05   0.13   0.05    -0.08  -0.03   0.06     0.14   0.17  -0.01
    21   1     0.07   0.13   0.03     0.03   0.04   0.03     0.03   0.10   0.00
    22   1     0.08  -0.28   0.05    -0.31  -0.22  -0.01    -0.12  -0.17   0.03
    23   1    -0.33  -0.22   0.29    -0.06  -0.06  -0.04    -0.38  -0.25   0.12
                     16                     17                     18
                      A                      A                      A
 Frequencies --    837.3594               857.6098               861.8414
 Red. masses --      1.5261                 2.7691                 1.7602
 Frc consts  --      0.6305                 1.2000                 0.7703
 IR Inten    --      1.3621                 0.2908                 0.5625
  Atom  AN      X      Y      Z        X      Y      Z        X      Y      Z
     1   8    -0.01  -0.00   0.00    -0.04  -0.00   0.00     0.00  -0.03   0.02
     2   6    -0.07  -0.00   0.00     0.00  -0.00  -0.00     0.00  -0.03  -0.02
     3   6     0.00  -0.04   0.12    -0.02  -0.19  -0.01     0.06   0.07  -0.00
     4   6    -0.01  -0.02  -0.05     0.02  -0.00   0.10     0.03   0.04  -0.06
     5   6     0.02  -0.02  -0.02    -0.09   0.06   0.01     0.03   0.01  -0.03
     6   6     0.00  -0.00  -0.00     0.21  -0.00   0.00    -0.00  -0.12   0.13
     7   6    -0.01   0.02   0.05     0.02   0.00  -0.10    -0.03   0.04  -0.06
     8   6     0.02   0.02   0.02    -0.09  -0.06  -0.01    -0.03   0.01  -0.03
     9   6     0.01   0.04  -0.12    -0.02   0.19   0.01    -0.06   0.07  -0.00
    10   1     0.45   0.10   0.09     0.18  -0.04  -0.01    -0.08  -0.08  -0.01
    11   1    -0.19   0.01  -0.28    -0.01  -0.32  -0.24     0.05   0.19   0.19
    12   1    -0.06   0.16  -0.03     0.08   0.01   0.10    -0.23  -0.02  -0.07
    13   1    -0.15   0.13   0.02     0.05  -0.06  -0.02    -0.29   0.10   0.00
    14   1     0.16  -0.10   0.13    -0.24   0.13  -0.12    -0.01  -0.07   0.12
    15   1     0.04   0.00   0.09    -0.12   0.04  -0.10     0.21  -0.17   0.18
    16   1    -0.14  -0.00   0.00     0.36   0.00  -0.00    -0.00   0.02  -0.16
    17   1     0.12   0.00   0.00     0.21  -0.00   0.00    -0.00  -0.41   0.07
    18   1    -0.06  -0.16   0.03     0.08  -0.01  -0.10     0.23  -0.02  -0.07
    19   1     0.16   0.10  -0.13    -0.24  -0.13   0.12     0.01  -0.07   0.12
    20   1     0.04  -0.00  -0.09    -0.12  -0.04   0.10    -0.21  -0.17   0.18
    21   1    -0.15  -0.13  -0.02     0.05   0.06   0.02     0.29   0.10   0.00
    22   1     0.45  -0.10  -0.09     0.18   0.04   0.01     0.08  -0.08  -0.01
    23   1    -0.18  -0.01   0.28    -0.01   0.32   0.24    -0.05   0.19   0.19
                     19                     20                     21
                      A                      A                      A
 Frequencies --    891.2521               958.5226               971.7913
 Red. masses --      1.7787                 1.6252                 1.7302
 Frc consts  --      0.8324                 0.8798                 0.9627
 IR Inten    --      4.9053                 0.3822                 0.2511
  Atom  AN      X      Y      Z        X      Y      Z        X      Y      Z
     1   8     0.00  -0.02  -0.02     0.00  -0.02   0.01     0.00  -0.04   0.01
     2   6     0.00   0.04   0.13    -0.00  -0.02  -0.01    -0.00  -0.02   0.03
     3   6    -0.05  -0.03  -0.10    -0.03   0.06   0.03     0.07   0.11  -0.02
     4   6    -0.01   0.01   0.01    -0.06  -0.05  -0.02     0.02  -0.05  -0.01
     5   6     0.02  -0.01   0.03     0.00  -0.09  -0.02    -0.08   0.00   0.03
     6   6     0.00   0.13   0.08     0.00   0.11   0.00     0.00  -0.08  -0.03
     7   6     0.01   0.01   0.01     0.06  -0.05  -0.02    -0.02  -0.05  -0.01
     8   6    -0.02  -0.01   0.03    -0.00  -0.09  -0.02     0.08   0.00   0.03
     9   6     0.05  -0.03  -0.10     0.03   0.06   0.03    -0.07   0.11  -0.02
    10   1    -0.10  -0.33  -0.13    -0.05   0.14   0.04    -0.14  -0.10  -0.03
    11   1    -0.01   0.03   0.12    -0.09   0.13   0.00     0.08   0.26   0.26
    12   1    -0.06  -0.26  -0.02    -0.17   0.00  -0.01     0.19  -0.23  -0.04
    13   1     0.13  -0.11   0.00    -0.02   0.18   0.02     0.21  -0.07  -0.00
    14   1    -0.06   0.05  -0.08     0.44  -0.17   0.15     0.00   0.08  -0.12
    15   1    -0.01  -0.01  -0.05    -0.16   0.22   0.04    -0.24   0.18  -0.16
    16   1     0.00   0.36  -0.38     0.00   0.19  -0.15     0.00  -0.15   0.12
    17   1     0.00  -0.36  -0.02     0.00  -0.07  -0.04     0.00   0.07  -0.00
    18   1     0.06  -0.26  -0.02     0.17   0.00  -0.01    -0.19  -0.23  -0.04
    19   1     0.06   0.05  -0.08    -0.44  -0.17   0.15    -0.00   0.08  -0.12
    20   1     0.01  -0.01  -0.05     0.16   0.22   0.04     0.24   0.18  -0.16
    21   1    -0.13  -0.11   0.00     0.02   0.18   0.02    -0.21  -0.07  -0.00
    22   1     0.10  -0.33  -0.13     0.05   0.14   0.04     0.14  -0.10  -0.03
    23   1     0.01   0.03   0.12     0.09   0.13   0.00    -0.08   0.26   0.26
                     22                     23                     24
                      A                      A                      A
 Frequencies --    981.2232              1019.3357              1063.8803
 Red. masses --      1.6270                 1.3928                 2.2369
 Frc consts  --      0.9229                 0.8527                 1.4917
 IR Inten    --      0.1838                 0.1850                 2.2408
  Atom  AN      X      Y      Z        X      Y      Z        X      Y      Z
     1   8    -0.01  -0.00   0.00    -0.00   0.00  -0.00     0.01  -0.00   0.00
     2   6     0.02  -0.00   0.00     0.04   0.00   0.00    -0.04  -0.00   0.00
     3   6    -0.01  -0.07  -0.03    -0.02   0.00  -0.03     0.02   0.01   0.00
     4   6    -0.00   0.08   0.01    -0.06  -0.00   0.05     0.14  -0.11   0.05
     5   6     0.09   0.05  -0.00     0.03  -0.05  -0.05    -0.07   0.08  -0.09
     6   6    -0.10   0.00  -0.00     0.10  -0.00   0.00     0.01   0.00  -0.00
     7   6    -0.00  -0.08  -0.01    -0.06   0.00  -0.05     0.14   0.11  -0.05
     8   6     0.09  -0.05   0.00     0.03   0.05   0.05    -0.07  -0.08   0.09
     9   6    -0.01   0.07   0.03    -0.02  -0.00   0.03     0.02  -0.01  -0.00
    10   1     0.03  -0.06  -0.03    -0.22   0.19   0.01    -0.07   0.09   0.03
    11   1     0.03  -0.15  -0.07     0.09  -0.14  -0.00    -0.05   0.16   0.09
    12   1    -0.13   0.13   0.02    -0.30   0.11   0.06    -0.05  -0.18   0.05
    13   1    -0.17  -0.07  -0.01    -0.20   0.17   0.01    -0.41   0.19  -0.05
    14   1    -0.26   0.03   0.02     0.24  -0.16   0.17    -0.13  -0.01   0.08
    15   1     0.36  -0.33   0.14     0.04   0.03   0.14     0.06  -0.04   0.12
    16   1    -0.09   0.00  -0.00     0.34  -0.00   0.00    -0.20  -0.00   0.00
    17   1    -0.28   0.00  -0.00    -0.02  -0.00   0.00    -0.41   0.00  -0.00
    18   1    -0.13  -0.13  -0.02    -0.30  -0.11  -0.06    -0.05   0.18  -0.05
    19   1    -0.26  -0.03  -0.02     0.24   0.16  -0.17    -0.13   0.01  -0.08
    20   1     0.36   0.33  -0.14     0.04  -0.03  -0.14     0.06   0.04  -0.12
    21   1    -0.17   0.07   0.01    -0.20  -0.17  -0.01    -0.41  -0.19   0.05
    22   1     0.03   0.06   0.03    -0.22  -0.19  -0.01    -0.07  -0.09  -0.03
    23   1     0.03   0.15   0.07     0.09   0.14   0.00    -0.05  -0.16  -0.09
                     25                     26                     27
                      A                      A                      A
 Frequencies --   1081.9536              1118.3402              1140.4463
 Red. masses --      1.1510                 2.7156                 2.1723
 Frc consts  --      0.7939                 2.0011                 1.6646
 IR Inten    --      8.4088                 1.0402                 5.1480
  Atom  AN      X      Y      Z        X      Y      Z        X      Y      Z
     1   8     0.01  -0.00   0.00     0.00   0.06  -0.02    -0.00   0.00  -0.00
     2   6    -0.08  -0.00  -0.00    -0.00   0.02  -0.00     0.08   0.00   0.00
     3   6     0.04  -0.01  -0.00    -0.06  -0.05   0.04    -0.04   0.08   0.06
     4   6    -0.02   0.03   0.02     0.20  -0.09   0.00    -0.09  -0.12  -0.03
     5   6     0.01  -0.02   0.00    -0.09   0.05  -0.07     0.04   0.06   0.03
     6   6     0.02  -0.00  -0.00    -0.00   0.04   0.08     0.13  -0.00  -0.00
     7   6    -0.02  -0.03  -0.02    -0.20  -0.09   0.00    -0.09   0.12   0.03
     8   6     0.01   0.02  -0.00     0.09   0.05  -0.07     0.04  -0.06  -0.03
     9   6     0.04   0.01   0.00     0.06  -0.05   0.04    -0.04  -0.08  -0.06
    10   1     0.20  -0.39  -0.07     0.12   0.11   0.05     0.07   0.03   0.04
    11   1    -0.07   0.19   0.09    -0.30   0.21  -0.09     0.00  -0.02  -0.04
    12   1    -0.21  -0.23  -0.02     0.28  -0.15  -0.00    -0.27  -0.37  -0.06
    13   1     0.01   0.01   0.01    -0.24   0.17  -0.04    -0.01  -0.18  -0.01
    14   1     0.06  -0.02   0.02    -0.04   0.01   0.02    -0.28   0.09  -0.06
    15   1    -0.01   0.02   0.01    -0.10   0.10   0.01     0.18  -0.21  -0.01
    16   1     0.42  -0.00   0.00     0.00   0.14  -0.12     0.01  -0.00   0.00
    17   1    -0.32   0.00   0.00    -0.00  -0.24   0.03     0.21   0.00  -0.00
    18   1    -0.21   0.23   0.02    -0.28  -0.15  -0.00    -0.27   0.37   0.06
    19   1     0.06   0.02  -0.02     0.04   0.01   0.02    -0.28  -0.09   0.06
    20   1    -0.01  -0.02  -0.01     0.10   0.10   0.01     0.18   0.21   0.01
    21   1     0.01  -0.01  -0.01     0.24   0.17  -0.04    -0.01   0.18   0.01
    22   1     0.20   0.39   0.07    -0.12   0.11   0.05     0.07  -0.03  -0.04
    23   1    -0.07  -0.19  -0.09     0.30   0.21  -0.09     0.00   0.02   0.04
                     28                     29                     30
                      A                      A                      A
 Frequencies --   1161.4807              1200.5203              1251.2066
 Red. masses --      2.0714                 2.0891                 1.9043
 Frc consts  --      1.6464                 1.7740                 1.7565
 IR Inten    --      1.3761                 2.8790                48.5305
  Atom  AN      X      Y      Z        X      Y      Z        X      Y      Z
     1   8    -0.00  -0.04  -0.01     0.00   0.02  -0.01    -0.04  -0.00   0.00
     2   6     0.00   0.04   0.13    -0.00   0.01  -0.00     0.24   0.00   0.00
     3   6     0.01  -0.00  -0.12    -0.02  -0.06  -0.03    -0.06  -0.06   0.01
     4   6     0.05  -0.00   0.12     0.05   0.15  -0.02     0.03   0.01  -0.04
     5   6    -0.02  -0.01  -0.08    -0.04  -0.08   0.02    -0.01  -0.01   0.01
     6   6    -0.00  -0.01  -0.06    -0.00  -0.12   0.09    -0.04   0.00   0.00
     7   6    -0.05  -0.00   0.12    -0.05   0.15  -0.02     0.03  -0.01   0.04
     8   6     0.02  -0.01  -0.08     0.04  -0.08   0.02    -0.01   0.01  -0.01
     9   6    -0.01  -0.00  -0.12     0.02  -0.06  -0.03    -0.06   0.06  -0.01
    10   1    -0.33   0.12  -0.06     0.07  -0.15  -0.06    -0.04   0.18   0.03
    11   1     0.20  -0.14   0.13    -0.09   0.04  -0.04    -0.39   0.36  -0.06
    12   1     0.06   0.19   0.14     0.15   0.37   0.01    -0.00  -0.04  -0.05
    13   1    -0.25   0.21  -0.02     0.22   0.07   0.04     0.04  -0.00   0.01
    14   1     0.12  -0.11   0.13     0.27  -0.04  -0.02     0.02   0.02  -0.03
    15   1     0.01   0.05   0.12    -0.23   0.20  -0.06    -0.05   0.03  -0.04
    16   1     0.00  -0.10   0.12    -0.00  -0.08   0.03     0.40   0.00  -0.00
    17   1    -0.00   0.15  -0.02    -0.00  -0.15   0.08    -0.31  -0.00   0.00
    18   1    -0.06   0.19   0.14    -0.15   0.37   0.01    -0.00   0.04   0.05
    19   1    -0.12  -0.11   0.13    -0.27  -0.04  -0.02     0.02  -0.02   0.03
    20   1    -0.01   0.05   0.12     0.23   0.20  -0.06    -0.05  -0.03   0.04
    21   1     0.25   0.21  -0.02    -0.22   0.07   0.04     0.04   0.00  -0.01
    22   1     0.33   0.12  -0.06    -0.07  -0.15  -0.06    -0.04  -0.18  -0.03
    23   1    -0.20  -0.14   0.13     0.09   0.04  -0.04    -0.39  -0.36   0.06
                     31                     32                     33
                      A                      A                      A
 Frequencies --   1265.7363              1300.2015              1305.4186
 Red. masses --      1.3926                 1.5250                 1.4877
 Frc consts  --      1.3145                 1.5189                 1.4937
 IR Inten    --      0.1593                21.9512                 6.6650
  Atom  AN      X      Y      Z        X      Y      Z        X      Y      Z
     1   8     0.00  -0.04   0.00     0.01  -0.00   0.00    -0.02  -0.00   0.00
     2   6    -0.00   0.02   0.06    -0.07  -0.00  -0.00     0.10  -0.00  -0.00
     3   6     0.00   0.00   0.01     0.10  -0.07  -0.03    -0.05   0.03  -0.03
     4   6     0.02  -0.02  -0.10    -0.04  -0.03   0.02    -0.03  -0.01   0.09
     5   6    -0.01   0.01   0.03     0.02   0.02   0.02     0.01  -0.00  -0.05
     6   6     0.00   0.01   0.09    -0.03  -0.00  -0.00    -0.02  -0.00   0.00
     7   6    -0.02  -0.02  -0.10    -0.04   0.03  -0.02    -0.03   0.01  -0.09
     8   6     0.01   0.01   0.03     0.02  -0.02  -0.02     0.01   0.00   0.05
     9   6    -0.00   0.00   0.01     0.10   0.07   0.03    -0.05  -0.03   0.03
    10   1    -0.23   0.46   0.09    -0.16   0.17   0.03     0.16  -0.37  -0.10
    11   1     0.20  -0.30  -0.04    -0.17   0.41   0.15    -0.11   0.15   0.02
    12   1     0.12   0.09  -0.08    -0.16   0.15   0.05     0.27   0.06   0.10
    13   1     0.09  -0.06   0.01     0.01  -0.07   0.00    -0.13   0.07  -0.02
    14   1    -0.03   0.06  -0.07    -0.09   0.03  -0.00     0.02  -0.08   0.11
    15   1    -0.03  -0.01  -0.08     0.05  -0.05  -0.00     0.06  -0.00   0.11
    16   1    -0.00   0.10  -0.10     0.04  -0.00   0.00    -0.11   0.00  -0.00
    17   1     0.00  -0.18   0.04     0.51   0.00  -0.00     0.49  -0.00   0.00
    18   1    -0.12   0.09  -0.08    -0.16  -0.15  -0.05     0.27  -0.06  -0.10
    19   1     0.03   0.06  -0.07    -0.09  -0.03   0.00     0.02   0.08  -0.11
    20   1     0.03  -0.01  -0.08     0.05   0.05   0.00     0.06   0.00  -0.11
    21   1    -0.09  -0.06   0.01     0.01   0.07  -0.00    -0.13  -0.07   0.02
    22   1     0.23   0.46   0.09    -0.16  -0.17  -0.03     0.16   0.37   0.10
    23   1    -0.20  -0.30  -0.04    -0.17  -0.41  -0.15    -0.11  -0.15  -0.02
                     34                     35                     36
                      A                      A                      A
 Frequencies --   1320.5231              1321.8917              1384.6489
 Red. masses --      1.2154                 1.3716                 1.3326
 Frc consts  --      1.2487                 1.4121                 1.5053
 IR Inten    --      4.9369                 0.7177                 0.0076
  Atom  AN      X      Y      Z        X      Y      Z        X      Y      Z
     1   8     0.01   0.00  -0.00    -0.00   0.03  -0.02    -0.00   0.00   0.00
     2   6    -0.05   0.00   0.00     0.00   0.01   0.04     0.02  -0.00  -0.00
     3   6     0.02  -0.00   0.02     0.06  -0.09  -0.03     0.00  -0.04   0.01
     4   6    -0.03  -0.02  -0.02    -0.01  -0.02  -0.01     0.01   0.10   0.03
     5   6     0.01   0.02  -0.03     0.01   0.01   0.04    -0.00  -0.02  -0.02
     6   6    -0.10   0.00  -0.00     0.00   0.00  -0.02    -0.02   0.00   0.00
     7   6    -0.03   0.02   0.02     0.01  -0.02  -0.01     0.01  -0.10  -0.03
     8   6     0.01  -0.02   0.03    -0.01   0.01   0.04    -0.00   0.02   0.02
     9   6     0.02   0.00  -0.02    -0.06  -0.09  -0.03     0.00   0.04  -0.01
    10   1    -0.04   0.15   0.05    -0.17   0.25   0.04    -0.03   0.16   0.04
    11   1     0.07  -0.10  -0.02    -0.24   0.41   0.12    -0.03  -0.01  -0.00
    12   1     0.39  -0.21  -0.05    -0.29   0.20   0.02    -0.10  -0.56  -0.06
    13   1    -0.08   0.01  -0.03     0.05  -0.07   0.02     0.03   0.10   0.00
    14   1     0.00  -0.03   0.04    -0.09   0.05  -0.05     0.06  -0.03   0.01
    15   1     0.09  -0.07   0.04    -0.02  -0.01  -0.06    -0.00   0.04   0.09
    16   1     0.65  -0.00   0.00    -0.00  -0.01   0.00    -0.34   0.00   0.00
    17   1     0.12   0.00  -0.00     0.00   0.06  -0.02     0.32  -0.00   0.00
    18   1     0.39   0.21   0.05     0.29   0.20   0.02    -0.10   0.56   0.06
    19   1     0.00   0.03  -0.04     0.09   0.05  -0.05     0.06   0.03  -0.01
    20   1     0.09   0.07  -0.04     0.02  -0.01  -0.06    -0.00  -0.04  -0.09
    21   1    -0.08  -0.01   0.03    -0.05  -0.07   0.02     0.03  -0.10  -0.00
    22   1    -0.04  -0.15  -0.05     0.17   0.25   0.04    -0.03  -0.16  -0.04
    23   1     0.07   0.10   0.02     0.24   0.41   0.12    -0.03   0.01   0.00
                     37                     38                     39
                      A                      A                      A
 Frequencies --   1384.9004              1392.1194              1414.4122
 Red. masses --      1.3995                 1.4389                 1.6766
 Frc consts  --      1.5815                 1.6430                 1.9762
 IR Inten    --     18.1913                 0.9102                10.2458
  Atom  AN      X      Y      Z        X      Y      Z        X      Y      Z
     1   8     0.00   0.00   0.00     0.00  -0.01   0.01    -0.00  -0.00   0.00
     2   6    -0.00  -0.02  -0.01    -0.00  -0.00  -0.00     0.02   0.00  -0.00
     3   6    -0.01   0.05  -0.02    -0.04   0.04   0.00    -0.05   0.03  -0.00
     4   6    -0.01  -0.11  -0.01     0.12  -0.01  -0.00     0.12  -0.03   0.00
     5   6     0.01   0.02   0.01    -0.02  -0.01   0.04    -0.04   0.01   0.01
     6   6     0.00   0.04   0.04     0.00   0.00  -0.04    -0.15   0.00   0.00
     7   6     0.01  -0.11  -0.01    -0.12  -0.01  -0.00     0.12   0.03  -0.00
     8   6    -0.01   0.02   0.01     0.02  -0.01   0.04    -0.04  -0.01  -0.01
     9   6     0.01   0.05  -0.02     0.04   0.04   0.00    -0.05  -0.03   0.00
    10   1     0.06  -0.26  -0.07     0.08  -0.07  -0.02     0.12  -0.05  -0.02
    11   1     0.02   0.02  -0.00     0.12  -0.20  -0.03     0.10  -0.16   0.02
    12   1     0.11   0.60   0.09    -0.60   0.06   0.01    -0.43   0.06   0.02
    13   1    -0.04  -0.09  -0.00     0.04   0.02   0.03     0.11  -0.01   0.01
    14   1    -0.08   0.02   0.01    -0.03   0.07  -0.11     0.06   0.04  -0.04
    15   1     0.01  -0.03  -0.05    -0.10   0.06  -0.08    -0.00  -0.05  -0.01
    16   1     0.00   0.06  -0.00     0.00  -0.06   0.06     0.37  -0.00   0.00
    17   1    -0.00  -0.14   0.01    -0.00   0.04  -0.03     0.53  -0.00  -0.00
    18   1    -0.11   0.59   0.09     0.60   0.06   0.01    -0.43  -0.06  -0.02
    19   1     0.08   0.02   0.01     0.03   0.07  -0.11     0.06  -0.04   0.04
    20   1    -0.01  -0.03  -0.05     0.10   0.06  -0.08    -0.00   0.05   0.01
    21   1     0.04  -0.09  -0.00    -0.04   0.02   0.03     0.11   0.01  -0.01
    22   1    -0.06  -0.26  -0.07    -0.08  -0.07  -0.02     0.12   0.05   0.02
    23   1    -0.02   0.02  -0.00    -0.12  -0.20  -0.03     0.10   0.16  -0.02
                     40                     41                     42
                      A                      A                      A
 Frequencies --   1438.6717              1439.9429              1489.8558
 Red. masses --      1.2263                 1.2504                 1.0987
 Frc consts  --      1.4954                 1.5275                 1.4369
 IR Inten    --      0.7273                 2.5742                 4.3887
  Atom  AN      X      Y      Z        X      Y      Z        X      Y      Z
     1   8    -0.00   0.00  -0.00    -0.00  -0.00   0.00     0.00  -0.00   0.00
     2   6     0.00   0.00   0.00     0.00  -0.00  -0.00    -0.01  -0.00  -0.00
     3   6     0.01  -0.00   0.00     0.00   0.00   0.00     0.04   0.02   0.04
     4   6    -0.01  -0.00   0.00    -0.02   0.01  -0.00     0.01  -0.00   0.00
     5   6    -0.08   0.05  -0.02     0.08  -0.05   0.02    -0.00  -0.00  -0.00
     6   6     0.03   0.00  -0.00     0.00  -0.00   0.01    -0.02  -0.00   0.00
     7   6    -0.01   0.00  -0.00     0.02   0.01  -0.00     0.01   0.00  -0.00
     8   6    -0.08  -0.05   0.02    -0.08  -0.05   0.02    -0.00   0.00   0.00
     9   6     0.01   0.00  -0.00    -0.00   0.00   0.00     0.04  -0.02  -0.04
    10   1    -0.04  -0.01   0.00     0.01   0.00   0.00    -0.41  -0.26   0.03
    11   1    -0.03   0.03  -0.02     0.01  -0.00   0.01    -0.14  -0.03  -0.48
    12   1     0.03   0.01   0.00     0.07  -0.02  -0.01    -0.04  -0.01   0.00
    13   1     0.34  -0.19  -0.07    -0.35   0.20   0.07     0.02   0.05   0.01
    14   1     0.35  -0.06   0.18    -0.35   0.05  -0.17    -0.04   0.01  -0.03
    15   1     0.20  -0.31   0.15    -0.20   0.32  -0.14    -0.00   0.02   0.03
    16   1    -0.08   0.00  -0.00    -0.00  -0.01   0.02     0.03   0.00  -0.00
    17   1    -0.09   0.00  -0.00    -0.00  -0.03   0.00     0.06   0.00   0.00
    18   1     0.03  -0.01  -0.00    -0.07  -0.02  -0.01    -0.04   0.01  -0.00
    19   1     0.35   0.06  -0.18     0.35   0.05  -0.18    -0.04  -0.01   0.03
    20   1     0.20   0.31  -0.15     0.20   0.32  -0.14    -0.00  -0.02  -0.03
    21   1     0.34   0.19   0.07     0.35   0.20   0.07     0.02  -0.05  -0.01
    22   1    -0.04   0.01  -0.00    -0.01   0.00   0.00    -0.41   0.26  -0.03
    23   1    -0.03  -0.03   0.02    -0.01  -0.00   0.01    -0.14   0.03   0.48
                     43                     44                     45
                      A                      A                      A
 Frequencies --   1495.5848              1517.9160              1526.4655
 Red. masses --      1.0884                 1.0896                 1.0510
 Frc consts  --      1.4343                 1.4791                 1.4429
 IR Inten    --      3.3413                 2.0620                 3.1986
  Atom  AN      X      Y      Z        X      Y      Z        X      Y      Z
     1   8     0.00  -0.01   0.00    -0.00   0.00  -0.00     0.00   0.00  -0.00
     2   6     0.00  -0.00  -0.01     0.00  -0.00   0.01    -0.00  -0.00  -0.00
     3   6    -0.04  -0.01  -0.03     0.02   0.01   0.01     0.00   0.00  -0.00
     4   6    -0.00  -0.00  -0.00     0.02  -0.00  -0.00    -0.02  -0.01   0.01
     5   6     0.00   0.01   0.00     0.01   0.01  -0.00    -0.02  -0.02   0.02
     6   6     0.00  -0.03   0.02    -0.00  -0.07   0.03     0.01  -0.00   0.00
     7   6     0.00  -0.00  -0.00    -0.02  -0.00  -0.00    -0.02   0.01  -0.01
     8   6    -0.00   0.01   0.00    -0.01   0.01  -0.00    -0.02   0.02  -0.02
     9   6     0.04  -0.01  -0.03    -0.02   0.01   0.01     0.00  -0.00   0.00
    10   1     0.40   0.20  -0.03    -0.17  -0.10   0.01     0.02  -0.00  -0.00
    11   1     0.13   0.01   0.43    -0.05  -0.02  -0.20    -0.00   0.02   0.03
    12   1     0.02   0.03   0.00    -0.03   0.02   0.00     0.05   0.02   0.01
    13   1    -0.05  -0.07  -0.01    -0.02  -0.12  -0.02     0.02   0.41   0.08
    14   1     0.02  -0.02   0.05    -0.06  -0.06   0.12     0.15   0.21  -0.41
    15   1    -0.02   0.00  -0.06    -0.06   0.10  -0.01     0.13  -0.26   0.01
    16   1    -0.00   0.12  -0.25     0.00   0.25  -0.54    -0.01   0.00  -0.00
    17   1    -0.00   0.26   0.06     0.00   0.59   0.14    -0.01   0.00   0.00
    18   1    -0.02   0.03   0.00     0.03   0.02   0.00     0.05  -0.02  -0.01
    19   1    -0.02  -0.02   0.05     0.06  -0.06   0.12     0.15  -0.21   0.41
    20   1     0.02   0.00  -0.06     0.06   0.10  -0.01     0.13   0.26  -0.01
    21   1     0.05  -0.07  -0.01     0.02  -0.12  -0.02     0.02  -0.41  -0.08
    22   1    -0.40   0.20  -0.03     0.17  -0.10   0.01     0.02   0.00   0.00
    23   1    -0.13   0.01   0.43     0.05  -0.02  -0.20    -0.00  -0.02  -0.03
                     46                     47                     48
                      A                      A                      A
 Frequencies --   1527.5097              1528.7874              1529.0032
 Red. masses --      1.0433                 1.0490                 1.0541
 Frc consts  --      1.4343                 1.4445                 1.4519
 IR Inten    --     15.5903                 0.0147                 2.7994
  Atom  AN      X      Y      Z        X      Y      Z        X      Y      Z
     1   8     0.00  -0.00   0.00     0.00   0.00  -0.00    -0.00   0.00  -0.00
     2   6    -0.00   0.00  -0.00    -0.00  -0.00  -0.00     0.00  -0.00  -0.00
     3   6    -0.00   0.00  -0.00    -0.00   0.00  -0.00     0.00   0.01  -0.00
     4   6     0.00  -0.01  -0.01    -0.00  -0.02  -0.02    -0.01  -0.02   0.00
     5   6     0.00  -0.01  -0.03    -0.01  -0.02  -0.03    -0.02  -0.03   0.00
     6   6     0.00   0.01   0.00     0.00  -0.00   0.00    -0.00  -0.02   0.01
     7   6    -0.00  -0.01  -0.01    -0.00   0.02   0.02     0.01  -0.02   0.00
     8   6    -0.00  -0.01  -0.03    -0.01   0.02   0.03     0.02  -0.03   0.00
     9   6     0.00   0.00  -0.00    -0.00  -0.00   0.00    -0.00   0.01  -0.00
    10   1     0.05   0.04  -0.00     0.03   0.03   0.00     0.01  -0.02  -0.00
    11   1     0.02  -0.01   0.05     0.02  -0.00   0.04    -0.00   0.02   0.01
    12   1    -0.03   0.03  -0.01    -0.00   0.05  -0.01     0.03   0.04   0.01
    13   1     0.31   0.00  -0.03     0.35   0.18  -0.00     0.16   0.43   0.07
    14   1    -0.33  -0.11   0.16    -0.30  -0.03   0.00    -0.00   0.17  -0.35
    15   1    -0.02   0.26   0.42     0.04   0.17   0.46     0.13  -0.15   0.20
    16   1     0.00  -0.02   0.05     0.05   0.00  -0.00    -0.00   0.10  -0.20
    17   1    -0.00  -0.07  -0.02    -0.05   0.00   0.00     0.00   0.21   0.05
    18   1     0.03   0.03  -0.01    -0.00  -0.05   0.01    -0.03   0.04   0.01
    19   1     0.33  -0.11   0.16    -0.30   0.03  -0.00     0.00   0.17  -0.35
    20   1     0.02   0.26   0.42     0.04  -0.17  -0.46    -0.13  -0.15   0.20
    21   1    -0.31   0.00  -0.03     0.35  -0.18   0.00    -0.16   0.43   0.07
    22   1    -0.05   0.04  -0.00     0.03  -0.03  -0.00    -0.01  -0.02  -0.00
    23   1    -0.02  -0.01   0.05     0.02   0.00  -0.04     0.00   0.02   0.01
                     49                     50                     51
                      A                      A                      A
 Frequencies --   1816.8454              3001.6405              3001.8791
 Red. masses --     10.9996                 1.0727                 1.0764
 Frc consts  --     21.3925                 5.6945                 5.7151
 IR Inten    --    199.0562                 2.9408                 0.4831
  Atom  AN      X      Y      Z        X      Y      Z        X      Y      Z
     1   8    -0.00  -0.46   0.16     0.00   0.00  -0.00     0.00  -0.00   0.00
     2   6     0.00   0.71  -0.26    -0.00  -0.00   0.00    -0.00   0.00  -0.00
     3   6     0.01  -0.05   0.02    -0.00   0.00  -0.01     0.01  -0.00   0.03
     4   6     0.01  -0.02   0.00    -0.00  -0.01   0.03    -0.00   0.01  -0.04
     5   6    -0.00   0.00   0.00     0.00  -0.00  -0.00    -0.00   0.00   0.00
     6   6     0.00   0.00   0.00    -0.00   0.02  -0.05    -0.00  -0.00   0.00
     7   6    -0.01  -0.02   0.00     0.00  -0.01   0.03    -0.00  -0.01   0.04
     8   6     0.00   0.00   0.00    -0.00  -0.00  -0.00    -0.00  -0.00  -0.00
     9   6    -0.01  -0.05   0.02     0.00   0.00  -0.01     0.01   0.00  -0.03
    10   1     0.07  -0.10  -0.01     0.01  -0.01   0.09    -0.04   0.06  -0.45
    11   1    -0.16   0.20  -0.06    -0.00   0.00   0.00    -0.07  -0.05   0.04
    12   1    -0.01   0.05   0.01    -0.00   0.06  -0.42     0.00  -0.07   0.52
    13   1     0.00   0.00   0.00     0.00  -0.00  -0.00    -0.00   0.01  -0.04
    14   1    -0.00   0.01  -0.01     0.00   0.03   0.02    -0.00  -0.02  -0.01
    15   1     0.00  -0.01  -0.00    -0.03  -0.02   0.01     0.02   0.01  -0.00
    16   1    -0.00   0.01  -0.01     0.00  -0.16  -0.10     0.00   0.00   0.00
    17   1    -0.00   0.00   0.00     0.00  -0.13   0.74     0.00   0.00  -0.00
    18   1     0.01   0.05   0.01     0.00   0.06  -0.43     0.00   0.07  -0.52
    19   1     0.00   0.01  -0.01    -0.00   0.03   0.02    -0.00   0.02   0.01
    20   1    -0.00  -0.01  -0.00     0.03  -0.02   0.01     0.02  -0.01   0.00
    21   1    -0.00   0.00   0.00    -0.00  -0.00  -0.00    -0.00  -0.01   0.04
    22   1    -0.07  -0.10  -0.01    -0.01  -0.01   0.09    -0.04  -0.06   0.45
    23   1     0.16   0.20  -0.06     0.00   0.00   0.00    -0.07   0.05  -0.04
                     52                     53                     54
                      A                      A                      A
 Frequencies --   3009.9809              3014.5841              3023.9936
 Red. masses --      1.0704                 1.0750                 1.0714
 Frc consts  --      5.7135                 5.7560                 5.7724
 IR Inten    --     10.7679                 0.6366                57.6109
  Atom  AN      X      Y      Z        X      Y      Z        X      Y      Z
     1   8    -0.00  -0.00  -0.00    -0.00   0.00  -0.00    -0.00  -0.00   0.00
     2   6     0.00   0.00  -0.00     0.00  -0.00  -0.00     0.00   0.00  -0.00
     3   6    -0.01   0.00  -0.04    -0.01  -0.00  -0.04    -0.01  -0.00  -0.03
     4   6     0.00  -0.00   0.03    -0.00   0.01  -0.04    -0.00   0.01  -0.03
     5   6     0.00   0.00  -0.00     0.00  -0.00   0.01     0.00  -0.00   0.01
     6   6     0.00  -0.02   0.02     0.00  -0.00   0.00     0.00   0.03  -0.01
     7   6    -0.00  -0.00   0.03    -0.00  -0.01   0.04     0.00   0.01  -0.03
     8   6    -0.00   0.00  -0.00     0.00   0.00  -0.01    -0.00  -0.00   0.01
     9   6     0.01   0.00  -0.04    -0.01   0.00   0.04     0.01  -0.00  -0.03
    10   1     0.04  -0.07   0.50     0.04  -0.07   0.50     0.03  -0.06   0.43
    11   1     0.09   0.06  -0.04     0.12   0.08  -0.06     0.11   0.08  -0.05
    12   1    -0.00   0.05  -0.31     0.00  -0.07   0.45     0.00  -0.06   0.41
    13   1     0.00  -0.01   0.04    -0.00   0.01  -0.08    -0.00   0.02  -0.15
    14   1     0.00   0.00   0.00    -0.00  -0.00   0.00     0.00   0.05   0.03
    15   1    -0.01  -0.00   0.00    -0.00  -0.00   0.00    -0.04  -0.03   0.02
    16   1    -0.00   0.22   0.13     0.00   0.00   0.00    -0.00  -0.26  -0.14
    17   1     0.00   0.07  -0.42    -0.00   0.00  -0.00    -0.00  -0.05   0.29
    18   1     0.00   0.05  -0.31     0.00   0.07  -0.45    -0.00  -0.06   0.41
    19   1    -0.00   0.00   0.00    -0.00   0.00  -0.00    -0.00   0.05   0.03
    20   1     0.01  -0.00   0.00    -0.00   0.00  -0.00     0.04  -0.03   0.02
    21   1    -0.00  -0.01   0.04    -0.00  -0.01   0.08     0.00   0.02  -0.15
    22   1    -0.04  -0.07   0.50     0.04   0.07  -0.50    -0.03  -0.06   0.43
    23   1    -0.09   0.06  -0.04     0.12  -0.08   0.06    -0.11   0.08  -0.05
                     55                     56                     57
                      A                      A                      A
 Frequencies --   3038.8646              3040.1790              3062.3036
 Red. masses --      1.0359                 1.0375                 1.0978
 Frc consts  --      5.6364                 5.6497                 6.0654
 IR Inten    --     38.5173                36.4407                35.4621
  Atom  AN      X      Y      Z        X      Y      Z        X      Y      Z
     1   8     0.00   0.00  -0.00    -0.00   0.00  -0.00     0.00  -0.00   0.00
     2   6    -0.00   0.00   0.00     0.00   0.00   0.00    -0.00   0.00  -0.00
     3   6     0.00   0.00   0.00    -0.00  -0.00  -0.01    -0.00  -0.00  -0.00
     4   6    -0.00  -0.00   0.00     0.00   0.00  -0.01     0.00   0.00  -0.01
     5   6     0.03  -0.02   0.01    -0.03   0.02  -0.01    -0.00   0.00   0.01
     6   6    -0.00   0.00  -0.00     0.00   0.01  -0.01    -0.00  -0.06  -0.06
     7   6    -0.00   0.00  -0.00    -0.00   0.00  -0.01    -0.00   0.00  -0.01
     8   6     0.03   0.02  -0.01     0.03   0.02  -0.01     0.00   0.00   0.01
     9   6     0.00  -0.00  -0.00     0.00  -0.00  -0.01     0.00  -0.00  -0.00
    10   1    -0.00   0.00  -0.04     0.01  -0.01   0.09     0.00  -0.00   0.02
    11   1    -0.00  -0.00   0.00     0.01   0.01  -0.01     0.03   0.02  -0.01
    12   1     0.00   0.00  -0.03    -0.00  -0.01   0.08    -0.00  -0.02   0.14
    13   1    -0.01   0.07  -0.46     0.01  -0.07   0.44    -0.00   0.01  -0.07
    14   1     0.00   0.34   0.18    -0.00  -0.33  -0.18    -0.00  -0.05  -0.02
    15   1    -0.30  -0.19   0.10     0.29   0.19  -0.10     0.00   0.00   0.00
    16   1     0.00  -0.00  -0.00    -0.00  -0.05  -0.03     0.00   0.79   0.41
    17   1     0.00  -0.00   0.00    -0.00  -0.02   0.13     0.00  -0.08   0.36
    18   1     0.00  -0.00   0.04     0.00  -0.01   0.08     0.00  -0.02   0.14
    19   1     0.00  -0.34  -0.18     0.00  -0.33  -0.18     0.00  -0.05  -0.02
    20   1    -0.30   0.19  -0.10    -0.29   0.19  -0.10    -0.00   0.00   0.00
    21   1    -0.01  -0.07   0.46    -0.01  -0.07   0.44     0.00   0.01  -0.07
    22   1    -0.00  -0.00   0.04    -0.01  -0.01   0.09    -0.00  -0.00   0.02
    23   1    -0.00   0.00  -0.00    -0.01   0.01  -0.01    -0.03   0.02  -0.01
                     58                     59                     60
                      A                      A                      A
 Frequencies --   3103.3181              3103.7447              3109.7328
 Red. masses --      1.1011                 1.1006                 1.0968
 Frc consts  --      6.2476                 6.2469                 6.2491
 IR Inten    --      2.7737                61.6756                 5.3100
  Atom  AN      X      Y      Z        X      Y      Z        X      Y      Z
     1   8    -0.00   0.00  -0.00     0.00   0.00  -0.00     0.00   0.00  -0.00
     2   6     0.00  -0.00   0.00    -0.00  -0.00   0.00    -0.00  -0.00   0.00
     3   6     0.01   0.01  -0.01    -0.01  -0.01   0.01    -0.04  -0.03   0.03
     4   6     0.00  -0.00   0.01    -0.00   0.00  -0.01    -0.00   0.00   0.00
     5   6    -0.02   0.01   0.06     0.02  -0.01  -0.06     0.01   0.03   0.01
     6   6    -0.00  -0.00  -0.00     0.00  -0.00  -0.01     0.00   0.00   0.00
     7   6     0.00   0.00  -0.01     0.00   0.00  -0.01    -0.00  -0.00  -0.00
     8   6    -0.02  -0.01  -0.06    -0.02  -0.01  -0.06     0.01  -0.03  -0.01
     9   6     0.01  -0.01   0.01     0.01  -0.01   0.01    -0.04   0.03  -0.03
    10   1     0.00  -0.00   0.03    -0.01   0.01  -0.03    -0.02   0.01  -0.13
    11   1    -0.13  -0.09   0.05     0.16   0.11  -0.06     0.44   0.31  -0.17
    12   1    -0.00   0.01  -0.06     0.00  -0.01   0.07    -0.00   0.00  -0.04
    13   1    -0.02   0.09  -0.50     0.02  -0.09   0.49    -0.00   0.02  -0.08
    14   1    -0.00  -0.32  -0.16     0.00   0.31   0.15     0.01  -0.28  -0.15
    15   1     0.23   0.15  -0.06    -0.23  -0.15   0.06    -0.18  -0.11   0.06
    16   1    -0.00   0.00   0.00     0.00   0.06   0.03    -0.00  -0.00  -0.00
    17   1     0.00  -0.00   0.00    -0.00  -0.01   0.05     0.00   0.00  -0.00
[...]
 7451,0.00014478,-0.00027331,0.00097429,0.00266534,0.00010924,0.0015895
 9,-0.13020435,-0.00115637,-0.19271470,0.00000331,0.00028395,-0.0000792
 0,0.00022596,-0.00018727,0.00019677,-0.00004177,-0.00003326,-0.0000103
 5,0.00002366,0.00003380,-0.00011125,0.00014175,0.00015012,0.00050630,-
 0.00005561,0.00010765,-0.00008721,-0.00010851,-0.00052959,0.00071833,-
 0.02015860,0.00031955,-0.02034763,0.14401223,0.00054805,0.20584466,0.0
 0015289,0.00017507,-0.00003284,0.00004965,-0.00027695,0.00022027,0.001
 31100,-0.00027676,0.00031845,0.01185701,-0.01710086,-0.00251404,-0.134
 92459,0.12328699,0.01273609,-0.00243796,-0.00245461,-0.00003647,0.0008
 3388,-0.00098621,-0.00011226,-0.00030308,-0.00027542,0.00001840,0.0001
 5785,0.00012139,0.00002824,-0.00011711,0.00008294,-0.00006541,-0.00009
 342,0.00022459,0.00007038,0.00085507,0.00087425,-0.00012314,-0.0092243
 9,0.01219555,0.00019493,-0.01245500,0.01756832,0.00325066,0.14420247,-
 0.00008243,0.00021443,0.00004966,-0.00018086,-0.00036087,0.00021631,0.
 00156965,0.00101975,0.00036214,0.01668677,-0.02248231,-0.00277433,0.12
 234950,-0.22407950,-0.01831325,-0.00576888,-0.00343249,0.00068415,0.00
 198121,-0.00067630,-0.00019808,-0.00067591,-0.00046617,0.00002694,0.00
 015535,0.00026667,0.00005560,-0.00008585,-0.00004584,-0.00005266,-0.00
 096307,0.00031153,-0.00045416,0.00009425,0.00100889,0.00046063,-0.0014
 0799,0.00209058,-0.00036007,-0.00062320,0.00116881,0.00070694,-0.13288
 420,0.24503057,0.00008169,0.00004650,-0.00002579,-0.00016285,-0.000001
 17,-0.00007239,0.00050057,-0.00050080,0.00003178,-0.00151515,0.0021294
 3,-0.00128326,0.01254758,-0.01830443,-0.05174176,0.00025292,0.00025279
 ,0.00013630,-0.00006752,0.00010654,0.00062457,0.00003213,0.00002596,-0
 .00002214,0.00009351,0.00012015,0.00000317,0.00011506,-0.00010299,-0.0
 0004656,-0.00025017,-0.00005417,0.00018389,-0.00050275,0.00012589,0.00
 011690,0.01664376,-0.02500622,-0.00153310,-0.01378233,0.02144142,0.002
 90806,-0.01399136,0.01969403,0.05021591,-0.00054484,0.,0.00008520,0.00
 112515,0.,0.00021141,-0.00131426,0.00322755,0.00157561,-0.01357676,0.0
 0057123,-0.01453461,0.00049221,-0.00119538,0.00010630,-0.16435256,0.,-
 0.12575726,-0.01357676,-0.00057123,-0.01453460,0.00049221,0.00119538,0
 .00010630,-0.00131426,-0.00322755,0.00157561,0.00018649,0.00002599,-0.
 00013743,-0.00070187,-0.00002834,-0.00095542,0.00026750,-0.00061515,0.
 00027247,0.00005462,0.00005760,0.00009172,0.00068030,0.00050449,0.0002
 1037,0.00004885,-0.00008320,0.00035005,0.17932355,0.,0.00082804,0.,0.,
 -0.00206598,0.,0.00312148,-0.00475979,-0.00148742,0.01839344,-0.000967
 64,0.02186591,0.00083590,0.00142847,0.00106329,0.,-0.04747550,0.,-0.01
 839344,-0.00096764,-0.02186590,-0.00083590,0.00142847,-0.00106329,-0.0
 0312148,-0.00475979,0.00148742,-0.00035690,0.00001003,-0.00018380,0.00
 143838,0.00017510,0.00125147,-0.00065383,0.00105344,-0.00039013,-0.000
 04930,-0.00010761,-0.00000061,-0.00047528,-0.00042557,-0.00047429,-0.0
 0014298,0.00030500,-0.00028365,0.,0.05562061,-0.00011533,0.,-0.0000289
 9,0.00031659,0.,-0.00005164,0.00026580,0.00006574,0.00112072,0.0024559
 0,-0.00051408,0.00139358,0.00003883,-0.00019383,-0.00005311,-0.1261941
 8,0.,-0.18940399,0.00245590,0.00051408,0.00139357,0.00003883,0.0001938
 3,-0.00005311,0.00026580,-0.00006574,0.00112072,0.00021103,-0.00014929
 ,0.00045164,-0.00016155,-0.00010265,0.00019564,-0.00014474,0.00051394,
 0.00080748,-0.00009337,-0.00000883,-0.00005101,0.00020405,0.00048965,0
 .00029368,0.00026435,0.00013045,0.00017328,0.13925893,0.,0.20210324,0.
 00021161,0.,0.00005316,-0.00044891,0.,0.00000223,0.00060630,-0.0007051
 9,0.00127678,-0.01071299,0.00094189,0.01744892,0.00039463,-0.00111405,
 -0.00037272,-0.11046804,0.,0.10338051,-0.01071299,-0.00094189,0.017448
 92,0.00039463,0.00111405,-0.00037272,0.00060630,0.00070519,0.00127678,
 -0.00014094,0.00029444,-0.00080647,0.00031295,0.00000617,-0.00029959,-
 0.00172966,0.00318792,0.00019282,0.00059054,0.00041325,-0.00027662,0.0
 0005884,0.00007037,-0.00010222,-0.00001764,-0.00006961,-0.00028952,0.0
 1217452,0.,-0.01934662,0.11980677,0.,0.00017620,0.,0.,-0.00046702,0.,-
 0.00099062,0.00103871,-0.00062912,0.01460852,-0.00177278,-0.02566041,0
 .00068200,0.00179264,-0.00111398,0.,-0.04828813,0.,-0.01460852,-0.0017
 7278,0.02566041,-0.00068200,0.00179265,0.00111398,0.00099062,0.0010387
 2,0.00062911,-0.00004811,0.00006502,0.00069927,-0.00037429,-0.00002514
 ,0.00010985,0.00351898,-0.00461197,-0.00019833,-0.00042176,-0.00028810
 ,0.00070897,-0.00003232,-0.00008540,-0.00002249,-0.00012061,0.00027400
 ,0.00034360,0.,-0.00033005,0.,0.,0.05613503,0.00008335,0.,-0.00010907,
 -0.00013427,0.,0.00013374,-0.00047070,0.00024240,0.00075541,0.00137528
 ,-0.00040725,-0.00337067,-0.00006565,0.00049033,0.00014517,0.10334316,
 0.,-0.23393932,0.00137528,0.00040725,-0.00337067,-0.00006565,-0.000490
 33,0.00014517,-0.00047070,-0.00024240,0.00075541,0.00042164,-0.0000396
 1,0.00057563,0.00002635,-0.00007105,0.00025219,0.00019165,-0.00056028,
 0.00144702,-0.00027473,-0.00070908,0.00034498,0.00007751,0.00001183,-0
 .00005383,-0.00023325,-0.00016254,0.00032381,0.01224360,0.,-0.02128242
 ,-0.11763204,0.,0.25435766,-0.00014268,-0.00023770,0.00028285,0.001643
 98,-0.00067844,-0.00041173,0.00003483,0.00002815,-0.00018120,0.0001041
 8,0.00124154,-0.00000763,0.00008479,-0.00005938,-0.00023969,-0.0106146
 4,-0.00195952,0.01816667,-0.10218098,0.00043230,0.10109669,-0.01008122
 ,0.00164480,0.01741932,0.00916771,0.00025528,-0.02304940,-0.00010677,0
 .00000228,-0.00003011,0.00005847,0.00004071,0.00004477,0.00068404,-0.0
 0039750,-0.00040315,0.00006166,0.00019783,-0.00009868,-0.00003625,0.00
 000364,0.00002228,0.00003429,-0.00005490,-0.00005774,0.00026750,0.0006
 5383,-0.00014474,-0.00172966,-0.00351898,0.00019165,0.11515754,-0.0000
 4633,0.00007005,-0.00008907,-0.00031946,-0.00010507,0.00061065,0.00023
 935,-0.00009925,-0.00012499,-0.00082073,0.00167693,0.00126288,-0.00013
 347,-0.00004649,-0.00011774,-0.01441277,-0.00266371,0.02558109,0.00062
 048,-0.04966657,-0.00043163,0.01498521,-0.00226042,-0.02570737,-0.0001
 3520,0.00010616,-0.00001620,-0.00005736,0.00009953,-0.00017347,0.00005
 926,-0.00001620,0.00003253,0.00039750,-0.00043254,-0.00061726,0.000162
 88,0.00008723,-0.00019983,-0.00000932,0.00001098,0.00002172,0.00007831
 ,0.00000284,-0.00009482,0.00061515,0.00105344,-0.00051394,-0.00318792,
 -0.00461197,0.00056028,-0.00068698,0.05839313,-0.00141460,0.00043811,0
 .00048327,0.00223424,-0.00176488,-0.00077119,-0.00010066,0.00040756,-0
 .00024526,0.00001131,-0.00051656,-0.00025609,-0.00024351,0.00015402,0.
 00044669,0.00162038,0.00042561,-0.00232362,0.10107623,-0.00082097,-0.2
 4131199,0.00098470,-0.00021492,-0.00134040,0.00784560,0.00121282,-0.02
 291865,0.00000334,-0.00007010,0.00014963,0.00001205,0.00012694,-0.0000
 2225,-0.00040315,0.00061726,0.00048805,-0.00008426,-0.00021065,0.00000
 161,0.00002169,-0.00000510,-0.00002025,0.00002017,0.00007305,-0.000020
 40,0.00027247,0.00039013,0.00080748,0.00019282,0.00019833,0.00144702,-
 0.10825001,0.00067980,0.26485069,-0.00092150,0.00069759,0.00029281,0.0
 0045990,-0.00177600,-0.00130488,0.00001344,0.00004421,0.00018976,0.000
 01260,0.00008610,0.00017840,0.00004697,-0.00000453,0.00006586,0.000453
 09,-0.00110157,0.00008452,-0.01324172,-0.00068936,-0.01388137,-0.16818
 767,0.00046887,-0.13005966,-0.00176093,0.00480917,0.00099210,-0.000008
 26,-0.00000866,0.00000051,0.00005609,0.00010902,0.00005054,-0.00003625
 ,0.00000932,0.00002169,-0.00000386,-0.00000099,0.00000195,0.00004079,0
 .00004139,0.00001290,-0.00000884,-0.00000541,-0.00000650,0.00068030,0.
 00047528,0.00020405,0.00005884,0.00003232,0.00007751,0.00018947,-0.000
 54972,0.00032167,0.18120927,0.00084343,-0.00080671,-0.00034295,0.00064
 530,0.00185711,0.00133541,-0.00021627,0.00004968,-0.00017854,0.0001762
 7,-0.00006334,-0.00013524,-0.00012688,0.00005825,-0.00005549,0.0006846
 0,0.00156371,0.00106755,0.01822513,-0.00027998,0.02194455,0.00004224,-
 0.04911715,0.00050378,0.00252912,-0.00545903,-0.00057844,0.00002084,-0
 .00000649,0.00000283,-0.00006802,-0.00002189,-0.00006495,-0.00000364,0
 .00001098,0.00000510,0.00000938,-0.00000461,-0.00000192,-0.00004139,-0
 .00005554,-0.00002152,0.00001458,0.00005472,-0.00000448,-0.00050449,-0
 .00042557,-0.00048964,-0.00007037,-0.00008540,-0.00001183,-0.00070822,
 0.00109622,-0.00030553,-0.00297802,0.05141251,-0.00027464,0.00029505,-
 0.00014399,0.00019221,-0.00078201,0.00047451,0.00002366,-0.00003380,-0
 .00011125,0.00022596,0.00018727,0.00019677,-0.00004177,0.00003326,-0.0
 0001035,0.00000331,-0.00028395,-0.00007920,0.00266533,-0.00010924,0.00
 158958,-0.13020437,0.00115637,-0.19271474,0.00014479,0.00027331,0.0009
 7429,0.00000153,0.00000043,0.00000965,0.00002743,0.00005314,0.00003710
 ,0.00002228,-0.00002172,-0.00002025,-0.00000333,0.00000563,-0.00000893
 ,0.00001290,0.00002152,0.00002543,0.00001460,0.00001066,-0.00000103,0.
 00021037,0.00047429,0.00029369,-0.00010222,0.00002249,-0.00005383,-0.0
 0010851,0.00052959,0.00071833,0.14401225,-0.00054805,0.20584470,0.0001
 5289,-0.00017507,-0.00003284,0.00004965,0.00027695,0.00022027,0.000157
 85,-0.00012139,0.00002824,0.00083388,0.00098620,-0.00011226,-0.0003030
 8,0.00027542,0.00001840,-0.00243795,0.00245461,-0.00003647,0.01185699,
 0.01710080,-0.00251404,-0.13492398,-0.12328557,0.01273593,0.00131099,0
 .00027676,0.00031845,0.00000155,0.00001563,-0.00001368,-0.00000629,-0.
 00003700,0.00000467,0.00003429,-0.00007831,0.00002017,-0.00000217,-0.0
 0000421,-0.00001676,-0.00000884,-0.00001458,0.00001460,0.00008597,0.00
 012897,-0.00000199,0.00004885,0.00014298,0.00026435,-0.00001764,0.0001
 2062,-0.00023325,0.00085507,-0.00087424,-0.00012315,-0.01245498,-0.017
 56829,0.00325067,0.14420186,0.00008243,0.00021443,-0.00004966,0.000180
 86,-0.00036087,-0.00021631,-0.00015535,0.00026667,-0.00005560,-0.00198
 121,-0.00067630,0.00019808,0.00067591,-0.00046617,-0.00002694,0.005768
 89,-0.00343249,-0.00068415,-0.01668678,-0.02248231,0.00277434,-0.12234
 808,-0.22407762,0.01831302,-0.00156965,0.00101975,-0.00036214,-0.00001
 693,0.00001061,0.00002063,0.00012289,0.00004834,0.00008653,0.00005490,
 0.00000284,-0.00007305,-0.00002578,0.00002307,0.00003021,0.00000541,0.
 00005472,-0.00001066,-0.00012897,-0.00028632,0.00001809,0.00008320,0.0
 0030500,-0.00013045,0.00006961,0.00027400,0.00016255,-0.00009424,0.001
 00889,-0.00046063,0.00062318,0.00116879,-0.00070695,0.13288282,0.24502
 873,0.00008169,-0.00004650,-0.00002579,-0.00016285,0.00000117,-0.00007
 239,0.00009351,-0.00012015,0.00000317,-0.00006752,-0.00010654,0.000624
 57,0.00003213,-0.00002596,-0.00002214,0.00025292,-0.00025279,0.0001363
 0,-0.00151514,-0.00212940,-0.00128327,0.01254742,0.01830420,-0.0517420
 3,0.00050057,0.00050080,0.00003178,0.00000175,-0.00001475,0.00000470,0
 .00000174,-0.00003046,0.00002219,-0.00005774,0.00009482,-0.00002040,0.
 00000713,-0.00000311,0.00000481,-0.00000650,0.00000448,-0.00000103,-0.
 00000199,-0.00001809,-0.00000293,0.00035005,0.00028365,0.00017328,-0.0
 0028952,-0.00034360,0.00032381,-0.00050275,-0.00012590,0.00011690,-0.0
 1378230,-0.02144138,0.00290807,-0.01399122,-0.01969383,0.05021618,0.00
 023313,-0.00015830,0.00005559,0.00005079,0.00027421,-0.00027804,-0.000
 01391,-0.00008068,0.00015613,0.00006820,0.00000218,-0.00016599,-0.0000
 1570,0.00002191,-0.00007472,0.00029135,-0.00116808,-0.00040965,-0.0108
 2255,0.00101459,0.01733813,-0.10989324,0.00396453,0.10851131,0.0007245
 7,-0.00092871,0.00136038,0.00000870,0.00000524,-0.00003213,-0.00001202
 ,-0.00001353,-0.00001832,0.00006166,-0.00016288,-0.00008426,0.00001717
 ,0.00002457,0.00000162,-0.00000386,-0.00000938,-0.00000333,-0.00000217
 ,0.00002578,0.00000713,0.00005462,0.00004930,-0.00009337,0.00059054,0.
 00042176,-0.00027473,-0.00158377,0.00368944,-0.00018708,0.01275335,-0.
 00084085,-0.02015860,-0.00922440,0.00140797,0.01664374,0.11686645,-0.0
 0019920,0.00008079,-0.00001072,-0.00016745,-0.00006444,-0.00007828,-0.
 00001901,0.00005373,-0.00005010,0.00014660,-0.00013422,0.00009388,-0.0
 0006789,0.00002781,0.00009147,0.00069257,0.00201742,-0.00139193,0.0143
 3722,-0.00210186,-0.02583527,0.00384346,-0.04949981,-0.00782737,-0.001
 16144,0.00095224,-0.00090082,0.00001199,-0.00002644,0.00003335,-0.0000
 1720,0.00000207,-0.00000430,-0.00019783,0.00008723,0.00021065,-0.00002
 457,-0.00005353,0.00001845,0.00000099,-0.00000461,-0.00000563,0.000004
 21,0.00002307,0.00000311,-0.00005760,-0.00010761,0.00000883,-0.0004132
 5,-0.00028810,0.00070908,0.00348613,-0.00455420,-0.00023071,-0.0001763
 8,-0.00094627,-0.00031955,-0.01219556,0.00209057,0.02500619,-0.0077891
 5,0.05220334,0.00004993,-0.00005764,-0.00010647,-0.00011990,0.00017783
 ,0.00036077,0.00001479,-0.00003277,-0.00008908,-0.00026913,-0.00015325
 ,0.00036425,0.00006400,-0.00005699,-0.00002726,-0.00006708,0.00048504,
 0.00009958,0.00077590,-0.00061779,-0.00244598,0.10876314,-0.00823100,-
 0.24708279,-0.00054740,0.00012468,0.00124886,0.00000704,-0.00000671,0.
 00002354,0.00000084,-0.00001943,0.00000661,-0.00009868,0.00019983,0.00
 000161,0.00000162,-0.00001845,0.00002318,0.00000195,0.00000192,-0.0000
 0893,-0.00001676,-0.00003021,0.00000481,0.00009172,0.00000062,-0.00005
 101,-0.00027662,-0.00070897,0.00034498,-0.00004983,-0.00050492,0.00150
 485,0.01234382,-0.00036697,-0.02034763,0.00019495,0.00036008,-0.001533
 11,-0.12134019,0.00956464,0.26726565,-0.00116073,0.00391282,-0.0031632
 2,-0.01157417,-0.00048943,0.01738712,0.00031260,-0.00021252,-0.0010770
 6,-0.00007975,-0.00030396,-0.00004608,-0.00004128,0.00000523,-0.000030
 65,0.00153643,0.00040643,-0.00020730,0.00914962,-0.00219525,-0.0232256
 0,0.00174681,-0.00042036,-0.00044630,-0.09590619,0.00721539,0.10641774
 ,0.00060334,0.00036611,-0.00027726,-0.00007462,-0.00007880,-0.00035338
 ,-0.00010677,0.00005736,0.00000334,0.00000870,-0.00001199,0.00000704,-
 0.00000826,-0.00002084,0.00000153,0.00000155,0.00001693,0.00000175,0.0
 0018649,0.00035690,0.00021103,-0.00014094,0.00004811,0.00042164,-0.002
 98932,0.00003945,-0.00383332,0.00029497,-0.00035380,0.00014175,-0.0001
 1711,0.00008585,0.00011506,-0.00010527,-0.00004885,0.00052329,0.107010
 27,0.00263402,-0.00277541,0.00352146,0.01263192,0.00176299,-0.02832983
 ,-0.00139195,-0.00039539,0.00324795,0.00039522,0.00019443,0.00016266,0
 .00003512,0.00000015,-0.00000579,0.00057018,0.00011297,-0.00112174,-0.
 00080820,0.00026912,0.00051709,-0.00061468,0.00024656,0.00104865,0.008
 81824,-0.05330633,-0.02289837,-0.00036611,-0.00156392,-0.00003390,0.00
 007481,0.00041788,0.00042025,-0.00000228,0.00009953,0.00007010,-0.0000
 0524,-0.00002644,0.00000671,0.00000866,-0.00000649,-0.00000043,-0.0000
 1563,0.00001061,0.00001475,-0.00002599,0.00001003,0.00014929,-0.000294
 44,0.00006502,0.00003961,0.00045905,0.00071475,0.00027460,-0.00006973,
 -0.00011459,-0.00015012,-0.00008294,-0.00004584,0.00010299,0.00020502,
 0.00025262,-0.00009410,-0.01126764,0.05064291,-0.00064438,-0.00058063,
 -0.00089188,0.00052525,0.00030838,0.00105587,0.00061280,0.00012769,-0.
 00066215,-0.00036274,-0.00006657,-0.00012020,0.00004291,-0.00002996,0.
 00000283,0.00148806,0.00065692,0.00068406,0.00970550,-0.00169768,-0.02
 670575,0.00173101,-0.00070220,0.00125590,0.10269216,-0.01768851,-0.237
 52079,-0.00027726,0.00003390,0.00051975,-0.00003794,-0.00016552,0.0002
 2825,-0.00003011,0.00017347,0.00014963,-0.00003213,-0.00003335,0.00002
 354,0.00000051,-0.00000283,0.00000965,-0.00001368,-0.00002063,0.000004
 70,-0.00013743,0.00018380,0.00045164,-0.00080647,-0.00069927,0.0005756
 3,-0.00458332,-0.00021745,-0.00269505,-0.00007133,-0.00023867,0.000506
 30,-0.00006541,0.00005266,-0.00004656,-0.00095203,0.00074614,0.0004618
 4,-0.10993501,0.01976151,0.26524615,0.00186790,-0.00131258,0.00008835,
 0.01140616,0.01589097,-0.00247204,-0.00209435,0.00269694,0.00039327,-0
 .00037932,0.00029375,-0.00008717,0.00016845,-0.00008847,0.00004615,-0.
 00227704,0.00162309,-0.00423077,-0.01318317,-0.01661553,0.00405296,0.0
 0046600,-0.00127106,0.00071564,-0.15358195,-0.13126392,0.01895754,-0.0
 0007462,-0.00007481,-0.00003794,0.00057228,0.00089181,0.00008684,0.000
 05847,-0.00005926,0.00001205,-0.00001202,0.00001720,0.00000084,0.00005
 609,0.00006802,0.00002743,-0.00000629,-0.00012289,0.00000174,-0.000701
 87,-0.00143838,-0.00016155,0.00031295,0.00037429,0.00002635,0.00112175
 ,0.00034647,0.00002307,0.00035494,0.00028935,-0.00005561,-0.00009342,0
 .00096307,-0.00025017,-0.00004362,0.00001218,-0.00004741,-0.00854633,-
 0.01088740,0.00115105,0.16460901,0.00007262,0.00598733,-0.00073151,-0.
 02217931,-0.02642495,0.00396811,0.00493564,-0.00319121,-0.00064327,0.0
 0036085,0.00018510,0.00047327,-0.00003834,0.00011052,-0.00012499,0.000
 81061,0.00081352,0.00001140,0.00121462,0.00081706,-0.00110325,0.000510
 95,0.00084666,0.00003154,-0.12709233,-0.20750201,0.02340344,0.00007880
 ,0.00041788,0.00016552,-0.00089181,-0.00149710,-0.00010468,-0.00004071
 ,-0.00001620,-0.00012694,0.00001353,0.00000207,0.00001943,-0.00010902,
 -0.00002189,-0.00005314,0.00003700,0.00004834,0.00003046,0.00002835,0.
 00017511,0.00010265,-0.00000617,-0.00002515,0.00007105,-0.00004968,0.0
 0013627,-0.00039820,-0.00003607,0.00011462,-0.00010765,-0.00022459,0.0
 0031153,0.00005417,0.00004505,-0.00000977,-0.00001544,0.00289285,0.003
 43485,0.00009880,0.13966716,0.22528744,-0.00064042,0.00021249,-0.00117
 454,0.00073640,-0.00217445,-0.00065202,-0.00007118,0.00033670,0.001225
 81,-0.00022177,0.00060092,-0.00008573,0.00016376,-0.00007263,0.0000403
 8,-0.00295734,0.00125154,-0.00364429,-0.01528601,-0.01969898,0.0030100
 0,0.00074172,-0.00077891,0.00053324,0.01863272,0.02356866,-0.05359184,
 -0.00035338,-0.00042025,0.00022825,0.00008684,0.00010468,0.00038374,0.
 00004477,-0.00003253,-0.00002225,-0.00001832,0.00000430,0.00000661,0.0
 0005054,0.00006495,0.00003710,0.00000467,-0.00008653,0.00002219,-0.000
 95542,-0.00125147,0.00019564,-0.00029959,-0.00010985,0.00025219,0.0008
 9427,-0.00034397,0.00091062,0.00025566,-0.00007361,-0.00008721,0.00007
 039,0.00045416,0.00018389,-0.00000159,0.00016889,-0.00001828,0.0173638
 9,0.02329665,-0.00253339,-0.01824063,-0.02502078,0.05477990\\-0.000004
 65,0.00000006,0.00003191,0.00015057,0.00000010,0.00000648,-0.00011311,
 0.00000863,-0.00003792,0.00001126,0.00002759,0.00003577,-0.00000247,0.
 00001703,-0.00002273,0.00007379,-0.00000001,-0.00003801,0.00001104,-0.
 00002758,0.00003581,-0.00000298,-0.00001779,-0.00002288,-0.00011188,-0
 .00000816,-0.00003807,0.00001829,-0.00000198,-0.00000008,0.00001250,-0
 .00003309,0.00000250,-0.00000744,-0.00000843,0.00001480,0.00001535,-0.
 00000394,-0.00000440,-0.00001740,-0.00001566,0.00001332,-0.00000476,0.
 00000480,-0.00000859,-0.00004369,0.,0.00000805,-0.00000068,0.,0.000006
 22,-0.00000745,0.00000847,0.00001481,-0.00001745,0.00001567,0.00001333
 ,-0.00000426,-0.00000409,-0.00000861,0.00001535,0.00000396,-0.00000438
 ,0.00001810,0.00000199,0.00000011,0.00001195,0.00003241,0.00000258\\\@


          EVOLUTION
 IN THE BEGINNING GOD MADE MAN.
 HE WORKED THE DIRT WITH HIS HANDS.
 THEN GOD DECIDED TO GIVE MAN SCIENCE,
 MAN SHOULD BE USEFUL (LIKE AN APPLIANCE.)
 BUT SOON MAN'S KNOWLEDGE GREW TOO GREAT,
 TO THE HEADING SCIENCE HE COULDN'T RELATE
 SO GOD SAID "LETS HAVE DIFFERENT FIELDS,
 WE'LL DIVIDE THEM UP, SEE WHAT IT YIELDS."
 ENTER PHYSICS, CHEMISTRY, BIO
 THEY SPRANG UP AROUND THE NILE.
 BUT CHEMISTRY SURPASSED THE REST
 FAR AND AWAY IT WAS THE BEST.
 EXPERIMENT WAS GOD'S DECREE
 EXPERIMENT DID CHEMISTS WITH LOTS OF GLEE
 BUT SOON THEIR TESTS BEGAN TO BOG,
 THEY FOUND THEMSELVES DEEP IN A FOG.
 "GIVE US SOME HELP" THEY CRIED TO GOD.
 GOD LOOKED AROUND, THEN GAVE THE NOD.
 ENTER EINSTEIN, HEISENBERG, BOHR,
 REACTION PATHS WERE CLEAR ONCE MORE.
 WITH THEORISTS GOD SEND DIRECTION
 AND THEN HE STOPPED, HE'D MADE PERFECTION.
          -- THOMAS A. HOLME, 1981
 Job cpu time:       0 days  0 hours  1 minutes 32.8 seconds.
 Elapsed time:       0 days  0 hours  1 minutes 32.9 seconds.
 File lengths (MBytes):  RWF=     78 Int=      0 D2E=      0 Chk=      5 Scr=      1
 Normal termination of Gaussian 16 at Wed Feb 21 18:48:06 2024.
