 Entering Gaussian System, Link 0=g16
 Input=/Volumes/SSD-PMU3/b3lyp_6-31gd_freq/OXMFUVLPDAZGFP-LJSVPSOQSA-N_calculating/gaussianinput0.gjf
 Output=/Volumes/SSD-PMU3/b3lyp_6-31gd_freq/OXMFUVLPDAZGFP-LJSVPSOQSA-N_calculating/gaussianinput0.log
 Initial command:
 /Applications/g16/l1.exe "/Users/macmini_m1_2022/PycharmProjects/sphere_model/sphere_model_lib/Gau-57298.inp" -scrdir="/Users/macmini_m1_2022/PycharmProjects/sphere_model/sphere_model_lib/"
 Entering Link 1 = /Applications/g16/l1.exe PID=     57299.
  
 Copyright (c) 1988,1990,1992,1993,1995,1998,2003,2009,2016,
            Gaussian, Inc.  All Rights Reserved.
  
 This is part of the Gaussian(R) 16 program.  It is based on
 the Gaussian(R) 09 system (copyright 2009, Gaussian, Inc.),
 the Gaussian(R) 03 system (copyright 2003, Gaussian, Inc.),
 the Gaussian(R) 98 system (copyright 1998, Gaussian, Inc.),
 the Gaussian(R) 94 system (copyright 1995, Gaussian, Inc.),
 the Gaussian 92(TM) system (copyright 1992, Gaussian, Inc.),
 the Gaussian 90(TM) system (copyright 1990, Gaussian, Inc.),
 the Gaussian 88(TM) system (copyright 1988, Gaussian, Inc.),
 the Gaussian 86(TM) system (copyright 1986, Carnegie Mellon
 University), and the Gaussian 82(TM) system (copyright 1983,
 Carnegie Mellon University). Gaussian is a federally registered
 trademark of Gaussian, Inc.
  
 This software contains proprietary and confidential information,
 including trade secrets, belonging to Gaussian, Inc.
  
 This software is provided under written license and may be
 used, copied, transmitted, or stored only in accord with that
 written license.
  
 The following legend is applicable only to US Government
 contracts under FAR:
  
                    RESTRICTED RIGHTS LEGEND
  
 Use, reproduction and disclosure by the US Government is
 subject to restrictions as set forth in subparagraphs (a)
 and (c) of the Commercial Computer Software - Restricted
 Rights clause in FAR 52.227-19.
  
 Gaussian, Inc.
 340 Quinnipiac St., Bldg. 40, Wallingford CT 06492
  
  
 ---------------------------------------------------------------
 Warning -- This program may not be used in any manner that
 competes with the business of Gaussian, Inc. or will provide
 assistance to any competitor of Gaussian, Inc.  The licensee
 of this program is prohibited from giving any competitor of
 Gaussian, Inc. access to this program.  By using this program,
 the user acknowledges that Gaussian, Inc. is engaged in the
 business of creating and licensing software in the field of
 computational chemistry and represents and warrants to the
 licensee that it is not a competitor of Gaussian, Inc. and that
 it will not use this program in any manner prohibited above.
 ---------------------------------------------------------------
  

 Cite this work as:
 Gaussian 16, Revision A.03,
 M. J. Frisch, G. W. Trucks, H. B. Schlegel, G. E. Scuseria, 
 M. A. Robb, J. R. Cheeseman, G. Scalmani, V. Barone, 
 G. A. Petersson, H. Nakatsuji, X. Li, M. Caricato, A. V. Marenich, 
 J. Bloino, B. G. Janesko, R. Gomperts, B. Mennucci, H. P. Hratchian, 
 J. V. Ortiz, A. F. Izmaylov, J. L. Sonnenberg, D. Williams-Young, 
 F. Ding, F. Lipparini, F. Egidi, J. Goings, B. Peng, A. Petrone, 
 T. Henderson, D. Ranasinghe, V. G. Zakrzewski, J. Gao, N. Rega, 
 G. Zheng, W. Liang, M. Hada, M. Ehara, K. Toyota, R. Fukuda, 
 J. Hasegawa, M. Ishida, T. Nakajima, Y. Honda, O. Kitao, H. Nakai, 
 T. Vreven, K. Throssell, J. A. Montgomery, Jr., J. E. Peralta, 
 F. Ogliaro, M. J. Bearpark, J. J. Heyd, E. N. Brothers, K. N. Kudin, 
 V. N. Staroverov, T. A. Keith, R. Kobayashi, J. Normand, 
 K. Raghavachari, A. P. Rendell, J. C. Burant, S. S. Iyengar, 
 J. Tomasi, M. Cossi, J. M. Millam, M. Klene, C. Adamo, R. Cammi, 
 J. W. Ochterski, R. L. Martin, K. Morokuma, O. Farkas, 
 J. B. Foresman, and D. J. Fox, Gaussian, Inc., Wallingford CT, 2016.
 
 ******************************************
 Gaussian 16:  EM64M-G16RevA.03 25-Dec-2016
                22-Feb-2024 
 ******************************************
 %nprocshared=8
 Will use up to    8 processors via shared memory.
 %mem=4GB
 %chk= 0.chk
 ---------------------
 # freq b3lyp/6-31g(d)
 ---------------------
 1/10=4,30=1,38=1/1,3;
 2/12=2,17=6,18=5,40=1/2;
 3/5=1,6=6,7=1,11=2,25=1,30=1,71=2,74=-5,140=1/1,2,3;
 4//1;
 5/5=2,38=5,98=1/2;
 8/6=4,10=90,11=11/1;
 11/6=1,8=1,9=11,15=111,16=1/1,2,10;
 10/6=1/2;
 6/7=2,8=2,9=2,10=2,28=1/1;
 7/8=1,10=1,25=1/1,2,3,16;
 1/10=4,30=1/3;
 99//99;
 ---------
 good luck
 ---------
 Symbolic Z-matrix:
 Charge =  0 Multiplicity = 1
 O                     1.21512   0.        0. 
 C                     0.        0.        0. 
 C                    -0.83927  -1.2832   -0.02551 
 C                    -2.24127  -1.05092   0.58697 
 C                    -2.06975  -0.8777    2.11508 
 C                    -1.2912    0.42547   2.43525 
 C                    -1.60617   1.50026   1.36494 
 C                    -0.85898   1.25824  -0.02551 
 C                    -2.01095   0.93739  -1.01649 
 C                    -2.97073   0.21261  -0.05266 
 C                    -3.09992   1.33241   1.00167 
 H                    -0.91304  -1.61006  -1.0717 
 H                    -0.29498  -2.07272   0.50304 
 H                    -2.85111  -1.94165   0.39876 
 H                    -1.55124  -1.74942   2.53165 
 H                    -3.05519  -0.85497   2.59345 
 H                    -0.2122    0.23855   2.48971 
 H                    -1.58723   0.79956   3.42297 
 H                    -1.35569   2.49492   1.74522 
 H                    -0.23424   2.10997  -0.30506 
 H                    -2.47134   1.85025  -1.40954 
 H                    -1.68424   0.3457   -1.87765 
 H                    -3.92245  -0.0742   -0.51165 
 H                    -3.52512   2.23352   0.54548 
 H                    -3.71949   1.0843    1.86869 
 

 GradGradGradGradGradGradGradGradGradGradGradGradGradGradGradGradGradGrad
 Berny optimization.
 Initialization pass.
 Trust Radius=3.00D-01 FncErr=1.00D-07 GrdErr=1.00D-07 EigMax=2.50D+02 EigMin=1.00D-04
 Number of steps in this run=      2 maximum allowed number of steps=      2.
 GradGradGradGradGradGradGradGradGradGradGradGradGradGradGradGradGradGrad

                          Input orientation:                          
 ---------------------------------------------------------------------
 Center     Atomic      Atomic             Coordinates (Angstroms)
 Number     Number       Type             X           Y           Z
 ---------------------------------------------------------------------
      1          8           0        1.215117    0.000000    0.000000
      2          6           0        0.000000    0.000000    0.000000
      3          6           0       -0.839267   -1.283200   -0.025512
      4          6           0       -2.241272   -1.050917    0.586966
      5          6           0       -2.069748   -0.877697    2.115082
      6          6           0       -1.291204    0.425472    2.435249
      7          6           0       -1.606172    1.500264    1.364937
      8          6           0       -0.858979    1.258238   -0.025512
      9          6           0       -2.010950    0.937391   -1.016491
     10          6           0       -2.970731    0.212609   -0.052662
     11          6           0       -3.099918    1.332413    1.001674
     12          1           0       -0.913037   -1.610061   -1.071704
     13          1           0       -0.294982   -2.072719    0.503043
     14          1           0       -2.851113   -1.941650    0.398756
     15          1           0       -1.551240   -1.749419    2.531650
     16          1           0       -3.055194   -0.854966    2.593452
     17          1           0       -0.212202    0.238548    2.489709
     18          1           0       -1.587226    0.799561    3.422966
     19          1           0       -1.355690    2.494917    1.745216
     20          1           0       -0.234242    2.109973   -0.305056
     21          1           0       -2.471339    1.850253   -1.409538
     22          1           0       -1.684235    0.345695   -1.877648
     23          1           0       -3.922450   -0.074200   -0.511647
     24          1           0       -3.525117    2.233516    0.545479
     25          1           0       -3.719487    1.084298    1.868693
 ---------------------------------------------------------------------
                    Distance matrix (angstroms):
                    1          2          3          4          5
     1  O    0.000000
     2  C    1.215117   0.000000
     3  C    2.422343   1.533500   0.000000
     4  C    3.659997   2.544063   1.547483   0.000000
     5  C    4.004280   3.086710   2.502131   1.547438   0.000000
     6  C    3.520385   2.789027   3.029711   2.549216   1.551415
     7  C    3.474697   2.587206   3.204554   2.741736   2.536202
     8  C    2.426044   1.523699   2.541514   2.760083   3.257349
     9  C    3.509909   2.440466   2.699242   2.564662   3.620048
    10  C    4.191575   2.978795   2.604097   1.593026   2.588369
    11  C    4.625819   3.519683   3.606534   2.567006   2.680581
    12  H    2.875741   2.138804   1.098544   2.197279   3.468421
    13  H    2.613353   2.153191   1.094969   2.199811   2.678907
    14  H    4.523631   3.472442   2.158954   1.095780   2.165249
    15  H    4.137928   3.446167   2.695059   2.178496   1.096485
    16  H    5.068779   4.097703   3.457266   2.174132   1.095654
    17  H    2.879721   2.510097   3.005872   3.065987   2.199278
    18  H    4.495456   3.856849   4.097479   3.448904   2.180959
    19  H    3.984901   3.332909   4.204324   3.833893   3.467161
    20  H    2.577923   2.144741   3.458009   3.849039   4.260554
    21  H    4.358921   3.393781   3.794432   3.529270   4.475034
    22  H    3.471500   2.545921   2.607236   2.887064   4.193710
    23  H    5.163515   3.956375   3.347241   2.233223   3.313279
    24  H    5.268392   4.208633   4.461739   3.526681   3.776427
    25  H    5.386839   4.301430   4.181952   2.896047   2.575222
                    6          7          8          9         10
     6  C    0.000000
     7  C    1.549177   0.000000
     8  C    2.633565   1.596942   0.000000
     9  C    3.562949   2.480296   1.553068   0.000000
    10  C    3.009289   2.351524   2.356602   1.541251   0.000000
    11  C    2.479743   1.546419   2.466256   2.326990   1.543462
    12  H    4.072484   4.011456   3.053617   2.774522   2.931668
    13  H    3.311621   3.902344   3.419465   3.783423   3.562466
    14  H    3.490542   3.785519   3.793136   3.316274   2.204295
    15  H    2.192501   3.453212   4.008030   4.474325   3.541635
    16  H    2.185454   3.025892   4.018453   4.163493   2.854605
    17  H    1.096427   2.190934   2.790058   4.002164   3.751507
    18  H    1.096885   2.174127   3.554255   4.461762   3.786633
    19  H    2.182408   1.093932   2.216207   3.237635   3.324102
    20  H    3.385851   2.245621   1.092654   2.244500   3.339471
    21  H    4.266744   2.927237   2.205836   1.095336   2.184578
    22  H    4.331503   3.442888   2.223553   1.094732   2.236819
    23  H    3.982126   3.371298   3.375881   2.220814   1.094850
    24  H    3.439567   2.211678   2.895771   2.532270   2.179262
    25  H    2.579069   2.211990   3.435225   3.356332   2.238768
                   11         12         13         14         15
    11  C    0.000000
    12  H    4.211828   0.000000
    13  H    4.439732   1.753817   0.000000
    14  H    3.338398   2.455268   2.561613   0.000000
    15  H    3.773184   3.662087   2.407894   2.505167   0.000000
    16  H    2.705621   4.311887   3.670355   2.457483   1.750926
    17  H    3.427782   4.073351   3.048877   4.011134   2.397247
    18  H    2.904277   5.144207   4.294862   4.272879   2.700563
    19  H    2.224096   4.998182   4.850917   4.871588   4.321008
    20  H    3.244109   3.858389   4.260472   4.874322   4.967524
    21  H    2.545037   3.810014   4.876905   4.218137   5.416381
    22  H    3.356824   2.251505   3.666939   3.431555   4.883554
    23  H    2.223794   3.424777   4.264059   2.337513   4.206026
    24  H    1.095853   4.920501   5.383236   4.231763   4.868761
    25  H    1.094143   4.876645   4.853760   3.474356   3.629154
                   16         17         18         19         20
    16  H    0.000000
    17  H    3.047809   0.000000
    18  H    2.362305   1.753966   0.000000
    19  H    3.850913   2.636861   2.396390   0.000000
    20  H    5.014976   3.363544   4.176828   2.368426   0.000000
    21  H    4.866521   4.785961   5.023814   3.407747   2.508374
    22  H    4.828235   4.610007   5.320894   4.225191   2.772761
    23  H    3.317133   4.782456   4.658101   4.275751   4.291407
    24  H    3.735471   4.328433   3.753875   2.492812   3.401254
    25  H    2.174237   3.660874   2.653936   2.755473   4.233689
                   21         22         23         24         25
    21  H    0.000000
    22  H    1.761350   0.000000
    23  H    2.572052   2.655537   0.000000
    24  H    2.253759   3.581097   2.569230   0.000000
    25  H    3.590454   4.326992   2.655057   1.763343   0.000000
 Stoichiometry    C10H14O
 Framework group  C1[X(C10H14O)]
 Deg. of freedom    69
 Full point group                 C1      NOp   1
 Largest Abelian subgroup         C1      NOp   1
 Largest concise Abelian subgroup C1      NOp   1
                         Standard orientation:                         
 ---------------------------------------------------------------------
 Center     Atomic      Atomic             Coordinates (Angstroms)
 Number     Number       Type             X           Y           Z
 ---------------------------------------------------------------------
      1          8           0        2.680743    0.104131   -0.597191
      2          6           0        1.584957   -0.093867   -0.110817
      3          6           0        1.125668    0.538461    1.208591
      4          6           0       -0.416968    0.639909    1.277032
      5          6           0       -0.865442    1.740711    0.286239
      6          6           0       -0.574198    1.313615   -1.176517
      7          6           0       -0.704362   -0.224390   -1.308989
      8          6           0        0.537222   -1.026951   -0.705178
      9          6           0       -0.063655   -1.782229    0.511588
     10          6           0       -1.122327   -0.749266    0.944780
     11          6           0       -1.879589   -0.644963   -0.396097
     12          1           0        1.518845   -0.080044    2.026920
     13          1           0        1.598616    1.520374    1.314059
     14          1           0       -0.697412    0.942812    2.292087
     15          1           0       -0.355930    2.682527    0.522160
     16          1           0       -1.935854    1.935347    0.415825
     17          1           0        0.420704    1.646364   -1.495265
     18          1           0       -1.289864    1.797704   -1.852265
     19          1           0       -0.842242   -0.501498   -2.358221
     20          1           0        1.012574   -1.664446   -1.454534
     21          1           0       -0.538678   -2.721711    0.209119
     22          1           0        0.681821   -2.029883    1.274066
     23          1           0       -1.746700   -1.082269    1.780222
     24          1           0       -2.296920   -1.620217   -0.671066
     25          1           0       -2.702746    0.075720   -0.409382
 ---------------------------------------------------------------------
 Rotational constants (GHZ):           1.6803587           1.2486478           1.1508238
 Standard basis: 6-31G(d) (6D, 7F)
 There are   193 symmetry adapted cartesian basis functions of A   symmetry.
 There are   193 symmetry adapted basis functions of A   symmetry.
   193 basis functions,   364 primitive gaussians,   193 cartesian basis functions
    41 alpha electrons       41 beta electrons
       nuclear repulsion energy       669.8799435569 Hartrees.
 NAtoms=   25 NActive=   25 NUniq=   25 SFac= 1.00D+00 NAtFMM=   60 NAOKFM=F Big=F
 Integral buffers will be    131072 words long.
 Raffenetti 2 integral format.
 Two-electron integral symmetry is turned on.
 One-electron integrals computed using PRISM.
 NBasis=   193 RedAO= T EigKep=  1.40D-03  NBF=   193
 NBsUse=   193 1.00D-06 EigRej= -1.00D+00 NBFU=   193
 ExpMin= 1.61D-01 ExpMax= 5.48D+03 ExpMxC= 8.25D+02 IAcc=3 IRadAn=         5 AccDes= 0.00D+00
 Harris functional with IExCor=  402 and IRadAn=       5 diagonalized for initial guess.
 HarFok:  IExCor=  402 AccDes= 0.00D+00 IRadAn=         5 IDoV= 1 UseB2=F ITyADJ=14
 ICtDFT=  3500011 ScaDFX=  1.000000  1.000000  1.000000  1.000000
 FoFCou: FMM=F IPFlag=           0 FMFlag=      100000 FMFlg1=           0
         NFxFlg=           0 DoJE=T BraDBF=F KetDBF=T FulRan=T
         wScrn=  0.000000 ICntrl=       500 IOpCl=  0 I1Cent=   200000004 NGrid=           0
         NMat0=    1 NMatS0=      1 NMatT0=    0 NMatD0=    1 NMtDS0=    0 NMtDT0=    0
 Petite list used in FoFCou.
 Requested convergence on RMS density matrix=1.00D-08 within 128 cycles.
 Requested convergence on MAX density matrix=1.00D-06.
 Requested convergence on             energy=1.00D-06.
 No special actions if energy rises.
 Integral accuracy reduced to 1.0D-05 until final iterations.
 Initial convergence to 1.0D-05 achieved.  Increase integral accuracy.
 SCF Done:  E(RB3LYP) =  -464.706146443     A.U. after   13 cycles
            NFock= 13  Conv=0.82D-08     -V/T= 2.0096
 DoSCS=F DFT=T ScalE2(SS,OS)=  1.000000  1.000000
 Range of M.O.s used for correlation:     1   193
 NBasis=   193 NAE=    41 NBE=    41 NFC=     0 NFV=     0
 NROrb=    193 NOA=    41 NOB=    41 NVA=   152 NVB=   152
 Symmetrizing basis deriv contribution to polar:
 IMax=3 JMax=2 DiffMx= 0.00D+00
 G2DrvN: will do    26 centers at a time, making    1 passes.
 Calling FoFCou, ICntrl=  3107 FMM=F I1Cent=   0 AccDes= 0.00D+00.
 End of G2Drv F.D. properties file   721 does not exist.
 End of G2Drv F.D. properties file   722 does not exist.
 End of G2Drv F.D. properties file   788 does not exist.
          IDoAtm=1111111111111111111111111
          Differentiating once with respect to electric field.
                with respect to dipole field.
          Differentiating once with respect to nuclear coordinates.
 Keep R1 ints in memory in canonical form, NReq=183418865.
          There are    78 degrees of freedom in the 1st order CPHF.  IDoFFX=6 NUNeed=     3.
     75 vectors produced by pass  0 Test12= 7.99D-15 1.28D-09 XBig12= 7.27D+01 2.85D+00.
 AX will form    75 AO Fock derivatives at one time.
     75 vectors produced by pass  1 Test12= 7.99D-15 1.28D-09 XBig12= 9.39D+00 7.45D-01.
     75 vectors produced by pass  2 Test12= 7.99D-15 1.28D-09 XBig12= 1.06D-01 4.90D-02.
     75 vectors produced by pass  3 Test12= 7.99D-15 1.28D-09 XBig12= 4.22D-04 2.76D-03.
     75 vectors produced by pass  4 Test12= 7.99D-15 1.28D-09 XBig12= 5.86D-07 9.25D-05.
     39 vectors produced by pass  5 Test12= 7.99D-15 1.28D-09 XBig12= 3.70D-10 1.67D-06.
      4 vectors produced by pass  6 Test12= 7.99D-15 1.28D-09 XBig12= 2.34D-13 3.83D-08.
 InvSVY:  IOpt=1 It=  1 EMax= 3.55D-15
 Solved reduced A of dimension   418 with    78 vectors.
 Isotropic polarizability for W=    0.000000       94.42 Bohr**3.
 End of Minotr F.D. properties file   721 does not exist.
 End of Minotr F.D. properties file   722 does not exist.
 End of Minotr F.D. properties file   788 does not exist.

 **********************************************************************

            Population analysis using the SCF density.

 **********************************************************************

 Orbital symmetries:
       Occupied  (A) (A) (A) (A) (A) (A) (A) (A) (A) (A) (A) (A)
                 (A) (A) (A) (A) (A) (A) (A) (A) (A) (A) (A) (A)
                 (A) (A) (A) (A) (A) (A) (A) (A) (A) (A) (A) (A)
                 (A) (A) (A) (A) (A)
       Virtual   (A) (A) (A) (A) (A) (A) (A) (A) (A) (A) (A) (A)
                 (A) (A) (A) (A) (A) (A) (A) (A) (A) (A) (A) (A)
                 (A) (A) (A) (A) (A) (A) (A) (A) (A) (A) (A) (A)
                 (A) (A) (A) (A) (A) (A) (A) (A) (A) (A) (A) (A)
                 (A) (A) (A) (A) (A) (A) (A) (A) (A) (A) (A) (A)
                 (A) (A) (A) (A) (A) (A) (A) (A) (A) (A) (A) (A)
                 (A) (A) (A) (A) (A) (A) (A) (A) (A) (A) (A) (A)
                 (A) (A) (A) (A) (A) (A) (A) (A) (A) (A) (A) (A)
                 (A) (A) (A) (A) (A) (A) (A) (A) (A) (A) (A) (A)
                 (A) (A) (A) (A) (A) (A) (A) (A) (A) (A) (A) (A)
                 (A) (A) (A) (A) (A) (A) (A) (A) (A) (A) (A) (A)
                 (A) (A) (A) (A) (A) (A) (A) (A) (A) (A) (A) (A)
                 (A) (A) (A) (A) (A) (A) (A) (A)
 The electronic state is 1-A.
 Alpha  occ. eigenvalues --  -19.12865 -10.26414 -10.19712 -10.19680 -10.19505
 Alpha  occ. eigenvalues --  -10.19017 -10.18756 -10.18625 -10.18371 -10.18349
 Alpha  occ. eigenvalues --  -10.18218  -1.02821  -0.87664  -0.78058  -0.76769
 Alpha  occ. eigenvalues --   -0.73668  -0.68672  -0.63469  -0.60912  -0.58600
 Alpha  occ. eigenvalues --   -0.52682  -0.51602  -0.50097  -0.48214  -0.45226
 Alpha  occ. eigenvalues --   -0.44075  -0.42047  -0.40708  -0.40579  -0.39822
 Alpha  occ. eigenvalues --   -0.38371  -0.37407  -0.36614  -0.34864  -0.33364
 Alpha  occ. eigenvalues --   -0.32262  -0.31840  -0.30826  -0.30502  -0.29950
 Alpha  occ. eigenvalues --   -0.22951
 Alpha virt. eigenvalues --   -0.00681   0.07029   0.09951   0.11179   0.12135
 Alpha virt. eigenvalues --    0.12917   0.13261   0.14812   0.16037   0.16373
 Alpha virt. eigenvalues --    0.16594   0.16896   0.18797   0.19628   0.20036
 Alpha virt. eigenvalues --    0.20236   0.21410   0.21776   0.23287   0.23865
 Alpha virt. eigenvalues --    0.24937   0.26368   0.28298   0.28974   0.30982
 Alpha virt. eigenvalues --    0.31576   0.36688   0.39079   0.51741   0.53198
 Alpha virt. eigenvalues --    0.53922   0.55354   0.55660   0.58698   0.59100
 Alpha virt. eigenvalues --    0.61095   0.61808   0.63048   0.63469   0.64638
 Alpha virt. eigenvalues --    0.65210   0.66085   0.67875   0.68708   0.69681
 Alpha virt. eigenvalues --    0.72933   0.75552   0.76098   0.77244   0.77757
 Alpha virt. eigenvalues --    0.79009   0.82953   0.83139   0.83762   0.84239
 Alpha virt. eigenvalues --    0.85841   0.87024   0.88079   0.88404   0.89514
 Alpha virt. eigenvalues --    0.90504   0.91684   0.92978   0.94288   0.95413
 Alpha virt. eigenvalues --    0.96197   0.97288   0.97788   0.97970   1.02101
 Alpha virt. eigenvalues --    1.05628   1.09666   1.10756   1.13886   1.16491
 Alpha virt. eigenvalues --    1.23227   1.29636   1.35579   1.39691   1.42215
 Alpha virt. eigenvalues --    1.43734   1.48684   1.53042   1.58837   1.59056
 Alpha virt. eigenvalues --    1.61427   1.64657   1.65727   1.69412   1.73464
 Alpha virt. eigenvalues --    1.74460   1.76901   1.78929   1.80339   1.84034
 Alpha virt. eigenvalues --    1.86498   1.87214   1.88275   1.88652   1.89965
 Alpha virt. eigenvalues --    1.92247   1.96368   1.97910   1.99041   2.00345
 Alpha virt. eigenvalues --    2.01671   2.03800   2.04188   2.06744   2.12464
 Alpha virt. eigenvalues --    2.14645   2.16894   2.21024   2.23113   2.23738
 Alpha virt. eigenvalues --    2.27842   2.32229   2.33358   2.36147   2.39620
 Alpha virt. eigenvalues --    2.40623   2.42797   2.44659   2.45522   2.46772
 Alpha virt. eigenvalues --    2.49934   2.53771   2.55340   2.56377   2.61355
 Alpha virt. eigenvalues --    2.65079   2.65947   2.67668   2.69698   2.73787
 Alpha virt. eigenvalues --    2.74024   2.79332   2.79878   2.84757   3.02019
 Alpha virt. eigenvalues --    3.04664   4.09815   4.14847   4.28402   4.32057
 Alpha virt. eigenvalues --    4.35874   4.50164   4.54843   4.62102   4.68881
 Alpha virt. eigenvalues --    4.80513   4.90092
          Condensed to atoms (all electrons):
               1          2          3          4          5          6
     1  O    8.040468   0.560908  -0.074963   0.002392   0.000481  -0.002841
     2  C    0.560908   4.486948   0.308065  -0.018505  -0.001660  -0.001005
     3  C   -0.074963   0.308065   5.376135   0.309199  -0.058709  -0.003020
     4  C    0.002392  -0.018505   0.309199   5.019777   0.384573  -0.039323
     5  C    0.000481  -0.001660  -0.058709   0.384573   5.054817   0.354966
     6  C   -0.002841  -0.001005  -0.003020  -0.039323   0.354966   5.071392
     7  C    0.001166  -0.030657  -0.002843  -0.010750  -0.045747   0.386604
     8  C   -0.070848   0.353434  -0.145187   0.008906  -0.008708  -0.048151
     9  C    0.001710  -0.032369   0.001843  -0.061660   0.003974   0.004022
    10  C    0.000243  -0.021939  -0.037756   0.362965  -0.039435  -0.023805
    11  C   -0.000109   0.000328   0.003529  -0.054965  -0.013668  -0.048263
    12  H    0.000141  -0.021097   0.347628  -0.027453   0.005237  -0.000245
    13  H    0.002169  -0.024275   0.351278  -0.030497  -0.005159  -0.000332
    14  H   -0.000081   0.003149  -0.032399   0.365494  -0.039802   0.005600
    15  H   -0.000032  -0.000831  -0.005279  -0.033080   0.369155  -0.033906
    16  H   -0.000002  -0.000147   0.005833  -0.035220   0.369173  -0.031944
    17  H    0.001993   0.008542   0.001891  -0.003205  -0.032194   0.371343
    18  H    0.000026   0.000109   0.000035   0.004148  -0.032787   0.363515
    19  H   -0.000005   0.002136  -0.000348   0.000312   0.005327  -0.038683
    20  H    0.001973  -0.029673   0.008069  -0.000062  -0.000248   0.003234
    21  H   -0.000067   0.003247  -0.000382   0.005535  -0.000172  -0.000069
    22  H    0.000192  -0.004327   0.004098  -0.006488  -0.000002  -0.000155
    23  H    0.000004   0.000372   0.002736  -0.033791   0.002814   0.000002
    24  H    0.000000   0.000063  -0.000210   0.005321   0.000204   0.004844
    25  H    0.000001  -0.000013   0.000059  -0.005501   0.000748  -0.006514
               7          8          9         10         11         12
     1  O    0.001166  -0.070848   0.001710   0.000243  -0.000109   0.000141
     2  C   -0.030657   0.353434  -0.032369  -0.021939   0.000328  -0.021097
     3  C   -0.002843  -0.145187   0.001843  -0.037756   0.003529   0.347628
     4  C   -0.010750   0.008906  -0.061660   0.362965  -0.054965  -0.027453
     5  C   -0.045747  -0.008708   0.003974  -0.039435  -0.013668   0.005237
     6  C    0.386604  -0.048151   0.004022  -0.023805  -0.048263  -0.000245
     7  C    4.994027   0.344986  -0.067883  -0.048679   0.364738   0.000297
     8  C    0.344986   5.286519   0.318210  -0.043210  -0.073709   0.000212
     9  C   -0.067883   0.318210   5.140696   0.365467  -0.066094   0.000542
    10  C   -0.048679  -0.043210   0.365467   5.021386   0.370161  -0.002970
    11  C    0.364738  -0.073709  -0.066094   0.370161   5.109397  -0.000116
    12  H    0.000297   0.000212   0.000542  -0.002970  -0.000116   0.560280
    13  H   -0.000127   0.006278   0.000348   0.004094  -0.000130  -0.025307
    14  H   -0.000128  -0.000325   0.003697  -0.035014   0.003894  -0.005284
    15  H    0.004545   0.000232  -0.000213   0.004963   0.000364  -0.000003
    16  H   -0.003773   0.000068  -0.000036  -0.005082   0.003320  -0.000190
    17  H   -0.040601  -0.008344   0.000229  -0.000047   0.005591   0.000048
    18  H   -0.029533   0.005060  -0.000228   0.000521  -0.002943   0.000004
    19  H    0.372382  -0.034070   0.004409   0.005019  -0.035703   0.000002
    20  H   -0.027459   0.345273  -0.031822   0.004421   0.004380  -0.000335
    21  H   -0.004233  -0.022568   0.366089  -0.034267  -0.003633   0.000119
    22  H    0.005938  -0.041817   0.368091  -0.030243   0.005844   0.001178
    23  H    0.006284   0.005382  -0.035430   0.364833  -0.036498   0.000326
    24  H   -0.027670  -0.003403  -0.004088  -0.037190   0.367864   0.000000
    25  H   -0.036062   0.005684   0.006023  -0.027979   0.365468   0.000000
              13         14         15         16         17         18
     1  O    0.002169  -0.000081  -0.000032  -0.000002   0.001993   0.000026
     2  C   -0.024275   0.003149  -0.000831  -0.000147   0.008542   0.000109
     3  C    0.351278  -0.032399  -0.005279   0.005833   0.001891   0.000035
     4  C   -0.030497   0.365494  -0.033080  -0.035220  -0.003205   0.004148
     5  C   -0.005159  -0.039802   0.369155   0.369173  -0.032194  -0.032787
     6  C   -0.000332   0.005600  -0.033906  -0.031944   0.371343   0.363515
     7  C   -0.000127  -0.000128   0.004545  -0.003773  -0.040601  -0.029533
     8  C    0.006278  -0.000325   0.000232   0.000068  -0.008344   0.005060
     9  C    0.000348   0.003697  -0.000213  -0.000036   0.000229  -0.000228
    10  C    0.004094  -0.035014   0.004963  -0.005082  -0.000047   0.000521
    11  C   -0.000130   0.003894   0.000364   0.003320   0.005591  -0.002943
    12  H   -0.025307  -0.005284  -0.000003  -0.000190   0.000048   0.000004
    13  H    0.555507  -0.001110   0.004533   0.000050  -0.000007  -0.000013
    14  H   -0.001110   0.618289  -0.001819  -0.003562  -0.000121  -0.000167
    15  H    0.004533  -0.001819   0.595757  -0.036483  -0.006875   0.001911
    16  H    0.000050  -0.003562  -0.036483   0.601897   0.004470  -0.008825
    17  H   -0.000007  -0.000121  -0.006875   0.004470   0.570524  -0.032835
    18  H   -0.000013  -0.000167   0.001911  -0.008825  -0.032835   0.597451
    19  H    0.000010  -0.000001  -0.000110  -0.000184   0.000433  -0.005790
    20  H   -0.000112   0.000012   0.000005   0.000004   0.000460  -0.000129
    21  H   -0.000003  -0.000138   0.000004  -0.000003  -0.000008   0.000005
    22  H   -0.000101   0.000269  -0.000002  -0.000002  -0.000013   0.000004
    23  H   -0.000126  -0.009309  -0.000128   0.000504   0.000012   0.000018
    24  H    0.000004  -0.000114  -0.000007  -0.000036  -0.000159  -0.000054
    25  H   -0.000006   0.000170  -0.000051   0.001513   0.000162   0.002087
              19         20         21         22         23         24
     1  O   -0.000005   0.001973  -0.000067   0.000192   0.000004   0.000000
     2  C    0.002136  -0.029673   0.003247  -0.004327   0.000372   0.000063
     3  C   -0.000348   0.008069  -0.000382   0.004098   0.002736  -0.000210
     4  C    0.000312  -0.000062   0.005535  -0.006488  -0.033791   0.005321
     5  C    0.005327  -0.000248  -0.000172  -0.000002   0.002814   0.000204
     6  C   -0.038683   0.003234  -0.000069  -0.000155   0.000002   0.004844
     7  C    0.372382  -0.027459  -0.004233   0.005938   0.006284  -0.027670
     8  C   -0.034070   0.345273  -0.022568  -0.041817   0.005382  -0.003403
     9  C    0.004409  -0.031822   0.366089   0.368091  -0.035430  -0.004088
    10  C    0.005019   0.004421  -0.034267  -0.030243   0.364833  -0.037190
    11  C   -0.035703   0.004380  -0.003633   0.005844  -0.036498   0.367864
    12  H    0.000002  -0.000335   0.000119   0.001178   0.000326   0.000000
    13  H    0.000010  -0.000112  -0.000003  -0.000101  -0.000126   0.000004
    14  H   -0.000001   0.000012  -0.000138   0.000269  -0.009309  -0.000114
    15  H   -0.000110   0.000005   0.000004  -0.000002  -0.000128  -0.000007
    16  H   -0.000184   0.000004  -0.000003  -0.000002   0.000504  -0.000036
    17  H    0.000433   0.000460  -0.000008  -0.000013   0.000012  -0.000159
    18  H   -0.005790  -0.000129   0.000005   0.000004   0.000018  -0.000054
    19  H    0.602439  -0.007594   0.000086  -0.000120  -0.000201  -0.004294
    20  H   -0.007594   0.589412  -0.004329   0.001301  -0.000185  -0.000032
    21  H    0.000086  -0.004329   0.585317  -0.036003  -0.002606   0.004737
    22  H   -0.000120   0.001301  -0.036003   0.591029  -0.000223   0.000132
    23  H   -0.000201  -0.000185  -0.002606  -0.000223   0.613688  -0.002206
    24  H   -0.004294  -0.000032   0.004737   0.000132  -0.002206   0.598692
    25  H    0.001066  -0.000094   0.000052  -0.000194  -0.000183  -0.036969
              25
     1  O    0.000001
     2  C   -0.000013
     3  C    0.000059
     4  C   -0.005501
     5  C    0.000748
     6  C   -0.006514
     7  C   -0.036062
     8  C    0.005684
     9  C    0.006023
    10  C   -0.027979
    11  C    0.365468
    12  H    0.000000
    13  H   -0.000006
    14  H    0.000170
    15  H   -0.000051
    16  H    0.001513
    17  H    0.000162
    18  H    0.002087
    19  H    0.001066
    20  H   -0.000094
    21  H    0.000052
    22  H   -0.000194
    23  H   -0.000183
    24  H   -0.036969
    25  H    0.593531
 Mulliken charges:
               1
     1  O   -0.464921
     2  C    0.459198
     3  C   -0.359306
     4  C   -0.108121
     5  C   -0.273180
     6  C   -0.287266
     7  C   -0.104822
     8  C   -0.179902
     9  C   -0.285526
    10  C   -0.116454
    11  C   -0.269046
    12  H    0.166986
    13  H    0.163035
    14  H    0.128800
    15  H    0.137349
    16  H    0.138657
    17  H    0.158711
    18  H    0.138410
    19  H    0.133481
    20  H    0.143530
    21  H    0.143290
    22  H    0.141612
    23  H    0.123913
    24  H    0.134569
    25  H    0.137002
 Sum of Mulliken charges =  -0.00000
 Mulliken charges with hydrogens summed into heavy atoms:
               1
     1  O   -0.464921
     2  C    0.459198
     3  C   -0.029285
     4  C    0.020680
     5  C    0.002826
     6  C    0.009855
     7  C    0.028659
     8  C   -0.036372
     9  C   -0.000625
    10  C    0.007459
    11  C    0.002526
 APT charges:
               1
     1  O   -0.650737
     2  C    0.728130
     3  C   -0.054979
     4  C    0.112302
     5  C    0.088007
     6  C    0.078288
     7  C    0.133861
     8  C   -0.086768
     9  C    0.069844
    10  C    0.098423
    11  C    0.052689
    12  H   -0.011821
    13  H   -0.011501
    14  H   -0.068735
    15  H   -0.041279
    16  H   -0.045078
    17  H   -0.028063
    18  H   -0.046864
    19  H   -0.065449
    20  H   -0.040845
    21  H   -0.038102
    22  H   -0.028596
    23  H   -0.066379
    24  H   -0.045034
    25  H   -0.031313
 Sum of APT charges =   0.00000
 APT charges with hydrogens summed into heavy atoms:
               1
     1  O   -0.650737
     2  C    0.728130
     3  C   -0.078302
     4  C    0.043567
     5  C    0.001650
     6  C    0.003361
     7  C    0.068412
     8  C   -0.127613
     9  C    0.003147
    10  C    0.032043
    11  C   -0.023659
 Electronic spatial extent (au):  <R**2>=           1348.5626
 Charge=             -0.0000 electrons
 Dipole moment (field-independent basis, Debye):
    X=             -2.9258    Y=             -0.3448    Z=              1.1195  Tot=              3.1516
 Quadrupole moment (field-independent basis, Debye-Ang):
   XX=            -75.7947   YY=            -64.3384   ZZ=            -64.8688
   XY=             -0.7594   XZ=              3.6654   YZ=              0.4143
 Traceless Quadrupole moment (field-independent basis, Debye-Ang):
   XX=             -7.4607   YY=              3.9956   ZZ=              3.4651
   XY=             -0.7594   XZ=              3.6654   YZ=              0.4143
 Octapole moment (field-independent basis, Debye-Ang**2):
  XXX=            -23.2545  YYY=             -0.4136  ZZZ=             -0.9954  XYY=              4.2244
  XXY=             -1.4877  XXZ=              8.9081  XZZ=              2.2381  YZZ=             -0.6112
  YYZ=             -1.3136  XYZ=              0.3677
 Hexadecapole moment (field-independent basis, Debye-Ang**3):
 XXXX=           -845.4940 YYYY=           -560.7328 ZZZZ=           -448.7795 XXXY=             -9.0078
 XXXZ=             19.6089 YYYX=              7.0636 YYYZ=              4.1623 ZZZX=             -2.5904
 ZZZY=              0.8308 XXYY=           -214.3996 XXZZ=           -203.1832 YYZZ=           -168.6610
 XXYZ=             -0.8884 YYXZ=              0.0344 ZZXY=             -1.2796
 N-N= 6.698799435569D+02 E-N=-2.417948499841D+03  KE= 4.602937839555D+02
  Exact polarizability:  99.199   1.739  93.399  -0.276   0.939  90.647
 Approx polarizability: 149.950   4.208 133.334  -4.981   0.330 134.682
 Calling FoFJK, ICntrl=    100127 FMM=F ISym2X=0 I1Cent= 0 IOpClX= 0 NMat=1 NMatS=1 NMatT=0.
 Full mass-weighted force constant matrix:
 Low frequencies ---   -5.9173   -0.0005   -0.0005    0.0004    7.8507    9.8891
 Low frequencies ---  112.4175  201.9951  318.8060
 Diagonal vibrational polarizability:
        4.5700343       7.1175952       4.0882980
 Harmonic frequencies (cm**-1), IR intensities (KM/Mole), Raman scattering
 activities (A**4/AMU), depolarization ratios for plane and unpolarized
 incident light, reduced masses (AMU), force constants (mDyne/A),
 and normal coordinates:
                      1                      2                      3
                      A                      A                      A
 Frequencies --    112.4163               201.9945               318.8060
 Red. masses --      5.7510                 2.9081                 2.2418
 Frc consts  --      0.0428                 0.0699                 0.1342
 IR Inten    --      3.8571                 0.3437                 0.2817
  Atom  AN      X      Y      Z        X      Y      Z        X      Y      Z
     1   8    -0.21   0.35  -0.19     0.03   0.03   0.14    -0.05   0.01   0.04
     2   6    -0.04   0.01   0.04    -0.01   0.05   0.05    -0.07   0.02  -0.02
     3   6     0.01  -0.15   0.13     0.01  -0.08   0.11    -0.06   0.06  -0.02
     4   6     0.01  -0.03   0.02     0.03   0.01  -0.02    -0.04   0.01   0.01
     5   6     0.18  -0.01  -0.04     0.14   0.01  -0.10    -0.02  -0.03  -0.05
     6   6     0.15  -0.07  -0.04    -0.11  -0.05  -0.14     0.22  -0.03   0.01
     7   6     0.07  -0.06   0.00    -0.12  -0.03  -0.02    -0.06  -0.00   0.02
     8   6     0.01  -0.10   0.10    -0.02   0.09  -0.07    -0.04   0.00  -0.07
     9   6    -0.10  -0.05   0.06     0.04  -0.00  -0.11     0.05  -0.04  -0.07
    10   6    -0.06   0.01   0.00     0.06  -0.02   0.02     0.06  -0.05   0.05
    11   6     0.01   0.04  -0.03    -0.05   0.01   0.10    -0.02   0.03   0.11
    12   1    -0.12  -0.32   0.06    -0.10  -0.21   0.06    -0.00   0.11  -0.01
    13   1     0.10  -0.22   0.29     0.08  -0.13   0.25    -0.08   0.08  -0.10
    14   1    -0.04   0.02  -0.01    -0.05   0.08  -0.07    -0.07   0.03  -0.01
    15   1     0.28  -0.06  -0.06     0.31  -0.07  -0.18    -0.12   0.01   0.02
    16   1     0.20   0.12  -0.07     0.18   0.20   0.00    -0.05  -0.09  -0.22
    17   1     0.15  -0.12  -0.07    -0.17  -0.07  -0.33     0.37  -0.26   0.26
    18   1     0.15  -0.06  -0.04    -0.24  -0.08  -0.02     0.51   0.18  -0.15
    19   1     0.10  -0.09   0.01    -0.20  -0.13   0.02    -0.17  -0.01   0.04
    20   1     0.04  -0.12   0.13     0.03   0.16  -0.10    -0.01   0.06  -0.10
    21   1    -0.14  -0.02   0.04     0.00   0.03  -0.16     0.01  -0.02  -0.08
    22   1    -0.15  -0.10   0.10     0.07  -0.09  -0.16     0.10  -0.08  -0.14
    23   1    -0.12   0.06  -0.02     0.15  -0.06   0.07     0.13  -0.11   0.08
    24   1    -0.06   0.07  -0.03    -0.13   0.03   0.14    -0.08   0.06   0.08
    25   1     0.06   0.11  -0.08    -0.02   0.05   0.19     0.00   0.06   0.21
                      4                      5                      6
                      A                      A                      A
 Frequencies --    403.7696               409.3528               426.8376
 Red. masses --      2.5812                 1.8257                 4.0556
 Frc consts  --      0.2479                 0.1803                 0.4353
 IR Inten    --      0.6349                 0.3142                 1.8063
  Atom  AN      X      Y      Z        X      Y      Z        X      Y      Z
     1   8    -0.10  -0.10  -0.04    -0.01   0.02   0.03     0.19   0.11   0.08
     2   6    -0.10   0.02  -0.01    -0.03   0.03  -0.00     0.09   0.07  -0.13
     3   6    -0.06  -0.04   0.06    -0.03   0.14  -0.07     0.03  -0.09  -0.09
     4   6    -0.06   0.01   0.02    -0.02  -0.07   0.03     0.01  -0.07   0.01
     5   6     0.11   0.07   0.01     0.14   0.02   0.06     0.06  -0.08   0.05
     6   6     0.04   0.05   0.01    -0.00  -0.03   0.02     0.06  -0.10   0.06
     7   6    -0.03   0.05  -0.02     0.01  -0.03   0.00    -0.13  -0.06  -0.03
     8   6    -0.05   0.06  -0.03     0.00  -0.03   0.01    -0.05   0.04  -0.05
     9   6     0.14   0.09   0.08    -0.02  -0.05  -0.01    -0.03   0.17   0.10
    10   6     0.01  -0.02  -0.02    -0.03  -0.06  -0.03    -0.15   0.05  -0.02
    11   6     0.04  -0.14  -0.06    -0.02   0.01  -0.03    -0.15  -0.05  -0.04
    12   1    -0.08  -0.09   0.02     0.24   0.40  -0.01     0.10  -0.16  -0.18
    13   1    -0.04  -0.06   0.12    -0.23   0.27  -0.34    -0.01  -0.08   0.03
    14   1    -0.12  -0.00   0.00    -0.03  -0.11   0.04     0.12  -0.07   0.04
    15   1     0.27  -0.02   0.03     0.42  -0.13   0.04     0.07  -0.08   0.02
    16   1     0.14   0.25  -0.01     0.20   0.32   0.09     0.05  -0.07   0.02
    17   1     0.06  -0.03  -0.02    -0.06  -0.00  -0.13     0.16  -0.29   0.17
    18   1     0.07   0.11   0.03    -0.11  -0.07   0.11     0.24   0.12   0.03
    19   1    -0.01   0.10  -0.04     0.03  -0.01  -0.00    -0.14  -0.01  -0.04
    20   1    -0.02   0.07  -0.02     0.03  -0.01   0.02    -0.17  -0.11   0.00
    21   1     0.32  -0.06   0.28     0.01  -0.06  -0.04     0.15   0.04   0.20
    22   1     0.24   0.36   0.07    -0.04  -0.02   0.02    -0.04   0.39   0.18
    23   1    -0.00  -0.06  -0.04    -0.05  -0.07  -0.05    -0.15   0.06  -0.01
    24   1     0.27  -0.23  -0.09    -0.12   0.06  -0.06    -0.10  -0.10   0.04
    25   1    -0.11  -0.31  -0.06     0.05   0.10   0.01    -0.18  -0.08  -0.12
                      7                      8                      9
                      A                      A                      A
 Frequencies --    442.8898               481.8955               511.2286
 Red. masses --      4.3942                 4.6637                 2.3602
 Frc consts  --      0.5078                 0.6381                 0.3634
 IR Inten    --      6.8037                 1.7155                 0.0677
  Atom  AN      X      Y      Z        X      Y      Z        X      Y      Z
     1   8    -0.04  -0.13  -0.14    -0.14   0.05   0.16    -0.03  -0.03   0.00
     2   6     0.02   0.14   0.11    -0.16  -0.06   0.02    -0.05   0.01  -0.04
     3   6     0.15   0.13   0.19     0.07   0.03   0.02    -0.06  -0.05   0.01
     4   6     0.08  -0.08   0.07     0.15   0.11   0.14    -0.05  -0.07   0.06
     5   6     0.02  -0.19  -0.02     0.02  -0.06   0.09    -0.04  -0.11   0.01
     6   6     0.03  -0.08  -0.05    -0.02  -0.11   0.07    -0.01  -0.03  -0.05
     7   6    -0.05  -0.02  -0.06    -0.01  -0.10  -0.16     0.06  -0.03  -0.06
     8   6    -0.03   0.20   0.09    -0.06  -0.09  -0.15     0.02  -0.01  -0.04
     9   6    -0.05   0.06  -0.05    -0.02   0.05  -0.06     0.11   0.08   0.07
    10   6    -0.05  -0.01  -0.03     0.12   0.20  -0.04     0.02  -0.00  -0.00
    11   6    -0.07   0.01  -0.07     0.08  -0.03  -0.10     0.04   0.21   0.02
    12   1     0.28   0.23   0.21     0.19   0.13   0.03     0.00  -0.06  -0.04
    13   1    -0.05   0.24   0.15     0.18   0.01  -0.26    -0.09  -0.04   0.03
    14   1    -0.05  -0.05   0.02     0.14   0.07   0.15    -0.05  -0.04   0.05
    15   1    -0.18  -0.08  -0.03    -0.14   0.08  -0.08    -0.05  -0.11   0.02
    16   1    -0.02  -0.40  -0.04    -0.01  -0.24   0.14    -0.03  -0.09  -0.00
    17   1     0.07  -0.15  -0.00    -0.04  -0.06   0.06    -0.08   0.12  -0.10
    18   1     0.09   0.06  -0.00    -0.05  -0.05   0.14    -0.14  -0.11   0.03
    19   1     0.03  -0.11  -0.05    -0.04   0.02  -0.19     0.00  -0.07  -0.04
    20   1     0.13   0.28   0.13     0.05  -0.09  -0.08     0.04  -0.06   0.01
    21   1     0.03   0.06  -0.18    -0.17   0.08   0.11     0.25  -0.04   0.23
    22   1    -0.10   0.04  -0.00     0.06   0.05  -0.14     0.16   0.32   0.10
    23   1    -0.08  -0.01  -0.05     0.07   0.19  -0.08    -0.03  -0.08  -0.07
    24   1    -0.06  -0.00  -0.04     0.18  -0.14   0.15    -0.28   0.35   0.01
    25   1    -0.08  -0.01  -0.12    -0.01  -0.13  -0.27     0.25   0.45   0.11
                     10                     11                     12
                      A                      A                      A
 Frequencies --    520.1244               598.0933               646.0841
 Red. masses --      2.8625                 3.0380                 3.0202
 Frc consts  --      0.4563                 0.6403                 0.7428
 IR Inten    --      0.8307                 1.4828                 1.0000
  Atom  AN      X      Y      Z        X      Y      Z        X      Y      Z
     1   8    -0.04   0.09   0.08     0.00  -0.03   0.07    -0.05  -0.03   0.08
     2   6     0.01  -0.13   0.07    -0.12   0.17  -0.12    -0.11   0.15  -0.01
     3   6     0.09  -0.03  -0.01    -0.04  -0.00  -0.12     0.08   0.05  -0.06
     4   6     0.10  -0.09  -0.07     0.02  -0.06   0.06     0.13   0.02  -0.13
     5   6     0.02  -0.08  -0.07     0.06  -0.11  -0.02    -0.02   0.06   0.02
     6   6    -0.00   0.15  -0.11     0.04   0.05  -0.09    -0.02   0.01   0.05
     7   6    -0.06   0.14  -0.03     0.08   0.06  -0.00    -0.04  -0.03   0.01
     8   6    -0.09  -0.02   0.02    -0.05   0.06   0.04    -0.03  -0.02   0.10
     9   6     0.00  -0.04   0.10    -0.11  -0.03   0.05     0.06  -0.14   0.08
    10   6     0.00  -0.06   0.01    -0.02  -0.00   0.13     0.05  -0.07  -0.12
    11   6    -0.00   0.01   0.01     0.14  -0.02   0.03    -0.07   0.03  -0.07
    12   1     0.23   0.31   0.17     0.06  -0.29  -0.38    -0.08  -0.35  -0.28
    13   1    -0.04   0.07  -0.38    -0.02  -0.05   0.16     0.27  -0.09   0.32
    14   1     0.06  -0.03  -0.11     0.09   0.06   0.04     0.13  -0.12  -0.09
    15   1    -0.17  -0.01   0.07    -0.03  -0.09   0.07    -0.08   0.10  -0.01
    16   1    -0.02  -0.30  -0.05     0.04  -0.19  -0.09    -0.02  -0.04   0.12
    17   1    -0.00   0.13  -0.14    -0.05   0.19  -0.23     0.03  -0.05   0.14
    18   1    -0.04   0.19  -0.05    -0.14  -0.03   0.05     0.09   0.05  -0.03
    19   1    -0.08   0.07  -0.00     0.04  -0.03   0.03     0.07   0.01  -0.02
    20   1    -0.18  -0.03  -0.04    -0.03   0.02   0.08     0.10   0.08   0.10
    21   1     0.13  -0.16   0.27    -0.22   0.09  -0.13     0.17  -0.21   0.12
    22   1     0.08   0.21   0.10    -0.10  -0.27  -0.04     0.03   0.01   0.16
    23   1    -0.02   0.02   0.02    -0.11   0.03   0.07     0.02   0.12  -0.06
    24   1     0.13  -0.01  -0.11     0.35  -0.10  -0.02    -0.28   0.12  -0.11
    25   1    -0.11  -0.11   0.11    -0.02  -0.20  -0.06     0.07   0.19   0.09
                     13                     14                     15
                      A                      A                      A
 Frequencies --    713.7396               753.7551               783.6923
 Red. masses --      4.1803                 2.7628                 1.9180
 Frc consts  --      1.2547                 0.9248                 0.6941
 IR Inten    --      0.3100                 2.7859                 0.3399
  Atom  AN      X      Y      Z        X      Y      Z        X      Y      Z
     1   8    -0.14  -0.01   0.06     0.02   0.02   0.02    -0.02   0.01   0.02
     2   6    -0.09  -0.08   0.06    -0.02  -0.01  -0.06    -0.01  -0.03   0.03
     3   6     0.01  -0.12  -0.15     0.11  -0.01   0.03     0.07  -0.06  -0.05
     4   6     0.06  -0.04  -0.14     0.01   0.12   0.19     0.00  -0.03   0.03
     5   6     0.03  -0.03  -0.03    -0.02   0.11  -0.05    -0.11   0.06  -0.01
     6   6     0.02  -0.07   0.07     0.04  -0.04  -0.04    -0.07  -0.04  -0.04
     7   6     0.13  -0.00   0.23     0.06   0.00   0.08    -0.00  -0.01  -0.07
     8   6     0.06   0.16   0.06    -0.05   0.01  -0.05    -0.04   0.11   0.04
     9   6     0.05   0.18  -0.11     0.03  -0.06  -0.03    -0.01   0.01   0.03
    10   6    -0.06   0.03  -0.03    -0.14  -0.14   0.06    -0.02  -0.05   0.06
    11   6    -0.07  -0.02   0.03    -0.05   0.00  -0.06     0.12   0.01  -0.02
    12   1     0.04   0.04  -0.05     0.24  -0.02  -0.04     0.13   0.03  -0.01
    13   1     0.02  -0.11  -0.37     0.23  -0.05  -0.10     0.08  -0.05  -0.18
    14   1     0.18  -0.02  -0.12     0.01   0.17   0.19     0.14  -0.04   0.07
    15   1    -0.07   0.02  -0.00    -0.23   0.25  -0.15     0.28  -0.11  -0.17
    16   1     0.01  -0.16  -0.01    -0.07  -0.08  -0.20    -0.02   0.43   0.18
    17   1    -0.04  -0.01  -0.04    -0.05   0.05  -0.22     0.11  -0.19   0.37
    18   1    -0.09  -0.29   0.04    -0.12  -0.24  -0.03     0.29   0.13  -0.30
    19   1     0.27  -0.01   0.22     0.07   0.02   0.08     0.01  -0.12  -0.04
    20   1     0.05   0.22   0.01    -0.13   0.03  -0.12    -0.02   0.10   0.07
    21   1     0.17   0.19  -0.30     0.24  -0.17  -0.01     0.01   0.04  -0.11
    22   1    -0.04   0.13  -0.04     0.11   0.11  -0.06     0.02  -0.08  -0.03
    23   1     0.13  -0.01   0.09    -0.15  -0.25   0.01    -0.15  -0.04  -0.03
    24   1    -0.05  -0.02  -0.02    -0.06   0.06  -0.26     0.03   0.05  -0.02
    25   1    -0.03   0.02  -0.13    -0.01   0.05  -0.13     0.18   0.07   0.00
                     16                     17                     18
                      A                      A                      A
 Frequencies --    802.4523               857.5673               880.8073
 Red. masses --      3.0627                 3.4881                 2.3308
 Frc consts  --      1.1620                 1.5114                 1.0654
 IR Inten    --      0.7755                 2.5760                 1.6485
  Atom  AN      X      Y      Z        X      Y      Z        X      Y      Z
     1   8    -0.05  -0.02   0.01    -0.00  -0.01   0.02    -0.01   0.01   0.01
     2   6    -0.04  -0.00   0.01    -0.04   0.09  -0.04     0.01  -0.03   0.02
     3   6     0.02  -0.05  -0.05     0.11   0.01   0.13     0.04   0.09   0.00
     4   6     0.00  -0.01   0.10     0.02  -0.14  -0.11     0.01   0.06  -0.08
     5   6    -0.01   0.08   0.07    -0.07   0.15   0.03    -0.00  -0.09  -0.02
     6   6     0.03   0.17  -0.14     0.04   0.05  -0.04     0.01   0.05   0.07
     7   6    -0.03  -0.07  -0.13     0.12  -0.12   0.05     0.11  -0.01  -0.11
     8   6     0.19  -0.06   0.07    -0.07  -0.05  -0.13    -0.07  -0.02  -0.03
     9   6     0.03   0.09  -0.02    -0.15   0.08  -0.04    -0.04   0.09  -0.03
    10   6    -0.03  -0.01   0.02    -0.03  -0.02  -0.07    -0.01  -0.11   0.14
    11   6    -0.13  -0.08   0.04     0.08  -0.06   0.13    -0.07  -0.08  -0.01
    12   1     0.19  -0.05  -0.13     0.26   0.07   0.10    -0.24  -0.07   0.02
    13   1     0.03  -0.04  -0.12    -0.10   0.11   0.11     0.21  -0.01   0.16
    14   1     0.09  -0.04   0.14    -0.11  -0.34  -0.09     0.02   0.25  -0.13
    15   1    -0.12   0.12   0.19    -0.08   0.12   0.19     0.19  -0.19  -0.02
    16   1    -0.04  -0.05   0.02    -0.08   0.08   0.05     0.05   0.11   0.09
    17   1     0.06   0.13  -0.09     0.01   0.16  -0.03    -0.03   0.25   0.17
    18   1     0.06   0.28  -0.10     0.01  -0.21  -0.18    -0.03   0.04   0.10
    19   1     0.02  -0.21  -0.10    -0.11  -0.11   0.08     0.21   0.12  -0.16
    20   1     0.37  -0.14   0.24    -0.01  -0.12  -0.03    -0.08  -0.20   0.12
    21   1     0.02   0.15  -0.22    -0.05  -0.06   0.24    -0.02   0.05   0.05
    22   1    -0.14  -0.08   0.10    -0.12   0.39   0.02     0.11   0.09  -0.17
    23   1     0.10  -0.17   0.06     0.03  -0.01  -0.02     0.19  -0.17   0.27
    24   1    -0.25  -0.07   0.18    -0.00  -0.04   0.20    -0.31   0.04  -0.08
    25   1    -0.08  -0.01   0.04     0.15   0.01   0.09     0.10   0.13   0.04
                     19                     20                     21
                      A                      A                      A
 Frequencies --    897.4091               905.6178               923.5668
 Red. masses --      2.1753                 2.3693                 2.2740
 Frc consts  --      1.0322                 1.1449                 1.1428
 IR Inten    --      0.4005                 2.6201                 1.4619
  Atom  AN      X      Y      Z        X      Y      Z        X      Y      Z
     1   8     0.03   0.01  -0.02     0.02   0.01   0.01    -0.02   0.01  -0.00
     2   6     0.04  -0.01   0.02    -0.01  -0.02  -0.06     0.04  -0.07   0.08
     3   6    -0.09  -0.07  -0.01     0.03  -0.00   0.02     0.01   0.08  -0.10
     4   6     0.01   0.01  -0.04    -0.04  -0.05   0.07    -0.01   0.06   0.01
     5   6     0.05   0.10   0.08    -0.04   0.03  -0.02     0.03   0.01   0.05
     6   6     0.06   0.00  -0.00     0.02  -0.03  -0.04     0.04  -0.06   0.01
     7   6     0.01  -0.10  -0.09    -0.01   0.04   0.04    -0.07   0.02  -0.06
     8   6    -0.13   0.14   0.02    -0.12  -0.04   0.13    -0.01   0.02   0.05
     9   6     0.02  -0.04   0.06     0.01   0.12   0.00    -0.07   0.09  -0.04
    10   6     0.03  -0.00   0.04     0.19  -0.02  -0.08    -0.03  -0.11  -0.10
    11   6     0.02  -0.06  -0.03    -0.05  -0.01  -0.07     0.13  -0.00   0.08
    12   1    -0.12   0.16   0.16     0.15  -0.04  -0.06    -0.29  -0.16  -0.13
    13   1    -0.21   0.01  -0.15     0.03  -0.00   0.01     0.30  -0.09   0.13
    14   1     0.11  -0.06   0.01    -0.19  -0.21   0.07     0.06  -0.11   0.08
    15   1    -0.28   0.24   0.21     0.01  -0.00  -0.00    -0.12   0.09   0.05
    16   1    -0.03  -0.25  -0.07    -0.03   0.10  -0.11    -0.02  -0.09  -0.15
    17   1    -0.02   0.02  -0.24    -0.00  -0.04  -0.10    -0.03  -0.07  -0.23
    18   1    -0.12  -0.05   0.14    -0.02  -0.13  -0.07    -0.12  -0.03   0.21
    19   1     0.12  -0.09  -0.11     0.24   0.05   0.01    -0.24  -0.04  -0.02
    20   1    -0.15   0.10   0.04    -0.39  -0.27   0.17     0.01  -0.09   0.15
    21   1    -0.05   0.04  -0.10    -0.23   0.29  -0.13     0.09  -0.00  -0.03
    22   1     0.14  -0.22  -0.11    -0.03  -0.17  -0.06    -0.15   0.23   0.08
    23   1    -0.08   0.17   0.02     0.34  -0.20  -0.05    -0.13  -0.21  -0.22
    24   1    -0.32   0.05   0.09    -0.04   0.01  -0.14     0.11   0.03  -0.03
    25   1     0.23   0.18   0.04    -0.05  -0.01   0.15     0.10  -0.05   0.36
                     22                     23                     24
                      A                      A                      A
 Frequencies --    931.0601               961.2420               985.9006
 Red. masses --      2.0235                 2.0664                 2.0554
 Frc consts  --      1.0335                 1.1250                 1.1771
 IR Inten    --      4.0007                 1.3898                 1.9155
  Atom  AN      X      Y      Z        X      Y      Z        X      Y      Z
     1   8    -0.00  -0.01   0.01    -0.01   0.00  -0.00    -0.00   0.01   0.02
     2   6    -0.05   0.04  -0.08     0.01  -0.01   0.03    -0.02  -0.02  -0.04
     3   6     0.02  -0.07   0.07     0.07  -0.03  -0.04     0.13   0.02   0.02
     4   6    -0.01   0.04  -0.02    -0.08  -0.00   0.05    -0.12   0.02  -0.05
     5   6     0.06   0.00  -0.11    -0.06  -0.02  -0.03    -0.01  -0.07  -0.00
     6   6    -0.05   0.00   0.13     0.07  -0.04   0.03     0.03   0.07   0.03
     7   6    -0.04   0.04  -0.02     0.07   0.05  -0.08    -0.03  -0.07   0.01
     8   6     0.09  -0.00  -0.03     0.02   0.10  -0.05    -0.06  -0.02   0.06
     9   6    -0.03   0.05   0.08    -0.04  -0.08   0.08     0.12  -0.02  -0.03
    10   6    -0.01  -0.06  -0.03     0.05   0.05  -0.06    -0.08   0.08  -0.04
    11   6     0.07  -0.06   0.01    -0.10  -0.03   0.07     0.04  -0.00   0.03
    12   1     0.28   0.13   0.09     0.10  -0.04  -0.07     0.11  -0.03  -0.01
    13   1    -0.10   0.02  -0.22     0.19  -0.08  -0.12     0.29  -0.05  -0.08
    14   1    -0.21   0.16  -0.11    -0.09  -0.12   0.08    -0.29   0.08  -0.11
    15   1    -0.13   0.13  -0.22     0.11  -0.11  -0.06     0.08  -0.17   0.20
    16   1     0.03  -0.17  -0.11    -0.03   0.23  -0.21     0.00   0.09  -0.11
    17   1    -0.04  -0.06   0.11    -0.05   0.19  -0.10    -0.02   0.16  -0.04
    18   1    -0.01   0.11   0.16    -0.13  -0.18   0.13    -0.08   0.07   0.15
    19   1    -0.06   0.24  -0.07     0.24   0.17  -0.14    -0.07  -0.12   0.03
    20   1     0.09  -0.09   0.05     0.15   0.32  -0.15    -0.14  -0.12   0.10
    21   1    -0.13   0.18  -0.17    -0.12  -0.08   0.21     0.16   0.05  -0.31
    22   1    -0.20  -0.19   0.17    -0.10   0.01   0.16     0.18  -0.21  -0.16
    23   1    -0.09  -0.07  -0.09     0.03   0.08  -0.06    -0.34   0.21  -0.18
    24   1    -0.21   0.09  -0.07    -0.08  -0.08   0.23    -0.02  -0.03   0.23
    25   1     0.23   0.12   0.28    -0.16  -0.10   0.30     0.06   0.01  -0.02
                     25                     26                     27
                      A                      A                      A
 Frequencies --    989.4583               999.6811              1040.3003
 Red. masses --      2.2895                 1.8824                 1.9239
 Frc consts  --      1.3207                 1.1084                 1.2267
 IR Inten    --      1.9820                 0.6953                 6.4945
  Atom  AN      X      Y      Z        X      Y      Z        X      Y      Z
     1   8    -0.01  -0.01   0.00     0.03   0.00  -0.01     0.01   0.00  -0.01
     2   6     0.01   0.06   0.05     0.00   0.03  -0.03     0.04   0.02   0.08
     3   6     0.05  -0.04  -0.01    -0.08  -0.05   0.01     0.02  -0.03  -0.07
     4   6    -0.01  -0.10  -0.07     0.07   0.02   0.05    -0.08  -0.05   0.05
     5   6    -0.05   0.11  -0.05     0.02   0.00  -0.05     0.04   0.01  -0.10
     6   6     0.06  -0.09   0.10    -0.04   0.00   0.03    -0.05   0.08   0.07
     7   6    -0.06   0.04  -0.12     0.07   0.02  -0.07    -0.04  -0.06   0.04
     8   6     0.01  -0.06   0.04    -0.06  -0.02   0.11    -0.03  -0.00   0.05
     9   6     0.05   0.01  -0.03    -0.00  -0.04  -0.10    -0.05  -0.02  -0.08
    10   6    -0.02  -0.00   0.12    -0.03   0.01  -0.06     0.06   0.04   0.03
    11   6    -0.02   0.10  -0.01    -0.01   0.01   0.10     0.05  -0.02  -0.05
    12   1     0.12   0.03   0.01     0.07   0.06   0.02     0.21  -0.11  -0.22
    13   1    -0.14   0.04   0.01    -0.25   0.03  -0.02    -0.00  -0.03   0.01
    14   1     0.16  -0.12  -0.02     0.09   0.05   0.05    -0.09   0.03   0.03
    15   1    -0.06   0.11  -0.04    -0.00   0.08  -0.32    -0.08   0.06  -0.04
    16   1    -0.07   0.10  -0.23     0.03  -0.05   0.09     0.01  -0.06  -0.27
    17   1    -0.08   0.08  -0.17    -0.01   0.09   0.21    -0.01  -0.08   0.02
    18   1    -0.17  -0.27   0.20     0.06   0.06  -0.03    -0.01   0.26   0.16
    19   1    -0.21   0.26  -0.16     0.30   0.04  -0.10    -0.00  -0.02   0.02
    20   1     0.21  -0.18   0.26    -0.13  -0.16   0.20     0.12   0.17   0.01
    21   1     0.04   0.02  -0.05     0.32  -0.20  -0.09    -0.06  -0.17   0.38
    22   1     0.17  -0.07  -0.17     0.08   0.24  -0.09     0.07   0.31  -0.10
    23   1     0.00   0.01   0.15    -0.13   0.06  -0.13     0.18  -0.14   0.05
    24   1     0.28  -0.01  -0.07     0.07  -0.09   0.33    -0.16   0.01   0.16
    25   1    -0.24  -0.15  -0.10    -0.14  -0.13   0.22     0.22   0.16  -0.32
                     28                     29                     30
                      A                      A                      A
 Frequencies --   1052.2870              1092.8493              1101.4016
 Red. masses --      1.6610                 1.7347                 1.6220
 Frc consts  --      1.0836                 1.2207                 1.1593
 IR Inten    --      0.0906                 0.2711                11.9483
  Atom  AN      X      Y      Z        X      Y      Z        X      Y      Z
     1   8     0.03  -0.00  -0.00    -0.01   0.01  -0.00     0.01  -0.01  -0.01
     2   6    -0.02   0.05  -0.05     0.01  -0.04   0.01     0.01   0.08   0.04
     3   6    -0.00  -0.09   0.02    -0.04   0.04  -0.00    -0.01  -0.08  -0.01
     4   6    -0.03   0.11  -0.04     0.09  -0.05   0.06     0.04   0.05   0.02
     5   6    -0.02  -0.03   0.04    -0.04  -0.01  -0.10    -0.07  -0.06  -0.00
     6   6     0.04   0.01   0.02     0.05   0.09   0.07     0.07   0.03  -0.02
     7   6    -0.01  -0.07  -0.03    -0.02  -0.09   0.02    -0.04   0.01   0.06
     8   6    -0.02   0.04   0.06    -0.03   0.03  -0.05    -0.01  -0.05   0.02
     9   6    -0.05  -0.03  -0.01     0.03   0.02   0.06    -0.01   0.02  -0.04
    10   6     0.05  -0.06  -0.02     0.01  -0.02  -0.04    -0.01   0.03  -0.04
    11   6    -0.00   0.08   0.00    -0.01   0.02  -0.01     0.01  -0.08  -0.03
    12   1     0.03   0.14   0.17    -0.19   0.00   0.05     0.03   0.10   0.10
    13   1     0.06  -0.08  -0.31    -0.09   0.05   0.16    -0.16   0.00  -0.10
    14   1    -0.14   0.21  -0.11     0.27  -0.17   0.14     0.31   0.11   0.09
    15   1     0.07  -0.08   0.08     0.10  -0.02  -0.35     0.14  -0.16  -0.06
    16   1     0.01   0.04   0.11    -0.01   0.19  -0.16    -0.02   0.20   0.03
    17   1    -0.02   0.21   0.05    -0.04   0.37   0.08    -0.01   0.21  -0.06
    18   1    -0.05   0.02   0.12    -0.11   0.04   0.20    -0.08  -0.10   0.05
    19   1    -0.19  -0.30   0.06    -0.22  -0.18   0.07    -0.22  -0.02   0.09
    20   1     0.08   0.08   0.09    -0.12  -0.01  -0.07     0.17   0.01   0.08
    21   1     0.07  -0.10   0.01     0.03   0.11  -0.21    -0.16   0.01   0.21
    22   1    -0.20   0.15   0.19    -0.17  -0.15   0.20     0.20   0.04  -0.24
    23   1     0.34  -0.23   0.12    -0.02  -0.09  -0.09    -0.14   0.13  -0.10
    24   1     0.28  -0.01  -0.13     0.04  -0.04   0.10    -0.16   0.08  -0.34
    25   1    -0.16  -0.10  -0.19    -0.03  -0.01  -0.24     0.13   0.06   0.37
                     31                     32                     33
                      A                      A                      A
 Frequencies --   1122.3327              1154.9909              1175.6124
 Red. masses --      1.4530                 1.1028                 1.2186
 Frc consts  --      1.0784                 0.8668                 0.9923
 IR Inten    --      4.0224                 3.9926                 1.8484
  Atom  AN      X      Y      Z        X      Y      Z        X      Y      Z
     1   8     0.00   0.00   0.01    -0.00   0.01   0.00    -0.01   0.00  -0.01
     2   6    -0.03  -0.02  -0.07     0.00  -0.05  -0.02     0.03  -0.02   0.07
     3   6    -0.01   0.00   0.04    -0.01   0.02   0.01    -0.02  -0.00  -0.02
     4   6     0.04  -0.00   0.01    -0.02  -0.01   0.01    -0.01   0.02   0.00
     5   6    -0.07  -0.02   0.00     0.02   0.01   0.01    -0.00   0.00   0.01
     6   6     0.04  -0.01  -0.01    -0.00  -0.02   0.00     0.04  -0.01  -0.01
     7   6    -0.06   0.06   0.01     0.03   0.01  -0.02    -0.01   0.03  -0.03
     8   6     0.05   0.01   0.04     0.02   0.03   0.00    -0.04   0.00   0.00
     9   6    -0.05  -0.03  -0.04    -0.02  -0.01  -0.00     0.04  -0.02   0.00
    10   6     0.03   0.03   0.04    -0.01   0.02   0.01    -0.02   0.03  -0.03
    11   6     0.04  -0.06  -0.02    -0.01  -0.02   0.01     0.01  -0.04   0.02
    12   1    -0.11   0.05   0.12     0.11  -0.07  -0.12     0.37  -0.14  -0.30
    13   1     0.04  -0.01  -0.02     0.05  -0.01   0.01    -0.21   0.07   0.17
    14   1     0.04  -0.08   0.04    -0.28  -0.34   0.03    -0.12   0.24  -0.09
    15   1     0.09  -0.13   0.12    -0.04   0.12  -0.30     0.01  -0.00  -0.01
    16   1    -0.04   0.19  -0.16     0.01  -0.05   0.03     0.02  -0.07   0.32
    17   1     0.00  -0.12  -0.23    -0.01   0.13   0.12    -0.00   0.19   0.07
    18   1    -0.05  -0.06   0.05    -0.01   0.12   0.11    -0.00  -0.30  -0.17
    19   1     0.01   0.23  -0.05    -0.18  -0.27   0.08    -0.32   0.20  -0.03
    20   1    -0.06  -0.09   0.05     0.03  -0.04   0.07    -0.09  -0.01  -0.01
    21   1     0.39  -0.19  -0.24     0.11  -0.06  -0.05     0.07   0.01  -0.12
    22   1    -0.20   0.24   0.20     0.10   0.04  -0.11    -0.16  -0.04   0.19
    23   1     0.11   0.25   0.19     0.14   0.40   0.27     0.15  -0.06   0.07
    24   1    -0.20   0.00   0.12     0.02   0.08  -0.40    -0.10   0.00   0.02
    25   1     0.23   0.15  -0.22     0.02   0.01   0.11     0.12   0.08  -0.15
                     34                     35                     36
                      A                      A                      A
 Frequencies --   1197.1320              1201.0186              1228.6995
 Red. masses --      1.3240                 1.5358                 1.5441
 Frc consts  --      1.1179                 1.3052                 1.3735
 IR Inten    --      1.0536                 2.3325                20.2452
  Atom  AN      X      Y      Z        X      Y      Z        X      Y      Z
     1   8     0.01  -0.00  -0.02    -0.01   0.01   0.00    -0.02  -0.01  -0.01
     2   6     0.01   0.02   0.03     0.01  -0.08  -0.01     0.03   0.09   0.11
     3   6    -0.04  -0.00  -0.02    -0.02   0.02   0.01     0.02  -0.04  -0.03
     4   6     0.01  -0.01   0.05     0.03  -0.02   0.01    -0.05   0.03   0.01
     5   6     0.03  -0.01  -0.03    -0.02   0.03  -0.04     0.01  -0.01   0.00
     6   6    -0.02   0.03   0.00     0.02   0.03   0.04    -0.06   0.01  -0.00
     7   6     0.02  -0.02   0.04    -0.06  -0.08   0.02     0.07  -0.03   0.01
     8   6    -0.01   0.05  -0.05     0.05   0.04  -0.02    -0.03  -0.02  -0.09
     9   6    -0.04  -0.00   0.04    -0.06   0.02  -0.01     0.01  -0.01   0.01
    10   6     0.06  -0.04  -0.02     0.08  -0.03   0.05     0.02   0.00  -0.02
    11   6    -0.04   0.01  -0.01    -0.01   0.04  -0.07    -0.01   0.01   0.01
    12   1    -0.13   0.02   0.04     0.24  -0.12  -0.22     0.12   0.00  -0.05
    13   1     0.27  -0.13  -0.22    -0.15   0.07   0.18    -0.07   0.00  -0.00
    14   1    -0.17  -0.06   0.01    -0.11   0.35  -0.14     0.29   0.09   0.09
    15   1    -0.00  -0.03   0.11     0.02  -0.07   0.30    -0.01  -0.06   0.22
    16   1     0.03  -0.07   0.06    -0.01   0.04   0.02    -0.01   0.06  -0.31
    17   1     0.01   0.03   0.09    -0.01   0.07   0.02     0.01  -0.22  -0.02
    18   1     0.06  -0.22  -0.27    -0.03  -0.15  -0.03     0.04   0.24   0.07
    19   1    -0.30   0.30   0.00     0.24  -0.18   0.00     0.01   0.01   0.01
    20   1     0.24  -0.30   0.40     0.02   0.03  -0.03    -0.30  -0.34   0.02
    21   1     0.08  -0.04  -0.06     0.17  -0.07  -0.08     0.19  -0.03  -0.24
    22   1     0.14  -0.00  -0.15    -0.01   0.14  -0.02    -0.20  -0.02   0.21
    23   1    -0.14   0.16  -0.09    -0.28   0.22  -0.11     0.13   0.23   0.15
    24   1     0.00  -0.04   0.10     0.09   0.00  -0.10     0.09   0.04  -0.22
    25   1    -0.05  -0.00  -0.14    -0.15  -0.11   0.38    -0.06  -0.05   0.17
                     37                     38                     39
                      A                      A                      A
 Frequencies --   1246.8551              1256.3096              1294.8829
 Red. masses --      1.4367                 1.4299                 1.5308
 Frc consts  --      1.3159                 1.3297                 1.5122
 IR Inten    --      2.5451                 5.9721                 1.4401
  Atom  AN      X      Y      Z        X      Y      Z        X      Y      Z
     1   8     0.02   0.01   0.01     0.01  -0.02  -0.02     0.03   0.01  -0.02
     2   6    -0.02  -0.04  -0.06     0.01   0.10   0.07     0.02  -0.02   0.02
     3   6     0.03   0.02  -0.01    -0.04   0.00  -0.00    -0.06   0.00   0.01
     4   6    -0.02  -0.05   0.05    -0.01  -0.04   0.01     0.07   0.02   0.01
     5   6     0.06   0.01  -0.04     0.02   0.01  -0.02    -0.05  -0.02  -0.01
     6   6    -0.06   0.02   0.03     0.02   0.01  -0.00     0.01   0.05   0.00
     7   6     0.02  -0.03  -0.04    -0.05  -0.02  -0.01    -0.01  -0.07   0.02
     8   6    -0.05  -0.02   0.05     0.02  -0.06   0.01    -0.11  -0.05  -0.02
     9   6     0.03  -0.01  -0.02     0.02   0.03  -0.04     0.04   0.03   0.00
    10   6    -0.04   0.07  -0.01    -0.00  -0.00   0.07    -0.06  -0.02  -0.01
    11   6     0.01  -0.02   0.00     0.03   0.00  -0.04     0.03   0.03   0.03
    12   1    -0.29   0.08   0.19    -0.10   0.01   0.03     0.15  -0.06  -0.13
    13   1     0.01   0.02   0.08     0.40  -0.18  -0.34     0.10  -0.06  -0.09
    14   1     0.15   0.06   0.06    -0.12  -0.15   0.01    -0.22  -0.15  -0.02
    15   1    -0.06  -0.02   0.31    -0.02   0.06  -0.11     0.06  -0.07  -0.04
    16   1     0.02  -0.07  -0.23     0.03  -0.10   0.19    -0.02   0.09   0.09
    17   1    -0.02   0.09   0.24    -0.01   0.24   0.13     0.03  -0.28  -0.27
    18   1     0.07  -0.26  -0.30    -0.01  -0.18  -0.11    -0.01   0.12   0.07
    19   1    -0.15   0.05  -0.03     0.13   0.04  -0.05     0.30   0.30  -0.12
    20   1     0.24   0.28  -0.02    -0.35   0.12  -0.37     0.48   0.27   0.07
    21   1     0.04   0.00  -0.08     0.02   0.02  -0.02    -0.01   0.09  -0.11
    22   1    -0.13   0.03   0.15    -0.19   0.05   0.18    -0.09  -0.07   0.10
    23   1     0.18  -0.05   0.11    -0.09   0.15   0.06     0.11   0.10   0.16
    24   1     0.02   0.06  -0.29    -0.02  -0.00   0.05     0.13   0.03  -0.13
    25   1     0.01  -0.02   0.26    -0.01  -0.03   0.17    -0.01  -0.03   0.06
                     40                     41                     42
                      A                      A                      A
 Frequencies --   1295.1681              1313.0121              1326.3015
 Red. masses --      1.6534                 1.3855                 1.4948
 Frc consts  --      1.6341                 1.4073                 1.5493
 IR Inten    --      1.1434                 0.4190                 0.0781
  Atom  AN      X      Y      Z        X      Y      Z        X      Y      Z
     1   8     0.00  -0.00  -0.01     0.00   0.00  -0.00    -0.00  -0.00  -0.00
     2   6     0.00   0.00  -0.00     0.00   0.01   0.01    -0.00   0.01   0.00
     3   6    -0.10   0.02   0.06     0.01  -0.01  -0.01    -0.01   0.03   0.00
     4   6     0.12  -0.01   0.02    -0.01   0.03  -0.01     0.02  -0.10   0.03
     5   6    -0.03   0.02  -0.05     0.00  -0.01   0.02    -0.03   0.03  -0.01
     6   6    -0.03  -0.02   0.04    -0.01   0.00  -0.01     0.03   0.02   0.02
     7   6     0.04   0.01  -0.06     0.06  -0.01   0.01     0.01   0.00   0.02
     8   6     0.05   0.01   0.06    -0.00  -0.07   0.03     0.01   0.05  -0.04
     9   6     0.01   0.01   0.01    -0.08   0.04   0.08     0.00  -0.06   0.01
    10   6    -0.06  -0.01  -0.06     0.00  -0.02  -0.00    -0.07   0.10  -0.02
    11   6    -0.01  -0.01   0.04     0.01   0.02  -0.10     0.03  -0.00  -0.07
    12   1     0.21  -0.10  -0.18     0.04   0.00  -0.01    -0.14  -0.01   0.03
    13   1     0.24  -0.11  -0.21    -0.07   0.02   0.04     0.19  -0.06  -0.11
    14   1    -0.06   0.07  -0.06    -0.01  -0.08   0.02    -0.06   0.32  -0.12
    15   1     0.07  -0.16   0.47    -0.00   0.01  -0.05     0.00   0.05  -0.18
    16   1    -0.04   0.12  -0.28    -0.00   0.02  -0.05    -0.01  -0.02   0.26
    17   1    -0.02  -0.09  -0.02     0.01  -0.05  -0.01     0.02  -0.20  -0.23
    18   1     0.02  -0.00   0.01     0.01   0.06   0.02    -0.03   0.03   0.09
    19   1    -0.24  -0.11   0.01    -0.35   0.09   0.04    -0.03  -0.15   0.06
    20   1    -0.31   0.05  -0.19     0.03   0.33  -0.29    -0.05  -0.28   0.21
    21   1    -0.16   0.04   0.17     0.31  -0.03  -0.33     0.03  -0.08   0.02
    22   1     0.19  -0.07  -0.19     0.23  -0.03  -0.25     0.03  -0.03   0.00
    23   1     0.10  -0.01   0.06     0.16  -0.07   0.09     0.33  -0.31   0.13
    24   1    -0.01   0.02  -0.05    -0.05  -0.09   0.39    -0.03  -0.03   0.12
    25   1     0.01   0.01  -0.12    -0.08  -0.07   0.25    -0.02  -0.04   0.40
                     43                     44                     45
                      A                      A                      A
 Frequencies --   1337.2074              1343.3037              1355.6212
 Red. masses --      1.6141                 1.3567                 1.4426
 Frc consts  --      1.7005                 1.4424                 1.5620
 IR Inten    --      0.3911                 0.4209                 0.0804
  Atom  AN      X      Y      Z        X      Y      Z        X      Y      Z
     1   8     0.02   0.00  -0.01     0.01   0.00  -0.00    -0.01  -0.00   0.01
     2   6     0.00   0.00  -0.01     0.00  -0.01  -0.00    -0.01   0.01  -0.01
     3   6    -0.02   0.01   0.01    -0.02   0.00   0.03     0.06  -0.02  -0.06
     4   6     0.01  -0.08   0.00    -0.01   0.03  -0.02    -0.01  -0.04   0.06
     5   6    -0.02   0.04   0.02     0.02  -0.03   0.06    -0.02  -0.01   0.02
     6   6    -0.01  -0.05  -0.01    -0.01   0.03   0.02     0.01   0.06   0.03
     7   6     0.11   0.08  -0.01    -0.03   0.06   0.01     0.01  -0.04  -0.03
     8   6    -0.08  -0.05   0.01    -0.02   0.01  -0.03     0.04   0.00   0.04
     9   6     0.04   0.02  -0.04     0.04   0.01  -0.03     0.00   0.03  -0.01
    10   6     0.07  -0.02   0.04    -0.05  -0.07  -0.02    -0.00  -0.09  -0.07
    11   6    -0.05  -0.03  -0.02     0.04   0.02  -0.07     0.00   0.02   0.03
    12   1    -0.03  -0.01  -0.01     0.15  -0.03  -0.08    -0.25   0.09   0.18
    13   1     0.15  -0.06  -0.09     0.01  -0.00  -0.02    -0.15   0.06   0.13
    14   1    -0.02   0.36  -0.13     0.12  -0.01   0.03    -0.16   0.37  -0.10
    15   1    -0.01   0.05  -0.06    -0.01   0.03  -0.11    -0.02   0.06  -0.21
    16   1    -0.03   0.01   0.00    -0.01   0.07  -0.37    -0.00   0.04   0.09
    17   1    -0.01  -0.12  -0.08     0.01   0.03   0.10     0.02  -0.22  -0.25
    18   1     0.00   0.24   0.19     0.00  -0.29  -0.22     0.03  -0.10  -0.11
    19   1    -0.35  -0.26   0.15     0.08  -0.33   0.10    -0.08   0.12  -0.06
    20   1     0.25   0.18   0.02     0.16  -0.09   0.16    -0.20   0.08  -0.17
    21   1    -0.03   0.07  -0.04    -0.18   0.05   0.16    -0.16   0.07   0.12
    22   1    -0.24   0.06   0.24    -0.09  -0.05   0.08     0.06   0.00  -0.08
    23   1    -0.33   0.21  -0.17     0.15   0.26   0.26     0.07   0.48   0.21
    24   1    -0.11  -0.03   0.07    -0.08  -0.07   0.44     0.07  -0.00  -0.01
    25   1    -0.02   0.01  -0.04    -0.02  -0.04   0.09    -0.03  -0.02  -0.11
                     46                     47                     48
                      A                      A                      A
 Frequencies --   1360.9371              1374.2716              1385.8979
 Red. masses --      1.6623                 1.4388                 1.4397
 Frc consts  --      1.8140                 1.6011                 1.6293
 IR Inten    --      2.9108                 9.3206                 0.4352
  Atom  AN      X      Y      Z        X      Y      Z        X      Y      Z
     1   8    -0.01   0.00   0.01     0.01   0.01   0.00    -0.01   0.00   0.01
     2   6    -0.01  -0.05  -0.05    -0.01  -0.04  -0.04     0.00  -0.00  -0.01
     3   6    -0.01   0.01   0.04    -0.03   0.05   0.08     0.03  -0.02  -0.04
     4   6    -0.01   0.04  -0.05    -0.11  -0.05  -0.02     0.03   0.02   0.05
     5   6    -0.00  -0.03   0.03     0.01   0.02  -0.02    -0.01   0.04  -0.08
     6   6    -0.01   0.04  -0.01     0.02  -0.02  -0.03     0.01  -0.10  -0.06
     7   6     0.07  -0.10   0.01    -0.02  -0.03   0.02    -0.00   0.00   0.04
     8   6     0.03   0.07   0.06     0.01   0.01   0.02    -0.00   0.01  -0.00
     9   6     0.05  -0.03  -0.08    -0.02   0.01   0.02     0.04   0.00  -0.03
    10   6     0.00   0.01   0.07     0.01  -0.04  -0.06    -0.04  -0.04  -0.01
    11   6    -0.02   0.02  -0.06     0.01   0.01   0.02     0.02   0.02  -0.05
    12   1     0.13  -0.05  -0.08     0.18  -0.07  -0.10    -0.12   0.08   0.11
    13   1    -0.03   0.02   0.01     0.26  -0.07  -0.11    -0.13   0.04   0.13
    14   1     0.08  -0.25   0.06     0.68   0.24   0.12    -0.20  -0.08   0.02
    15   1     0.01   0.00  -0.14    -0.03   0.04  -0.04     0.01  -0.09   0.41
    16   1     0.00   0.03  -0.04     0.02  -0.11   0.24     0.01  -0.04   0.20
    17   1     0.02  -0.15  -0.11    -0.00   0.12   0.07    -0.04   0.29   0.22
    18   1     0.03   0.07  -0.03    -0.02   0.13   0.11    -0.04   0.34   0.30
    19   1    -0.43   0.44  -0.07     0.05   0.22  -0.06    -0.02   0.15   0.01
    20   1    -0.20  -0.05   0.03     0.06   0.08  -0.00     0.04  -0.07   0.09
    21   1    -0.23   0.00   0.28    -0.03   0.02  -0.02    -0.16   0.04   0.15
    22   1    -0.19   0.08   0.19     0.09   0.02  -0.10    -0.07  -0.03   0.07
    23   1    -0.15  -0.04  -0.06     0.13   0.22   0.13     0.11   0.21   0.20
    24   1     0.01  -0.02   0.03     0.07  -0.01   0.01    -0.02  -0.06   0.28
    25   1    -0.13  -0.09   0.28     0.02   0.02  -0.05    -0.02  -0.03   0.12
                     49                     50                     51
                      A                      A                      A
 Frequencies --   1395.7720              1490.1169              1526.3764
 Red. masses --      1.3944                 1.0843                 1.0827
 Frc consts  --      1.6005                 1.4185                 1.4861
 IR Inten    --      0.9640                 8.8180                 3.5006
  Atom  AN      X      Y      Z        X      Y      Z        X      Y      Z
     1   8     0.00   0.00   0.00    -0.00  -0.00   0.00     0.00  -0.00   0.00
     2   6    -0.01  -0.00  -0.01    -0.00  -0.00  -0.01    -0.00   0.00  -0.00
     3   6     0.01  -0.01   0.00    -0.05  -0.02  -0.05    -0.01  -0.00  -0.01
     4   6    -0.05   0.06   0.01     0.00  -0.01  -0.01     0.00  -0.00  -0.01
     5   6    -0.01  -0.00  -0.12    -0.01   0.01   0.01     0.03  -0.05  -0.02
     6   6     0.01   0.04   0.08    -0.00   0.00  -0.00     0.01   0.02  -0.02
     7   6     0.03   0.05  -0.04    -0.00  -0.00   0.00     0.00   0.01  -0.01
     8   6    -0.01  -0.01  -0.00     0.01   0.00   0.00     0.00   0.00   0.00
     9   6     0.01   0.00  -0.01     0.00  -0.02   0.01    -0.00   0.01  -0.01
    10   6     0.01  -0.02   0.01    -0.00   0.01   0.00     0.00   0.00   0.01
    11   6    -0.01  -0.00  -0.01     0.01   0.00   0.00    -0.04  -0.01  -0.01
    12   1     0.04   0.04   0.03     0.34   0.53   0.20     0.08   0.12   0.05
    13   1    -0.03   0.01   0.06     0.34  -0.25   0.53     0.09  -0.06   0.11
    14   1     0.20  -0.36   0.20    -0.01   0.01  -0.02    -0.00  -0.01  -0.01
    15   1     0.06  -0.13   0.25     0.12  -0.05  -0.05    -0.46   0.21   0.09
    16   1     0.04  -0.17   0.53    -0.03  -0.12  -0.06     0.12   0.48   0.13
    17   1     0.02  -0.33  -0.26     0.00  -0.00  -0.00     0.14  -0.19   0.22
    18   1    -0.00  -0.17  -0.05    -0.00  -0.00  -0.00    -0.24  -0.14   0.14
    19   1    -0.07  -0.35   0.08     0.00   0.01  -0.00    -0.02  -0.02  -0.00
    20   1     0.01   0.01  -0.01    -0.01  -0.01   0.00    -0.01   0.00  -0.01
    21   1    -0.02   0.01   0.01    -0.10   0.07  -0.10     0.05  -0.04   0.06
    22   1    -0.03   0.00   0.03     0.05   0.14   0.00    -0.03  -0.09  -0.00
    23   1    -0.03   0.07   0.02    -0.00  -0.02  -0.01    -0.02  -0.01  -0.01
    24   1    -0.05  -0.00   0.06    -0.06   0.03  -0.01     0.29  -0.15   0.03
    25   1    -0.03  -0.02  -0.01    -0.04  -0.05  -0.01     0.19   0.24   0.06
                     52                     53                     54
                      A                      A                      A
 Frequencies --   1534.7627              1547.2983              1568.6853
 Red. masses --      1.0860                 1.0901                 1.0862
 Frc consts  --      1.5072                 1.5377                 1.5749
 IR Inten    --      3.1412                10.2578                 2.2486
  Atom  AN      X      Y      Z        X      Y      Z        X      Y      Z
[...]
 988,0.00030497,-0.00337700,-0.00430938,-0.00192656,-0.04857440,0.06399
 964,0.00157237,-0.00009779,0.00013174,-0.00146918,-0.00043810,-0.00332
 887,0.00006614,-0.00014617,-0.00030695,-0.00040866,0.00007272,0.000212
 27,-0.00544116,0.00238406,-0.00067474,-0.00913887,-0.00060442,-0.05128
 581,-0.02392391,0.00382359,-0.00290739,-0.00036521,-0.00047340,0.00158
 539,-0.00008782,-0.00023060,0.00026598,-0.00002819,0.00032823,0.000617
 98,-0.00047599,0.00473135,-0.00285677,0.00006010,0.00002853,0.00003816
 ,0.00010923,-0.00011162,-0.00007951,0.00018843,-0.00013241,-0.00017660
 ,0.00050952,0.00036064,0.00085603,-0.00039459,-0.00023407,0.00040987,0
 .00995231,-0.00295480,0.05545704,0.00063640,0.00000286,0.00062259,-0.0
 0091966,-0.00009715,-0.00083142,-0.00022626,-0.00001407,0.00021553,-0.
 00167422,-0.00319090,-0.00069757,0.00269028,-0.00710982,-0.01697680,-0
 .07054961,0.02711457,0.06604486,0.00103686,-0.00199386,-0.00622126,0.0
 0035056,0.00071465,-0.00018164,-0.00008374,-0.00029590,-0.00004547,0.0
 0031144,-0.00063640,0.00026627,0.00094060,-0.00019979,-0.00006426,0.00
 017739,0.00006233,-0.00006965,0.00002784,-0.00012667,-0.00005106,-0.00
 011435,-0.00029468,-0.00109916,0.00004440,-0.00020805,0.00012297,0.001
 20201,0.00028150,-0.00067572,-0.00882437,0.01155180,0.03028340,0.07442
 084,-0.00015511,0.00049167,-0.00024777,0.00065994,-0.00172994,0.000193
 88,-0.00031298,0.00044699,0.00034345,-0.00234261,-0.00472351,0.0008274
 3,0.00622739,-0.00894127,-0.02563099,0.02742881,-0.07769044,-0.0814254
 4,-0.00772613,0.00662240,0.02291551,0.00172784,-0.00233746,0.00308522,
 -0.00079633,0.00038367,0.00081332,0.00001317,-0.00034710,0.00037253,-0
 .00080774,0.00013079,-0.00057947,0.00003965,-0.00000393,-0.00006340,0.
 00004265,0.00012141,0.00001670,-0.00022006,-0.00013355,-0.00165238,0.0
 0001193,-0.00069284,0.00018223,-0.00005530,0.00172489,0.00025479,0.001
 95452,-0.00220469,-0.00578806,-0.02514562,0.08712793,0.00035262,-0.000
 20477,0.00021173,-0.00101713,0.00121490,0.00008998,-0.00004910,0.00013
 392,0.00047661,-0.00094568,-0.00128718,0.00075877,0.00126354,-0.002012
 72,-0.00431273,0.06466129,-0.07982968,-0.25634632,0.00765079,-0.006920
 73,-0.02047505,-0.00163110,0.00277420,-0.00120397,0.00061535,0.0001151
 7,-0.00046808,0.00037008,-0.00020884,0.00039562,0.00102788,0.00011587,
 0.00018580,-0.00001225,0.00000132,-0.00002759,-0.00001284,-0.00007371,
 -0.00000180,0.00000697,-0.00008501,-0.00054855,-0.00032660,-0.00042426
 ,-0.00038962,-0.00028628,0.00013005,0.00116288,0.00048987,0.00060424,0
 .00201708,-0.07127196,0.08600864,0.27779005,-0.00107791,0.00047479,-0.
 00062767,0.00107582,-0.00174334,0.00261612,0.00007853,-0.00005746,-0.0
 0050119,-0.00045938,0.00062156,-0.00000950,0.00025977,0.00071983,-0.00
 124904,0.00298959,0.00756815,0.00341826,-0.06231412,-0.05375726,-0.021
 79409,0.00076851,0.01549743,0.00825923,-0.00098960,0.00029167,0.001262
 83,-0.00724030,-0.00063949,-0.00111512,-0.00349093,-0.02837331,-0.0116
 3583,-0.00005614,-0.00011459,0.00001786,0.00016589,0.00006653,-0.00005
 561,0.00008790,0.00003969,0.00000870,0.00030934,0.00032045,0.00005224,
 0.00010074,0.00022893,-0.00012011,-0.00009826,-0.00025146,0.00036587,0
 .00058016,-0.00066065,0.00034094,0.06585221,0.00045629,-0.00012089,0.0
 0021298,-0.00021371,0.00081743,-0.00050342,-0.00011519,0.00027264,0.00
 011466,0.00010556,0.00075604,0.00059942,0.00245507,-0.00163005,0.00347
 212,-0.00632097,-0.01996342,-0.00691435,-0.05509505,-0.27047992,-0.085
 59128,-0.00100526,-0.00264316,-0.00015439,0.00008282,-0.00001088,0.000
 22217,-0.00011250,0.00047104,-0.00004008,0.00088546,0.00132153,0.00092
 043,0.00005756,0.00003645,-0.00005994,0.00000843,0.00005494,0.00001113
 ,-0.00004227,-0.00000524,-0.00004088,-0.00084625,-0.00104451,-0.000219
 14,-0.00018074,-0.00020758,0.00003533,0.00046723,-0.00007139,0.0000387
 4,-0.00044196,0.00139619,0.00017828,0.06035246,0.28880614,0.00141308,-
 0.00065869,0.00061333,-0.00161268,0.00262684,-0.00333897,0.00003170,-0
 .00014673,0.00061047,0.00003356,0.00010135,-0.00048042,-0.00241882,0.0
 0307837,-0.00300975,0.00694220,0.02291321,0.00694945,-0.02184530,-0.08
 572171,-0.07767847,-0.00201387,-0.02381551,-0.01060810,0.00048735,-0.0
 0117236,-0.00162197,-0.00170543,-0.00024499,-0.00116571,-0.00109359,-0
 .00504692,-0.00237669,-0.00002563,0.00015106,0.00003060,-0.00002551,-0
 .00017342,0.00001006,-0.00006513,-0.00002142,0.00013683,0.00079234,0.0
 0126619,0.00032120,0.00015063,0.00003614,0.00000652,-0.00036282,-0.000
 41072,0.00022357,0.00043066,-0.00019259,0.00139145,0.02220195,0.087993
 88,0.08981292,0.00172716,-0.00212513,0.00049166,0.01194569,0.01730654,
 -0.00537811,-0.00190420,0.00269190,0.00060105,-0.00037265,0.00046319,-
 0.00017083,0.00009775,-0.00002361,0.00006571,-0.00087458,0.00072263,0.
 00037451,-0.00503175,-0.00914367,0.00240608,-0.13586121,-0.12285318,0.
 03805631,-0.01023205,-0.01553562,0.00759334,-0.00403367,-0.00077310,-0
 .00335132,-0.00056691,-0.00048893,0.00044236,0.00008560,0.00036446,0.0
 0004512,0.00047831,0.00075240,0.00009343,0.00006734,-0.00003395,-0.000
 04586,0.00001112,-0.00005842,0.00009039,0.00001554,0.00001593,-0.00007
 369,0.00009480,-0.00004386,0.00002627,0.00006184,-0.00024246,0.0001926
 6,0.00097778,0.00030774,-0.00013911,0.14428891,0.00058000,0.00560167,-
 0.00132391,-0.02051112,-0.02554845,0.00699995,0.00403103,-0.00309164,0
 .00013900,0.00094366,0.00059930,-0.00039908,-0.00012485,-0.00001752,-0
 .00022232,0.00057740,0.00013846,-0.00011446,0.00476933,0.00563303,-0.0
 0319991,-0.11965068,-0.21506800,0.05606901,0.00028443,-0.00092300,0.00
 066279,0.00012802,0.00035236,-0.00071347,0.00078793,0.00009889,-0.0007
 8646,-0.00017546,-0.00051876,-0.00006495,-0.00063007,-0.00125017,-0.00
 020878,-0.00000273,0.00004382,0.00000268,0.00002659,0.00007570,-0.0000
 0566,-0.00001481,0.00002028,0.00011810,-0.00008930,-0.00009116,0.00002
 115,-0.00005074,0.00005010,-0.00004653,0.00008808,0.00140666,0.0001807
 5,0.12899576,0.23169269,-0.00094365,-0.00059299,-0.00089991,0.00305827
 ,-0.00044143,-0.00007058,0.00025235,-0.00003022,0.00166689,-0.00037098
 ,0.00013504,-0.00026374,-0.00021517,-0.00044054,0.00004767,0.00229935,
 -0.00161410,-0.00199650,0.01302139,0.02014853,-0.00758973,0.03774033,0
 .05703456,-0.06603218,-0.01064223,-0.01728352,0.00840868,-0.00318951,-
 0.00130670,-0.00372615,0.00094385,0.00008373,-0.00205260,0.00004697,0.
 00049887,0.00001380,-0.00008233,-0.00012982,0.00005796,0.00005513,0.00
 003871,0.00003601,0.00004819,0.00008995,0.00007225,-0.00000893,-0.0000
 3622,0.00001078,-0.00021996,-0.00003107,0.00008657,-0.00013717,0.00064
 907,-0.00085856,-0.00042853,0.00008199,0.00110981,-0.04251976,-0.05676
 358,0.06969712,-0.00177477,0.00188137,0.00124412,-0.00136524,-0.005286
 36,-0.00473731,-0.00006156,0.00070076,0.00108725,-0.00284623,-0.000565
 26,0.00329335,0.00051848,-0.00119661,0.00006801,-0.00016021,-0.0001182
 1,-0.00009796,-0.00020926,-0.00001510,0.00089052,-0.01252866,0.0225380
 5,-0.00976602,-0.09350288,0.09589764,-0.03852159,0.01009174,-0.0185568
 2,0.00912096,0.00049856,-0.00126507,0.00035356,0.00003141,0.00020898,-
 0.00033573,0.00017279,-0.00013455,-0.00017297,0.00030644,-0.00049308,0
 .00022114,0.00014396,0.00004600,0.00045993,0.00002325,0.00001328,-0.00
 007777,0.00011848,-0.00001073,0.00013799,0.00011817,0.00004454,-0.0000
 7959,0.00009751,-0.00005438,-0.00025695,0.00096120,-0.00014019,0.00100
 668,0.10239209,-0.00069043,0.00075989,0.00069649,-0.00088389,-0.001470
 03,-0.00227366,-0.00034221,0.00023266,0.00025101,-0.00256001,0.0001748
 0,0.00132958,0.00021125,-0.00077997,-0.00012051,-0.00018882,-0.0000853
 9,0.00004807,0.00012965,0.00009283,0.00042004,-0.00521529,0.00917761,-
 0.00431882,0.09441237,-0.23264864,0.07599841,0.00763468,-0.01421757,0.
 00592951,0.00155170,-0.00018916,-0.00197127,-0.00004328,0.00039297,0.0
 0031179,0.00008204,0.00005515,0.00012092,0.00024708,-0.00059124,0.0003
 8817,-0.00000441,0.00012053,0.00034002,-0.00006997,0.00004141,0.000095
 38,0.00002226,0.00003079,0.00000358,0.00008267,0.00004068,0.00002787,0
 .00001737,0.00004012,-0.00001680,0.00055135,0.00089196,0.00061537,-0.1
 0203774,0.25123125,-0.00145200,0.00111594,0.00060048,-0.00079736,-0.00
 312817,-0.00277127,0.00047986,-0.00116288,0.00004246,0.00320490,0.0006
 2285,-0.00134557,-0.00032658,0.00061111,-0.00004233,0.00021176,0.00014
 173,-0.00006255,-0.00025831,-0.00006023,0.00076884,-0.00817765,0.01614
 194,-0.00654403,-0.03753127,0.07409497,-0.08155368,-0.00770782,0.01436
 430,-0.00805396,-0.00017612,0.00214090,-0.00092360,0.00013692,0.000294
 04,0.00053763,-0.00008054,0.00006718,0.00028765,-0.00023563,0.00060020
 ,-0.00048517,-0.00008809,-0.00005278,-0.00028078,0.00004854,0.00002045
 ,0.00002238,0.00007468,-0.00011885,0.00014386,0.00004113,-0.00005122,-
 0.00007402,-0.00005210,-0.00004793,-0.00014805,0.00047499,-0.00038009,
 0.00106471,0.03990649,-0.08218488,0.08883610,0.00005144,-0.00024545,-0
 .00004423,0.00082117,-0.00033972,-0.00126613,-0.00015169,0.00100428,-0
 .00036805,-0.00001088,0.00055471,-0.00078409,-0.00018101,0.00006574,-0
 .00002193,0.00051431,-0.00061064,-0.00078311,-0.00418129,-0.00066209,-
 0.00250764,0.00904389,-0.01266474,-0.01956905,-0.07277261,0.04393310,0
 .06306277,-0.00512359,0.01429396,0.01441726,-0.00381683,-0.00243712,0.
 00372337,0.00033625,0.00075907,-0.00083244,-0.00003095,-0.00012032,-0.
 00009707,-0.00004975,-0.00014220,0.00008129,0.00011028,-0.00000923,0.0
 0001087,0.00005777,0.00008890,-0.00006774,0.00007026,-0.00006537,0.000
 04387,-0.00001351,0.00035413,-0.00030494,0.00051971,-0.00005423,-0.000
 65370,-0.00025810,-0.00028094,0.00016144,-0.00391669,0.00767262,0.0108
 8874,0.07823843,-0.00109547,0.00007128,0.00014438,0.00194917,0.0000010
 5,0.00044735,0.00068372,-0.00210025,0.00068629,0.00058183,0.00063796,-
 0.00059507,0.00000058,0.00018241,-0.00001435,0.00013051,-0.00028112,-0
 .00005741,-0.00121411,0.00048939,0.00054477,0.00179304,-0.00321893,-0.
 00368272,0.04425850,-0.13086724,-0.11303723,-0.00335055,0.01074469,0.0
 1232006,-0.00127441,-0.00137740,0.00205804,0.00115834,-0.00164252,0.00
 166796,-0.00013979,0.00023389,0.00020396,-0.00005771,0.00007069,-0.000
 05923,-0.00000612,0.00002602,-0.00003768,0.00002193,0.00001325,-0.0000
 6598,-0.00001525,0.00001496,0.00001023,-0.00001435,0.00009626,-0.00008
 402,0.00010811,-0.00000284,-0.00006123,-0.00032283,-0.00021823,-0.0003
 4190,0.00842202,-0.01524399,-0.02161753,-0.05162177,0.14042728,-0.0003
 7439,0.00062157,-0.00005229,-0.00001778,-0.00242795,-0.00088127,0.0002
 6529,-0.00023260,-0.00078045,0.00055935,-0.00090289,0.00039717,-0.0002
 6326,-0.00012478,0.00000493,0.00027611,-0.00049739,-0.00046754,-0.0011
 6975,-0.00058902,-0.00154206,0.00530578,-0.00669443,-0.01203466,0.0611
 6702,-0.10995689,-0.20757500,0.00224904,-0.00971557,-0.01102440,0.0014
 7714,0.00197793,-0.00288398,-0.00025120,0.00119254,0.00112821,-0.00006
 682,0.00010171,0.00065196,-0.00007141,0.00014004,-0.00004643,-0.000026
 14,0.00012176,-0.00004416,-0.00001995,0.00000746,0.00019251,-0.0000709
 3,0.00005109,-0.00004841,-0.00007003,0.00032618,-0.00015520,0.00016280
 ,-0.00003102,-0.00063752,-0.00041600,-0.00018209,-0.00033544,-0.003209
 78,0.00575272,0.00994800,-0.06578463,0.12186917,0.22609111,-0.00036949
 ,0.00025904,0.00003065,0.00108246,-0.00056674,0.00005158,-0.00007672,0
 .00141101,-0.00127512,-0.00917480,-0.00338576,-0.00421201,-0.00068918,
 0.00129648,0.00045178,0.00012659,0.00004140,0.00008791,-0.00016956,0.0
 0062670,0.00192291,-0.00173436,-0.00302660,0.00211607,-0.01394304,-0.0
 0378820,-0.00941856,-0.24891323,-0.06046558,-0.09599097,0.00672819,0.0
 0174746,0.00304561,-0.00011905,0.00003387,0.00011265,-0.00052929,0.000
 15118,0.00022248,0.00148858,0.00031747,0.00030431,-0.00010827,-0.00007
 266,-0.00043162,0.00004561,-0.00004407,-0.00011542,0.00003141,-0.00003
 646,0.00006487,0.00000019,0.00002460,-0.00009259,0.00049709,0.00009768
 ,-0.00010793,-0.00101769,0.00008057,-0.00086137,0.00072691,-0.00024873
 ,0.00017173,0.00013353,0.00047850,0.00027950,0.26570991,-0.00008446,0.
 00072808,0.00004616,-0.00026913,-0.00155755,-0.00003497,0.00077063,-0.
 00156433,0.00208129,0.02211522,0.00401391,0.01092741,0.00154533,-0.001
 89534,-0.00007139,-0.00018893,-0.00050113,0.00011543,-0.00087883,-0.00
 377718,-0.00230728,-0.00188971,-0.00145778,0.00024577,-0.00896793,-0.0
 0308279,-0.00693180,-0.05929886,-0.06638417,-0.02879588,-0.01923286,-0
 .00369749,-0.00585269,-0.00000987,-0.00003993,-0.00018249,0.00087436,-
 0.00017684,-0.00041887,0.00038633,0.00147310,0.00009163,0.00007989,0.0
 0006048,0.00082852,-0.00018796,0.00004997,0.00008417,-0.00003048,0.000
 14016,-0.00011580,0.00004180,0.00013221,-0.00000644,-0.00140542,-0.000
 00512,-0.00056510,-0.00066590,0.00006677,-0.00042648,0.00031311,0.0001
 5182,-0.00041352,0.00018355,0.00039960,0.00030698,0.06627582,0.0758037
 3,0.00006442,-0.00037651,-0.00013524,-0.00027640,0.00087663,-0.0000202
 2,0.00010789,0.00052097,-0.00100294,-0.00916678,-0.00274690,-0.0042307
 0,-0.00081542,0.00133907,-0.00010739,0.00048679,-0.00003495,0.00075113
 ,0.00093800,-0.00469329,-0.00309923,0.00349400,0.00269749,-0.00252031,
 0.01923308,0.00535278,0.01190944,-0.09652533,-0.02932683,-0.09595253,-
 0.02075127,-0.00422543,-0.00782546,0.00004034,-0.00003013,0.00006252,-
 0.00035815,-0.00003925,0.00012836,0.00025561,0.00007161,0.00106932,-0.
 00002129,0.00006889,-0.00058194,0.00014236,0.00000632,-0.00016446,-0.0
 0003175,0.00015631,-0.00000532,0.00003190,-0.00005888,0.00005553,-0.00
 173436,0.00005838,-0.00037743,0.00114715,0.00014158,0.00118578,-0.0010
 0392,-0.00044496,0.00058208,-0.00066282,-0.00081286,0.00040630,0.10456
 817,0.03062497,0.09885689,0.00016770,-0.00006327,-0.00001778,-0.000097
 30,0.00001596,-0.00013532,0.00007244,-0.00018282,0.00002268,0.00107229
 ,-0.00009675,0.00011928,-0.00053232,-0.00111116,0.00045270,-0.00636444
 ,-0.00101287,0.00041399,-0.00960680,0.02542383,-0.01366592,0.00025922,
 -0.00043872,-0.00062898,-0.00012597,0.00134141,0.00037844,-0.00026640,
 -0.00057464,0.00116159,-0.08748081,0.08053903,-0.03895602,0.00000055,0
 .00002284,0.00003118,0.00006668,-0.00002853,-0.00002617,-0.00009326,0.
 00001485,0.00004866,0.00026087,0.00001692,-0.00006929,0.00051691,0.000
 07884,-0.00023269,-0.00033516,0.00136575,-0.00155984,0.00003132,-0.000
 10326,-0.00014664,0.00186086,-0.00044657,0.00013248,-0.00022431,0.0000
 6217,0.00020658,0.00015527,0.00016386,0.00121331,-0.00000394,-0.000409
 61,-0.00003560,0.00011111,0.00002607,0.00056255,0.09280699,0.00021878,
 0.00030312,0.00005686,-0.00030035,-0.00074335,-0.00020676,0.00001695,-
 0.00066460,0.00066085,-0.00038939,-0.00131697,-0.00400782,-0.00022337,
 0.00015765,-0.00055232,-0.00170239,0.00029874,-0.00031406,-0.00339094,
 0.00644840,-0.00376660,0.00026257,0.00017974,-0.00019327,-0.00052317,-
 0.00007478,0.00253241,0.01060478,-0.02101190,0.01024452,0.08177205,-0.
 22358085,0.09184440,0.00003279,-0.00001457,-0.00011059,0.00039361,0.00
 000309,-0.00022925,0.00052511,-0.00083845,0.00028669,0.00013057,0.0000
 0454,0.00005498,0.00011735,0.00014534,-0.00015713,-0.00023229,0.000379
 13,-0.00038423,0.00003669,0.00005892,0.00001104,0.00082589,0.00096387,
 -0.00005849,0.00003585,0.00005490,0.00000511,0.00004178,0.00146361,-0.
 00061604,-0.00068525,0.00051232,-0.00018510,-0.00066964,0.00045754,0.0
 0014220,-0.08918355,0.24301526,0.00001133,0.00020247,0.00005937,-0.000
 14400,-0.00054784,-0.00011984,0.00029290,-0.00073204,0.00070959,0.0004
 8187,-0.00216308,-0.00377721,0.00018801,0.00011775,-0.00062834,-0.0029
 3012,-0.00021070,0.00072490,-0.00272195,0.00734597,-0.00505530,-0.0001
 1552,0.00021246,-0.00016374,0.00088636,-0.00235121,-0.00014780,0.01038
 194,-0.01874387,0.00808583,-0.04011045,0.09405675,-0.09648246,-0.00008
 525,0.00002554,0.00003336,0.00039142,-0.00007945,-0.00008393,0.0003412
 8,-0.00055017,0.00027287,-0.00018530,0.00005772,0.00018550,-0.00043317
 ,-0.00016212,0.00027958,-0.00033606,0.00066642,-0.00055485,0.00017696,
 -0.00002810,0.00015830,0.00031576,-0.00019527,0.00031524,-0.00004645,0
 .00002287,0.00012764,0.00067876,-0.00054334,-0.00097258,-0.00015893,-0
 .00008545,0.00031192,-0.00040483,0.00077408,0.00082715,0.04344111,-0.0
 9872958,0.10656037,-0.00075273,0.00082015,-0.00044095,0.00032002,-0.00
 201773,0.00119439,-0.00012610,0.00018218,-0.00030432,0.00008555,-0.000
 22588,0.00059520,-0.00047868,0.00043457,0.00056913,0.00025401,-0.00076
 975,0.00126892,-0.01495532,-0.00485066,0.02336967,-0.00467191,0.000364
 01,-0.00001626,-0.00072321,-0.00041589,-0.00113487,0.00024666,0.001107
 30,-0.00265709,-0.13034960,-0.03320568,0.11587942,0.00008276,0.0000047
 6,-0.00005559,0.00000378,0.00013009,0.00000369,-0.00003240,0.00004517,
 -0.00011650,0.00042239,-0.00015780,-0.00026104,0.00085254,0.00107133,-
 0.00051789,0.00043741,-0.00029383,-0.00008695,-0.00022457,0.00003907,-
 0.00079531,-0.00049477,-0.00034720,-0.00028949,-0.00043593,0.00031592,
 0.00077907,0.00000924,-0.00049412,0.00003040,0.00061379,-0.00006429,0.
 00010561,0.00016308,0.00049824,0.00027518,0.00774851,0.00228555,-0.009
 91568,0.14200547,-0.00014312,0.00003143,-0.00001404,0.00014764,-0.0001
 0423,0.00007233,-0.00011663,0.00014143,0.00005024,-0.00020305,0.001105
 95,0.00048509,0.00164436,-0.00172322,0.00041086,0.00091479,0.00015766,
 0.00034153,-0.00219668,-0.00187265,0.00378820,-0.00030757,0.00027272,-
 0.00140834,0.00119759,-0.00345088,-0.00296959,0.01383037,0.00864120,-0
 .01651459,-0.03579684,-0.06590448,0.05196959,-0.00008477,0.00004888,0.
 00006899,-0.00002217,0.00000867,0.00001218,-0.00002717,0.00002521,-0.0
 0006422,-0.00011962,0.00008171,-0.00001698,0.00119780,-0.00214629,0.00
 122465,-0.00011401,-0.00016279,-0.00009135,-0.00006894,-0.00001936,-0.
 00013160,-0.00021795,-0.00015806,-0.00004111,0.00010293,0.00000032,0.0
 0005763,-0.00023340,0.00032791,-0.00038150,0.00102904,0.00103146,-0.00
 092944,-0.00053734,0.00066227,0.00073278,-0.01541976,-0.00620068,0.021
 64017,0.03554450,0.06920582,0.00004482,0.00001245,-0.00011730,-0.00027
 192,-0.00011698,0.00038130,-0.00005462,0.00002247,0.00003066,-0.000503
 82,0.00078397,-0.00002918,-0.00020484,0.00156179,-0.00079163,-0.000218
 50,0.00077028,0.00068217,-0.00556546,-0.00240316,0.00834395,-0.0025660
 6,0.00014834,-0.00023652,0.00091129,-0.00409128,-0.00394141,0.01092423
 ,0.00802818,-0.01405961,0.11822582,0.04931632,-0.21518673,-0.00008084,
 0.00006867,0.00007670,0.00008437,-0.00004084,0.00007745,0.00004404,-0.
 00016275,0.00001750,-0.00048820,0.00001072,0.00030097,-0.00142441,0.00
 107573,0.00069922,0.00004772,-0.00014766,0.00017970,0.00015689,-0.0002
 7066,0.00016769,0.00030059,-0.00014180,-0.00008838,0.00004007,0.000053
 42,0.00023970,-0.00020918,-0.00045468,0.00042342,0.00151687,0.00060046
 ,-0.00062330,-0.00051980,-0.00000370,0.00018866,0.00728970,0.00367218,
 -0.01066560,-0.12747875,-0.05829149,0.23393058\\-0.00004085,0.00001159
 ,-0.00002594,0.00001265,0.00004529,-0.00000013,-0.00003549,0.00003156,
 -0.00002123,-0.00000267,-0.00003891,-0.00000188,0.00000916,0.00002936,
 0.00000749,-0.00001459,-0.00002476,0.00005463,0.00002718,0.00000526,-0
 .00004379,0.00002008,0.00001459,0.00003959,0.00003162,-0.00001625,-0.0
 0006433,-0.00004410,-0.00001610,0.00000597,-0.00000454,0.00002509,0.00
 001589,0.00000743,-0.00000592,0.00000609,0.00000172,-0.00000598,0.0000
 0509,0.00000694,-0.00000427,-0.00000620,0.00000714,0.00000242,0.000004
 35,-0.00000694,0.00000048,-0.00000011,-0.00000326,-0.00001009,0.000001
 97,0.00000667,-0.00001170,0.00000582,-0.00000736,-0.00001412,0.0000119
 8,-0.00001077,-0.00000402,0.00000153,0.00001659,-0.00001581,-0.0000095
 4,0.00001025,0.00000398,-0.00000231,0.00000576,0.00000319,0.00000842,0
 .00000171,-0.00000808,0.00000032,0.00000568,0.00000321,0.00000628\\\@


 DO YOU KNOW THAT THE LETTERS IN "EPISCOPAL", WHEN
 REARRANGED, SPELL "PEPSI COLA"?
 Job cpu time:       0 days  0 hours  2 minutes 33.8 seconds.
 Elapsed time:       0 days  0 hours 49 minutes 34.1 seconds.
 File lengths (MBytes):  RWF=    115 Int=      0 D2E=      0 Chk=      5 Scr=      1
 Normal termination of Gaussian 16 at Thu Feb 22 03:15:11 2024.
