 Entering Gaussian System, Link 0=g16
 Input=/Volumes/SSD-PMU3/b3lyp_6-31gd_freq/YKFKEYKJGVSEIX-BAUXJJEQSA-N_calculating/gaussianinput0.gjf
 Output=/Volumes/SSD-PMU3/b3lyp_6-31gd_freq/YKFKEYKJGVSEIX-BAUXJJEQSA-N_calculating/gaussianinput0.log
 Initial command:
 /Applications/g16/l1.exe "/Users/macmini_m1_2022/PycharmProjects/sphere_model/sphere_model_lib/Gau-61279.inp" -scrdir="/Users/macmini_m1_2022/PycharmProjects/sphere_model/sphere_model_lib/"
 Entering Link 1 = /Applications/g16/l1.exe PID=     61280.
  
 Copyright (c) 1988,1990,1992,1993,1995,1998,2003,2009,2016,
            Gaussian, Inc.  All Rights Reserved.
  
 This is part of the Gaussian(R) 16 program.  It is based on
 the Gaussian(R) 09 system (copyright 2009, Gaussian, Inc.),
 the Gaussian(R) 03 system (copyright 2003, Gaussian, Inc.),
 the Gaussian(R) 98 system (copyright 1998, Gaussian, Inc.),
 the Gaussian(R) 94 system (copyright 1995, Gaussian, Inc.),
 the Gaussian 92(TM) system (copyright 1992, Gaussian, Inc.),
 the Gaussian 90(TM) system (copyright 1990, Gaussian, Inc.),
 the Gaussian 88(TM) system (copyright 1988, Gaussian, Inc.),
 the Gaussian 86(TM) system (copyright 1986, Carnegie Mellon
 University), and the Gaussian 82(TM) system (copyright 1983,
 Carnegie Mellon University). Gaussian is a federally registered
 trademark of Gaussian, Inc.
  
 This software contains proprietary and confidential information,
 including trade secrets, belonging to Gaussian, Inc.
  
 This software is provided under written license and may be
 used, copied, transmitted, or stored only in accord with that
 written license.
  
 The following legend is applicable only to US Government
 contracts under FAR:
  
                    RESTRICTED RIGHTS LEGEND
  
 Use, reproduction and disclosure by the US Government is
 subject to restrictions as set forth in subparagraphs (a)
 and (c) of the Commercial Computer Software - Restricted
 Rights clause in FAR 52.227-19.
  
 Gaussian, Inc.
 340 Quinnipiac St., Bldg. 40, Wallingford CT 06492
  
  
 ---------------------------------------------------------------
 Warning -- This program may not be used in any manner that
 competes with the business of Gaussian, Inc. or will provide
 assistance to any competitor of Gaussian, Inc.  The licensee
 of this program is prohibited from giving any competitor of
 Gaussian, Inc. access to this program.  By using this program,
 the user acknowledges that Gaussian, Inc. is engaged in the
 business of creating and licensing software in the field of
 computational chemistry and represents and warrants to the
 licensee that it is not a competitor of Gaussian, Inc. and that
 it will not use this program in any manner prohibited above.
 ---------------------------------------------------------------
  

 Cite this work as:
 Gaussian 16, Revision A.03,
 M. J. Frisch, G. W. Trucks, H. B. Schlegel, G. E. Scuseria, 
 M. A. Robb, J. R. Cheeseman, G. Scalmani, V. Barone, 
 G. A. Petersson, H. Nakatsuji, X. Li, M. Caricato, A. V. Marenich, 
 J. Bloino, B. G. Janesko, R. Gomperts, B. Mennucci, H. P. Hratchian, 
 J. V. Ortiz, A. F. Izmaylov, J. L. Sonnenberg, D. Williams-Young, 
 F. Ding, F. Lipparini, F. Egidi, J. Goings, B. Peng, A. Petrone, 
 T. Henderson, D. Ranasinghe, V. G. Zakrzewski, J. Gao, N. Rega, 
 G. Zheng, W. Liang, M. Hada, M. Ehara, K. Toyota, R. Fukuda, 
 J. Hasegawa, M. Ishida, T. Nakajima, Y. Honda, O. Kitao, H. Nakai, 
 T. Vreven, K. Throssell, J. A. Montgomery, Jr., J. E. Peralta, 
 F. Ogliaro, M. J. Bearpark, J. J. Heyd, E. N. Brothers, K. N. Kudin, 
 V. N. Staroverov, T. A. Keith, R. Kobayashi, J. Normand, 
 K. Raghavachari, A. P. Rendell, J. C. Burant, S. S. Iyengar, 
 J. Tomasi, M. Cossi, J. M. Millam, M. Klene, C. Adamo, R. Cammi, 
 J. W. Ochterski, R. L. Martin, K. Morokuma, O. Farkas, 
 J. B. Foresman, and D. J. Fox, Gaussian, Inc., Wallingford CT, 2016.
 
 ******************************************
 Gaussian 16:  EM64M-G16RevA.03 25-Dec-2016
                22-Feb-2024 
 ******************************************
 %nprocshared=8
 Will use up to    8 processors via shared memory.
 %mem=8GB
 %chk= 0.chk
 ---------------------
 # freq b3lyp/6-31g(d)
 ---------------------
 1/10=4,30=1,38=1/1,3;
 2/12=2,17=6,18=5,40=1/2;
 3/5=1,6=6,7=1,11=2,25=1,30=1,71=2,74=-5,140=1/1,2,3;
 4//1;
 5/5=2,38=5,98=1/2;
 8/6=4,10=90,11=11/1;
 11/6=1,8=1,9=11,15=111,16=1/1,2,10;
 10/6=1/2;
 6/7=2,8=2,9=2,10=2,28=1/1;
 7/8=1,10=1,25=1/1,2,3,16;
 1/10=4,30=1/3;
 99//99;
 ---------
 good luck
 ---------
 Symbolic Z-matrix:
 Charge =  0 Multiplicity = 1
 O                     1.21651   0.        0. 
 C                     0.        0.        0. 
 C                    -0.82287  -1.27964  -0.00028 
 C                    -1.93784  -1.25425  -1.0672 
 C                    -2.83225   0.       -0.95076 
 C                    -4.06947   0.       -1.91676 
 C                    -4.94322   1.24471  -1.64537 
 C                    -3.65529   0.       -3.40288 
 C                    -4.94322  -1.24471  -1.64537 
 C                    -1.93784   1.25425  -1.0672 
 C                    -0.82287   1.27964  -0.00028 
 H                    -1.28303  -1.3787    0.99525 
 H                    -0.14829  -2.13011  -0.13767 
 H                    -2.529    -2.17019  -0.97091 
 H                    -1.47385  -1.28475  -2.06218 
 H                    -3.25438   0.        0.06881 
 H                    -5.87142   1.19105  -2.2265 
 H                    -5.21955   1.31435  -0.58552 
 H                    -4.44105   2.1765   -1.92482 
 H                    -3.06657   0.88616  -3.66493 
 H                    -3.06657  -0.88615  -3.66493 
 H                    -4.5461    0.       -4.04256 
 H                    -4.44105  -2.1765   -1.92482 
 H                    -5.21955  -1.31436  -0.58552 
 H                    -5.87142  -1.19105  -2.2265 
 H                    -1.47385   1.28475  -2.06218 
 H                    -2.52899   2.17019  -0.97091 
 H                    -1.28303   1.3787    0.99525 
 H                    -0.14829   2.13011  -0.13767 
 

 GradGradGradGradGradGradGradGradGradGradGradGradGradGradGradGradGradGrad
 Berny optimization.
 Initialization pass.
 Trust Radius=3.00D-01 FncErr=1.00D-07 GrdErr=1.00D-07 EigMax=2.50D+02 EigMin=1.00D-04
 Number of steps in this run=      2 maximum allowed number of steps=      2.
 GradGradGradGradGradGradGradGradGradGradGradGradGradGradGradGradGradGrad

                          Input orientation:                          
 ---------------------------------------------------------------------
 Center     Atomic      Atomic             Coordinates (Angstroms)
 Number     Number       Type             X           Y           Z
 ---------------------------------------------------------------------
      1          8           0        1.216512    0.000000    0.000000
      2          6           0        0.000000    0.000000    0.000000
      3          6           0       -0.822869   -1.279636   -0.000276
      4          6           0       -1.937842   -1.254252   -1.067205
      5          6           0       -2.832246    0.000000   -0.950760
      6          6           0       -4.069471    0.000001   -1.916760
      7          6           0       -4.943225    1.244705   -1.645365
      8          6           0       -3.655285    0.000002   -3.402876
      9          6           0       -4.943224   -1.244705   -1.645367
     10          6           0       -1.937842    1.254252   -1.067205
     11          6           0       -0.822869    1.279636   -0.000276
     12          1           0       -1.283025   -1.378697    0.995250
     13          1           0       -0.148290   -2.130106   -0.137667
     14          1           0       -2.528995   -2.170188   -0.970911
     15          1           0       -1.473848   -1.284750   -2.062184
     16          1           0       -3.254380    0.000001    0.068813
     17          1           0       -5.871420    1.191050   -2.226498
     18          1           0       -5.219549    1.314354   -0.585521
     19          1           0       -4.441049    2.176502   -1.924818
     20          1           0       -3.066573    0.886156   -3.664927
     21          1           0       -3.066572   -0.886151   -3.664928
     22          1           0       -4.546096    0.000002   -4.042564
     23          1           0       -4.441046   -2.176502   -1.924821
     24          1           0       -5.219549   -1.314356   -0.585523
     25          1           0       -5.871418   -1.191051   -2.226500
     26          1           0       -1.473848    1.284750   -2.062184
     27          1           0       -2.528994    2.170188   -0.970910
     28          1           0       -1.283025    1.378698    0.995250
     29          1           0       -0.148289    2.130107   -0.137667
 ---------------------------------------------------------------------
                    Distance matrix (angstroms):
                    1          2          3          4          5
     1  O    0.000000
     2  C    1.216512   0.000000
     3  C    2.407601   1.521375   0.000000
     4  C    3.558374   2.543090   1.543420   0.000000
     5  C    4.158892   2.987568   2.564856   1.544884   0.000000
     6  C    5.622774   4.498284   3.981307   2.615098   1.569676
     7  C    6.496066   5.356490   5.104503   3.951124   2.547155
     8  C    5.942556   4.994064   4.608442   3.158817   2.586555
     9  C    6.496066   5.356490   4.436763   3.060504   2.547155
    10  C    3.558374   2.543090   2.966832   2.508504   1.544884
    11  C    2.407601   1.521375   2.559272   2.966832   2.564856
    12  H    3.023080   2.130136   1.101194   2.167485   2.843914
    13  H    2.533572   2.139695   1.094181   2.198558   3.521660
    14  H    4.436351   3.471052   2.155477   1.094383   2.191366
    15  H    3.625082   2.841727   2.162236   1.098273   2.175107
    16  H    4.471422   3.255107   2.748543   2.144052   1.103506
    17  H    7.524272   6.391359   6.045512   4.774568   3.504666
    18  H    6.594941   5.414245   5.138296   4.195159   2.749571
    19  H    6.360038   5.307071   5.360968   4.332623   2.876490
    20  H    5.706293   4.860127   4.811915   3.550146   2.864766
    21  H    5.706292   4.860126   4.314940   2.856168   2.864765
    22  H    7.039174   6.083528   5.642693   4.150771   3.535044
    23  H    6.360036   5.307069   4.195169   2.802156   2.876490
    24  H    6.594941   5.414246   4.435596   3.317413   2.749572
    25  H    7.524271   6.391358   5.518312   4.101339   3.504666
    26  H    3.625082   2.841727   3.354298   2.766190   2.175107
    27  H    4.436350   3.471051   3.969166   3.476424   2.191366
    28  H    3.023081   2.130137   2.875683   3.408069   2.843914
    29  H    2.533573   2.139696   3.478546   3.939597   3.521662
                    6          7          8          9         10
     6  C    0.000000
     7  C    1.544794   0.000000
     8  C    1.542754   2.509366   0.000000
     9  C    1.544795   2.489410   2.509367   0.000000
    10  C    2.615097   3.060504   3.158815   3.951124   0.000000
    11  C    3.981306   4.436764   4.608441   5.104503   1.543420
    12  H    4.259682   5.220359   5.183815   4.515293   3.408068
    13  H    4.803976   6.054247   5.243850   5.103772   3.939596
    14  H    2.824432   4.236141   3.448581   2.672061   3.476424
    15  H    2.899826   4.313752   2.864736   3.494554   2.766190
    16  H    2.146363   2.709223   3.494760   2.709225   2.144051
    17  H    2.182099   1.096422   2.777358   2.670611   4.101340
    18  H    2.195996   1.097486   3.480220   2.783597   3.317414
    19  H    2.208006   1.094770   2.745766   3.469140   2.802158
    20  H    2.201627   2.780110   1.095683   3.484395   2.856167
    21  H    2.201627   3.484395   1.095683   2.780110   3.550144
    22  H    2.178581   2.730121   1.096697   2.730121   4.150770
    23  H    2.208008   3.469141   2.745767   1.094771   4.332621
    24  H    2.195998   2.783597   3.480221   1.097486   4.195160
    25  H    2.182099   2.670612   2.777357   1.096421   4.774567
    26  H    2.899825   3.494556   2.864734   4.313751   1.098273
    27  H    2.824431   2.672063   3.448579   4.236141   1.094382
    28  H    4.259682   4.515292   5.183814   5.220360   2.167485
    29  H    4.803977   5.103773   5.243850   6.054248   2.198559
                   11         12         13         14         15
    11  C    0.000000
    12  H    2.875683   0.000000
    13  H    3.478545   1.770802   0.000000
    14  H    3.969167   2.458595   2.522629   0.000000
    15  H    3.354298   3.064823   2.485055   1.757331   0.000000
    16  H    2.748542   2.577855   3.771974   2.513350   3.059743
    17  H    5.518313   6.167384   6.938841   4.903695   5.049280
    18  H    4.435596   5.024697   6.146751   4.419235   4.792301
    19  H    4.195171   5.580265   6.337867   4.843511   4.561076
    20  H    4.314939   5.479768   5.482315   4.109495   3.133431
    21  H    4.811913   5.014070   4.743982   3.032403   2.294437
    22  H    5.642692   6.158572   6.255100   4.267725   3.874429
    23  H    5.360967   4.374518   4.650143   2.136802   3.101347
    24  H    5.138298   4.242547   5.155937   2.849571   4.026373
    25  H    6.045512   5.609655   6.164352   3.702297   4.401636
    26  H    2.162236   4.059343   4.137887   3.773700   2.569500
    27  H    2.155476   4.244150   4.985436   4.340376   3.773700
    28  H    1.101194   2.757395   3.857827   4.244152   4.059344
    29  H    1.094183   3.857827   4.260213   4.985438   4.137888
                   16         17         18         19         20
    16  H    0.000000
    17  H    3.679123   0.000000
    18  H    2.453073   1.770013   0.000000
    19  H    3.181180   1.762977   1.772873   0.000000
    20  H    3.842051   3.166892   3.781719   2.565571   0.000000
    21  H    3.842051   3.775052   4.354340   3.781139   1.772307
    22  H    4.309519   2.544243   3.759283   3.038591   1.765465
    23  H    3.181182   3.671156   3.819145   4.353004   3.781140
    24  H    2.453075   3.065093   2.628710   3.819144   4.354341
    25  H    3.679124   2.382101   3.065094   3.671155   3.775052
    26  H    3.059742   4.401638   4.026374   3.101350   2.294436
    27  H    2.513348   3.702300   2.849572   2.136805   3.032401
    28  H    2.577854   5.609656   4.242546   4.374518   5.014069
    29  H    3.771974   6.164355   5.155939   4.650145   4.743981
                   21         22         23         24         25
    21  H    0.000000
    22  H    1.765465   0.000000
    23  H    2.565571   3.038592   0.000000
    24  H    3.781720   3.759283   1.772874   0.000000
    25  H    3.166891   2.544243   1.762977   1.770012   0.000000
    26  H    3.133428   3.874428   4.561074   4.792302   5.049278
    27  H    4.109493   4.267724   4.843511   4.419237   4.903696
    28  H    5.479766   6.158572   5.580265   5.024699   6.167385
    29  H    5.482313   6.255100   6.337867   6.146753   6.938841
                   26         27         28         29
    26  H    0.000000
    27  H    1.757331   0.000000
    28  H    3.064823   2.458593   0.000000
    29  H    2.485055   2.522629   1.770803   0.000000
 Stoichiometry    C10H18O
 Framework group  C1[X(C10H18O)]
 Deg. of freedom    81
 Full point group                 C1      NOp   1
 Largest Abelian subgroup         C1      NOp   1
 Largest concise Abelian subgroup C1      NOp   1
                         Standard orientation:                         
 ---------------------------------------------------------------------
 Center     Atomic      Atomic             Coordinates (Angstroms)
 Number     Number       Type             X           Y           Z
 ---------------------------------------------------------------------
      1          8           0        3.703041   -0.000000    0.470026
      2          6           0        2.596101   -0.000000   -0.034539
      3          6           0        1.847234    1.279636   -0.375584
      4          6           0        0.390165    1.254252    0.132796
      5          6           0       -0.375383    0.000000   -0.344127
      6          6           0       -1.901831   -0.000000    0.021709
      7          6           0       -2.584321   -1.244704   -0.587642
      8          6           0       -2.141338   -0.000001    1.545759
      9          6           0       -2.584321    1.244706   -0.587640
     10          6           0        0.390164   -1.254252    0.132796
     11          6           0        1.847234   -1.279636   -0.375584
     12          1           0        1.841433    1.378697   -1.472298
     13          1           0        2.404069    2.130106    0.029223
     14          1           0       -0.107803    2.170188   -0.200013
     15          1           0        0.399686    1.284750    1.230604
     16          1           0       -0.336613   -0.000001   -1.446952
     17          1           0       -3.669946   -1.191049   -0.443833
     18          1           0       -2.396172   -1.314353   -1.666634
     19          1           0       -2.243284   -2.176501   -0.125075
     20          1           0       -1.714341   -0.886156    2.028383
     21          1           0       -1.714340    0.886151    2.028384
     22          1           0       -3.217232   -0.000001    1.758354
     23          1           0       -2.243282    2.176503   -0.125071
     24          1           0       -2.396173    1.314357   -1.666632
     25          1           0       -3.669944    1.191052   -0.443831
     26          1           0        0.399685   -1.284750    1.230604
     27          1           0       -0.107803   -2.170188   -0.200014
     28          1           0        1.841432   -1.378698   -1.472298
     29          1           0        2.404069   -2.130107    0.029223
 ---------------------------------------------------------------------
 Rotational constants (GHZ):           2.1947575           0.6303280           0.5700703
 Standard basis: 6-31G(d) (6D, 7F)
 There are   201 symmetry adapted cartesian basis functions of A   symmetry.
 There are   201 symmetry adapted basis functions of A   symmetry.
   201 basis functions,   380 primitive gaussians,   201 cartesian basis functions
    43 alpha electrons       43 beta electrons
       nuclear repulsion energy       660.0652052668 Hartrees.
 NAtoms=   29 NActive=   29 NUniq=   29 SFac= 1.00D+00 NAtFMM=   60 NAOKFM=F Big=F
 Integral buffers will be    131072 words long.
 Raffenetti 2 integral format.
 Two-electron integral symmetry is turned on.
 One-electron integrals computed using PRISM.
 NBasis=   201 RedAO= T EigKep=  2.83D-03  NBF=   201
 NBsUse=   201 1.00D-06 EigRej= -1.00D+00 NBFU=   201
 ExpMin= 1.61D-01 ExpMax= 5.48D+03 ExpMxC= 8.25D+02 IAcc=3 IRadAn=         5 AccDes= 0.00D+00
 Harris functional with IExCor=  402 and IRadAn=       5 diagonalized for initial guess.
 HarFok:  IExCor=  402 AccDes= 0.00D+00 IRadAn=         5 IDoV= 1 UseB2=F ITyADJ=14
 ICtDFT=  3500011 ScaDFX=  1.000000  1.000000  1.000000  1.000000
 FoFCou: FMM=F IPFlag=           0 FMFlag=      100000 FMFlg1=           0
         NFxFlg=           0 DoJE=T BraDBF=F KetDBF=T FulRan=T
         wScrn=  0.000000 ICntrl=       500 IOpCl=  0 I1Cent=   200000004 NGrid=           0
         NMat0=    1 NMatS0=      1 NMatT0=    0 NMatD0=    1 NMtDS0=    0 NMtDT0=    0
 Petite list used in FoFCou.
 Requested convergence on RMS density matrix=1.00D-08 within 128 cycles.
 Requested convergence on MAX density matrix=1.00D-06.
 Requested convergence on             energy=1.00D-06.
 No special actions if energy rises.
 Integral accuracy reduced to 1.0D-05 until final iterations.
 Initial convergence to 1.0D-05 achieved.  Increase integral accuracy.
 SCF Done:  E(RB3LYP) =  -467.140097171     A.U. after   13 cycles
            NFock= 13  Conv=0.74D-08     -V/T= 2.0098
 DoSCS=F DFT=T ScalE2(SS,OS)=  1.000000  1.000000
 Range of M.O.s used for correlation:     1   201
 NBasis=   201 NAE=    43 NBE=    43 NFC=     0 NFV=     0
 NROrb=    201 NOA=    43 NOB=    43 NVA=   158 NVB=   158
 Symmetrizing basis deriv contribution to polar:
 IMax=3 JMax=2 DiffMx= 0.00D+00
 G2DrvN: will do    30 centers at a time, making    1 passes.
 Calling FoFCou, ICntrl=  3107 FMM=F I1Cent=   0 AccDes= 0.00D+00.
 End of G2Drv F.D. properties file   721 does not exist.
 End of G2Drv F.D. properties file   722 does not exist.
 End of G2Drv F.D. properties file   788 does not exist.
          IDoAtm=11111111111111111111111111111
          Differentiating once with respect to electric field.
                with respect to dipole field.
          Differentiating once with respect to nuclear coordinates.
 Keep R1 ints in memory in canonical form, NReq=214321477.
          There are    90 degrees of freedom in the 1st order CPHF.  IDoFFX=6 NUNeed=     3.
     87 vectors produced by pass  0 Test12= 7.55D-15 1.11D-09 XBig12= 7.72D+01 2.49D+00.
 AX will form    87 AO Fock derivatives at one time.
     87 vectors produced by pass  1 Test12= 7.55D-15 1.11D-09 XBig12= 1.15D+01 1.08D+00.
     87 vectors produced by pass  2 Test12= 7.55D-15 1.11D-09 XBig12= 9.22D-02 4.12D-02.
     87 vectors produced by pass  3 Test12= 7.55D-15 1.11D-09 XBig12= 2.65D-04 2.39D-03.
     87 vectors produced by pass  4 Test12= 7.55D-15 1.11D-09 XBig12= 2.69D-07 5.95D-05.
     39 vectors produced by pass  5 Test12= 7.55D-15 1.11D-09 XBig12= 1.40D-10 1.08D-06.
      4 vectors produced by pass  6 Test12= 7.55D-15 1.11D-09 XBig12= 7.60D-14 2.91D-08.
 InvSVY:  IOpt=1 It=  1 EMax= 1.78D-15
 Solved reduced A of dimension   478 with    90 vectors.
 Isotropic polarizability for W=    0.000000      103.69 Bohr**3.
 End of Minotr F.D. properties file   721 does not exist.
 End of Minotr F.D. properties file   722 does not exist.
 End of Minotr F.D. properties file   788 does not exist.

 **********************************************************************

            Population analysis using the SCF density.

 **********************************************************************

 Orbital symmetries:
       Occupied  (A) (A) (A) (A) (A) (A) (A) (A) (A) (A) (A) (A)
                 (A) (A) (A) (A) (A) (A) (A) (A) (A) (A) (A) (A)
                 (A) (A) (A) (A) (A) (A) (A) (A) (A) (A) (A) (A)
                 (A) (A) (A) (A) (A) (A) (A)
       Virtual   (A) (A) (A) (A) (A) (A) (A) (A) (A) (A) (A) (A)
                 (A) (A) (A) (A) (A) (A) (A) (A) (A) (A) (A) (A)
                 (A) (A) (A) (A) (A) (A) (A) (A) (A) (A) (A) (A)
                 (A) (A) (A) (A) (A) (A) (A) (A) (A) (A) (A) (A)
                 (A) (A) (A) (A) (A) (A) (A) (A) (A) (A) (A) (A)
                 (A) (A) (A) (A) (A) (A) (A) (A) (A) (A) (A) (A)
                 (A) (A) (A) (A) (A) (A) (A) (A) (A) (A) (A) (A)
                 (A) (A) (A) (A) (A) (A) (A) (A) (A) (A) (A) (A)
                 (A) (A) (A) (A) (A) (A) (A) (A) (A) (A) (A) (A)
                 (A) (A) (A) (A) (A) (A) (A) (A) (A) (A) (A) (A)
                 (A) (A) (A) (A) (A) (A) (A) (A) (A) (A) (A) (A)
                 (A) (A) (A) (A) (A) (A) (A) (A) (A) (A) (A) (A)
                 (A) (A) (A) (A) (A) (A) (A) (A) (A) (A) (A) (A)
                 (A) (A)
 The electronic state is 1-A.
 Alpha  occ. eigenvalues --  -19.13091 -10.26654 -10.20283 -10.19472 -10.19056
 Alpha  occ. eigenvalues --  -10.19054 -10.18928 -10.18927 -10.17578 -10.17578
 Alpha  occ. eigenvalues --  -10.17559  -1.02956  -0.84484  -0.80022  -0.75377
 Alpha  occ. eigenvalues --   -0.71355  -0.68696  -0.68603  -0.62400  -0.60324
 Alpha  occ. eigenvalues --   -0.53728  -0.52772  -0.47521  -0.45789  -0.45014
 Alpha  occ. eigenvalues --   -0.44539  -0.44111  -0.42957  -0.41960  -0.41375
 Alpha  occ. eigenvalues --   -0.39252  -0.38404  -0.37706  -0.37437  -0.36660
 Alpha  occ. eigenvalues --   -0.35332  -0.34679  -0.34335  -0.33556  -0.31646
 Alpha  occ. eigenvalues --   -0.30604  -0.30426  -0.23300
 Alpha virt. eigenvalues --   -0.01103   0.07527   0.09714   0.10729   0.11607
 Alpha virt. eigenvalues --    0.12272   0.12652   0.13830   0.15264   0.15275
 Alpha virt. eigenvalues --    0.16180   0.16181   0.16592   0.17521   0.19056
 Alpha virt. eigenvalues --    0.19477   0.20123   0.21089   0.21917   0.22467
 Alpha virt. eigenvalues --    0.22896   0.23955   0.25161   0.25716   0.26950
 Alpha virt. eigenvalues --    0.27136   0.28492   0.29493   0.32437   0.36423
 Alpha virt. eigenvalues --    0.49194   0.50002   0.50409   0.50820   0.52731
 Alpha virt. eigenvalues --    0.54041   0.56487   0.56573   0.59173   0.60211
 Alpha virt. eigenvalues --    0.61524   0.63216   0.64332   0.67144   0.68106
 Alpha virt. eigenvalues --    0.69823   0.70597   0.70947   0.73023   0.73930
 Alpha virt. eigenvalues --    0.74735   0.76725   0.79747   0.81105   0.83829
 Alpha virt. eigenvalues --    0.84970   0.85763   0.87223   0.87566   0.87956
 Alpha virt. eigenvalues --    0.88786   0.90130   0.90411   0.91660   0.91827
 Alpha virt. eigenvalues --    0.92137   0.92287   0.93474   0.94785   0.94881
 Alpha virt. eigenvalues --    0.96221   0.98219   0.98758   0.99620   1.01123
 Alpha virt. eigenvalues --    1.01379   1.02321   1.04575   1.06588   1.11248
 Alpha virt. eigenvalues --    1.13523   1.21439   1.24526   1.31546   1.35392
 Alpha virt. eigenvalues --    1.38391   1.38852   1.46606   1.47564   1.48942
 Alpha virt. eigenvalues --    1.52563   1.56504   1.59913   1.61537   1.67075
 Alpha virt. eigenvalues --    1.70315   1.71460   1.73280   1.76990   1.77245
 Alpha virt. eigenvalues --    1.79428   1.81751   1.82795   1.85198   1.86920
 Alpha virt. eigenvalues --    1.87561   1.88529   1.92121   1.93826   1.94486
 Alpha virt. eigenvalues --    1.97068   2.01084   2.01933   2.03204   2.04744
 Alpha virt. eigenvalues --    2.04904   2.07980   2.10242   2.10563   2.17293
 Alpha virt. eigenvalues --    2.17603   2.18377   2.25594   2.26479   2.26875
 Alpha virt. eigenvalues --    2.27194   2.28550   2.29202   2.34123   2.37341
 Alpha virt. eigenvalues --    2.40231   2.41413   2.43368   2.49861   2.52144
 Alpha virt. eigenvalues --    2.53382   2.59827   2.62365   2.62816   2.66555
 Alpha virt. eigenvalues --    2.72722   2.77366   2.78355   2.81353   2.84797
 Alpha virt. eigenvalues --    2.98376   3.02408   4.00033   4.11005   4.20338
 Alpha virt. eigenvalues --    4.26517   4.30319   4.30960   4.33483   4.56479
 Alpha virt. eigenvalues --    4.56916   4.58841   4.70511
          Condensed to atoms (all electrons):
               1          2          3          4          5          6
     1  O    7.997179   0.592893  -0.078990   0.001395   0.000087   0.000001
     2  C    0.592893   4.462459   0.328194  -0.021485  -0.014836   0.000295
     3  C   -0.078990   0.328194   5.325880   0.321060  -0.033037   0.003429
     4  C    0.001395  -0.021485   0.321060   5.087021   0.374446  -0.033331
     5  C    0.000087  -0.014836  -0.033037   0.374446   4.964446   0.381531
     6  C    0.000001   0.000295   0.003429  -0.033331   0.381531   4.751656
     7  C   -0.000000  -0.000007  -0.000119   0.004442  -0.050106   0.380615
     8  C   -0.000000  -0.000031   0.000174  -0.007561  -0.051291   0.382531
     9  C   -0.000000  -0.000007   0.000147  -0.006963  -0.050106   0.380614
    10  C    0.001395  -0.021485  -0.001941  -0.049310   0.374446  -0.033331
    11  C   -0.078990   0.328194  -0.145686  -0.001941  -0.033037   0.003429
    12  H    0.001261  -0.028482   0.346875  -0.035739  -0.003849  -0.000012
    13  H    0.004664  -0.024177   0.343515  -0.025618   0.003521  -0.000095
    14  H   -0.000068   0.002946  -0.028192   0.365952  -0.031416  -0.006187
    15  H    0.000414  -0.003099  -0.042222   0.371066  -0.037313  -0.005512
    16  H   -0.000010  -0.002370  -0.002529  -0.053202   0.364445  -0.040021
    17  H   -0.000000   0.000000   0.000001  -0.000118   0.004902  -0.027953
    18  H   -0.000000  -0.000000  -0.000003   0.000030  -0.005456  -0.029900
    19  H   -0.000000  -0.000004  -0.000001  -0.000046  -0.005556  -0.027272
    20  H   -0.000000  -0.000002  -0.000010  -0.000031  -0.005692  -0.028460
    21  H   -0.000000  -0.000002  -0.000052   0.001978  -0.005692  -0.028460
    22  H    0.000000   0.000000  -0.000001   0.000068   0.005297  -0.029588
    23  H   -0.000000  -0.000004  -0.000062   0.000565  -0.005556  -0.027272
    24  H   -0.000000  -0.000000  -0.000054  -0.000563  -0.005456  -0.029900
    25  H   -0.000000   0.000000  -0.000000   0.000247   0.004902  -0.027953
    26  H    0.000414  -0.003099   0.000713  -0.007853  -0.037313  -0.005512
    27  H   -0.000068   0.002946  -0.000241   0.005433  -0.031416  -0.006187
    28  H    0.001261  -0.028482   0.003647  -0.001626  -0.003849  -0.000012
    29  H    0.004664  -0.024177   0.006920  -0.000204   0.003521  -0.000095
               7          8          9         10         11         12
     1  O   -0.000000  -0.000000  -0.000000   0.001395  -0.078990   0.001261
     2  C   -0.000007  -0.000031  -0.000007  -0.021485   0.328194  -0.028482
     3  C   -0.000119   0.000174   0.000147  -0.001941  -0.145686   0.346875
     4  C    0.004442  -0.007561  -0.006963  -0.049310  -0.001941  -0.035739
     5  C   -0.050106  -0.051291  -0.050106   0.374446  -0.033037  -0.003849
     6  C    0.380615   0.382531   0.380614  -0.033331   0.003429  -0.000012
     7  C    5.168793  -0.063762  -0.063363  -0.006963   0.000147  -0.000004
     8  C   -0.063762   5.161044  -0.063762  -0.007562   0.000174   0.000003
     9  C   -0.063363  -0.063762   5.168793   0.004442  -0.000119  -0.000013
    10  C   -0.006963  -0.007562   0.004442   5.087021   0.321060  -0.001626
    11  C    0.000147   0.000174  -0.000119   0.321060   5.325881   0.003647
    12  H   -0.000004   0.000003  -0.000013  -0.001626   0.003647   0.586051
    13  H    0.000001   0.000002  -0.000000  -0.000204   0.006920  -0.026752
    14  H    0.000071  -0.000302   0.003171   0.005433  -0.000241  -0.006410
    15  H    0.000017   0.002626  -0.000363  -0.007853   0.000713   0.005730
    16  H   -0.007152   0.006316  -0.007152  -0.053202  -0.002529   0.005609
    17  H    0.365033  -0.004121  -0.006942   0.000247  -0.000000   0.000000
    18  H    0.365374   0.005838  -0.004030  -0.000563  -0.000054   0.000000
    19  H    0.366337  -0.005050   0.005729   0.000565  -0.000062   0.000000
    20  H   -0.004777   0.367371   0.005621   0.001978  -0.000052  -0.000000
    21  H    0.005621   0.367371  -0.004777  -0.000031  -0.000010  -0.000000
    22  H   -0.005170   0.367481  -0.005170   0.000068  -0.000001   0.000000
    23  H    0.005729  -0.005050   0.366337  -0.000046  -0.000001   0.000006
    24  H   -0.004030   0.005838   0.365374   0.000030  -0.000003   0.000014
    25  H   -0.006942  -0.004121   0.365033  -0.000118   0.000001  -0.000000
    26  H   -0.000363   0.002626   0.000017   0.371066  -0.042222   0.000101
    27  H    0.003171  -0.000302   0.000071   0.365952  -0.028192  -0.000016
    28  H   -0.000013   0.000003  -0.000004  -0.035739   0.346875   0.001103
    29  H   -0.000000   0.000002   0.000001  -0.025618   0.343515  -0.000143
              13         14         15         16         17         18
     1  O    0.004664  -0.000068   0.000414  -0.000010  -0.000000  -0.000000
     2  C   -0.024177   0.002946  -0.003099  -0.002370   0.000000  -0.000000
     3  C    0.343515  -0.028192  -0.042222  -0.002529   0.000001  -0.000003
     4  C   -0.025618   0.365952   0.371066  -0.053202  -0.000118   0.000030
     5  C    0.003521  -0.031416  -0.037313   0.364445   0.004902  -0.005456
     6  C   -0.000095  -0.006187  -0.005512  -0.040021  -0.027953  -0.029900
     7  C    0.000001   0.000071   0.000017  -0.007152   0.365033   0.365374
     8  C    0.000002  -0.000302   0.002626   0.006316  -0.004121   0.005838
     9  C   -0.000000   0.003171  -0.000363  -0.007152  -0.006942  -0.004030
    10  C   -0.000204   0.005433  -0.007853  -0.053202   0.000247  -0.000563
    11  C    0.006920  -0.000241   0.000713  -0.002529  -0.000000  -0.000054
    12  H   -0.026752  -0.006410   0.005730   0.005609   0.000000   0.000000
    13  H    0.562304  -0.002429  -0.002953   0.000005  -0.000000   0.000000
    14  H   -0.002429   0.590044  -0.037580  -0.003884  -0.000003  -0.000009
    15  H   -0.002953  -0.037580   0.596325   0.006384   0.000002   0.000003
    16  H    0.000005  -0.003884   0.006384   0.659083  -0.000059   0.006036
    17  H   -0.000000  -0.000003   0.000002  -0.000059   0.580022  -0.030173
    18  H    0.000000  -0.000009   0.000003   0.006036  -0.030173   0.583334
    19  H    0.000000  -0.000002  -0.000002  -0.000104  -0.030163  -0.031546
    20  H    0.000000   0.000026   0.000035  -0.000034  -0.000158  -0.000038
    21  H    0.000005   0.000194   0.003248  -0.000034  -0.000080  -0.000191
    22  H   -0.000000  -0.000033  -0.000077  -0.000152   0.003950  -0.000037
    23  H    0.000003   0.003654   0.000297  -0.000104   0.000020  -0.000073
    24  H    0.000000   0.000514   0.000074   0.006036  -0.000100   0.003358
    25  H   -0.000000  -0.000111  -0.000030  -0.000059   0.005355  -0.000100
    26  H   -0.000044   0.000008   0.005071   0.006384  -0.000030   0.000074
    27  H    0.000017  -0.000183   0.000008  -0.003884  -0.000111   0.000514
    28  H   -0.000143  -0.000016   0.000101   0.005609  -0.000000   0.000014
    29  H   -0.000183   0.000017  -0.000044   0.000005  -0.000000   0.000000
              19         20         21         22         23         24
     1  O   -0.000000  -0.000000  -0.000000   0.000000  -0.000000  -0.000000
     2  C   -0.000004  -0.000002  -0.000002   0.000000  -0.000004  -0.000000
     3  C   -0.000001  -0.000010  -0.000052  -0.000001  -0.000062  -0.000054
     4  C   -0.000046  -0.000031   0.001978   0.000068   0.000565  -0.000563
     5  C   -0.005556  -0.005692  -0.005692   0.005297  -0.005556  -0.005456
     6  C   -0.027272  -0.028460  -0.028460  -0.029588  -0.027272  -0.029900
     7  C    0.366337  -0.004777   0.005621  -0.005170   0.005729  -0.004030
     8  C   -0.005050   0.367371   0.367371   0.367481  -0.005050   0.005838
     9  C    0.005729   0.005621  -0.004777  -0.005170   0.366337   0.365374
    10  C    0.000565   0.001978  -0.000031   0.000068  -0.000046   0.000030
    11  C   -0.000062  -0.000052  -0.000010  -0.000001  -0.000001  -0.000003
    12  H    0.000000  -0.000000  -0.000000   0.000000   0.000006   0.000014
    13  H    0.000000   0.000000   0.000005  -0.000000   0.000003   0.000000
    14  H   -0.000002   0.000026   0.000194  -0.000033   0.003654   0.000514
    15  H   -0.000002   0.000035   0.003248  -0.000077   0.000297   0.000074
    16  H   -0.000104  -0.000034  -0.000034  -0.000152  -0.000104   0.006036
    17  H   -0.030163  -0.000158  -0.000080   0.003950   0.000020  -0.000100
    18  H   -0.031546  -0.000038  -0.000191  -0.000037  -0.000073   0.003358
    19  H    0.575109   0.003870  -0.000016  -0.000126  -0.000195  -0.000073
    20  H    0.003870   0.574346  -0.030916  -0.030451  -0.000016  -0.000191
    21  H   -0.000016  -0.030916   0.574346  -0.030451   0.003870  -0.000038
    22  H   -0.000126  -0.030451  -0.030451   0.579647  -0.000126  -0.000037
    23  H   -0.000195  -0.000016   0.003870  -0.000126   0.575109  -0.031546
    24  H   -0.000073  -0.000191  -0.000038  -0.000037  -0.031546   0.583334
    25  H    0.000020  -0.000080  -0.000158   0.003950  -0.030163  -0.030173
    26  H    0.000297   0.003248   0.000035  -0.000077  -0.000002   0.000003
    27  H    0.003654   0.000194   0.000026  -0.000033  -0.000002  -0.000009
    28  H    0.000006  -0.000000  -0.000000   0.000000   0.000000   0.000000
    29  H    0.000003   0.000005   0.000000  -0.000000   0.000000   0.000000
              25         26         27         28         29
     1  O   -0.000000   0.000414  -0.000068   0.001261   0.004664
     2  C    0.000000  -0.003099   0.002946  -0.028482  -0.024177
     3  C   -0.000000   0.000713  -0.000241   0.003647   0.006920
     4  C    0.000247  -0.007853   0.005433  -0.001626  -0.000204
     5  C    0.004902  -0.037313  -0.031416  -0.003849   0.003521
     6  C   -0.027953  -0.005512  -0.006187  -0.000012  -0.000095
     7  C   -0.006942  -0.000363   0.003171  -0.000013  -0.000000
     8  C   -0.004121   0.002626  -0.000302   0.000003   0.000002
     9  C    0.365033   0.000017   0.000071  -0.000004   0.000001
    10  C   -0.000118   0.371066   0.365952  -0.035739  -0.025618
    11  C    0.000001  -0.042222  -0.028192   0.346875   0.343515
    12  H   -0.000000   0.000101  -0.000016   0.001103  -0.000143
    13  H   -0.000000  -0.000044   0.000017  -0.000143  -0.000183
    14  H   -0.000111   0.000008  -0.000183  -0.000016   0.000017
    15  H   -0.000030   0.005071   0.000008   0.000101  -0.000044
    16  H   -0.000059   0.006384  -0.003884   0.005609   0.000005
    17  H    0.005355  -0.000030  -0.000111  -0.000000  -0.000000
    18  H   -0.000100   0.000074   0.000514   0.000014   0.000000
    19  H    0.000020   0.000297   0.003654   0.000006   0.000003
    20  H   -0.000080   0.003248   0.000194  -0.000000   0.000005
    21  H   -0.000158   0.000035   0.000026  -0.000000   0.000000
    22  H    0.003950  -0.000077  -0.000033   0.000000  -0.000000
    23  H   -0.030163  -0.000002  -0.000002   0.000000   0.000000
    24  H   -0.030173   0.000003  -0.000009   0.000000   0.000000
    25  H    0.580022   0.000002  -0.000003   0.000000  -0.000000
    26  H    0.000002   0.596325  -0.037580   0.005730  -0.002953
    27  H   -0.000003  -0.037580   0.590044  -0.006410  -0.002429
    28  H    0.000000   0.005730  -0.006410   0.586051  -0.026752
    29  H   -0.000000  -0.002953  -0.002429  -0.026752   0.562305
 Mulliken charges:
               1
     1  O   -0.447499
     2  C    0.453820
     3  C   -0.347417
     4  C   -0.288110
     5  C   -0.070566
     6  C    0.102955
     7  C   -0.452580
     8  C   -0.456484
     9  C   -0.452580
    10  C   -0.288110
    11  C   -0.347417
    12  H    0.152646
    13  H    0.161639
    14  H    0.145035
    15  H    0.144934
    16  H    0.110570
    17  H    0.140480
    18  H    0.137598
    19  H    0.144627
    20  H    0.144214
    21  H    0.144214
    22  H    0.141072
    23  H    0.144627
    24  H    0.137598
    25  H    0.140480
    26  H    0.144934
    27  H    0.145035
    28  H    0.152646
    29  H    0.161639
 Sum of Mulliken charges =  -0.00000
 Mulliken charges with hydrogens summed into heavy atoms:
               1
     1  O   -0.447499
     2  C    0.453820
     3  C   -0.033132
     4  C    0.001860
     5  C    0.040004
     6  C    0.102955
     7  C   -0.029875
     8  C   -0.026984
     9  C   -0.029876
    10  C    0.001860
    11  C   -0.033132
 APT charges:
               1
     1  O   -0.648689
     2  C    0.718875
     3  C   -0.039441
     4  C    0.102769
     5  C    0.075466
     6  C    0.139267
     7  C    0.036543
     8  C    0.029589
     9  C    0.036543
    10  C    0.102769
    11  C   -0.039441
    12  H   -0.012629
    13  H   -0.032899
    14  H   -0.036311
    15  H   -0.032734
    16  H   -0.070970
    17  H   -0.031705
    18  H   -0.025053
    19  H   -0.018468
    20  H   -0.018816
    21  H   -0.018816
    22  H   -0.026054
    23  H   -0.018468
    24  H   -0.025053
    25  H   -0.031704
    26  H   -0.032734
    27  H   -0.036311
    28  H   -0.012629
    29  H   -0.032900
 Sum of APT charges =   0.00000
 APT charges with hydrogens summed into heavy atoms:
               1
     1  O   -0.648689
     2  C    0.718875
     3  C   -0.084969
     4  C    0.033725
     5  C    0.004496
     6  C    0.139267
     7  C   -0.038682
     8  C   -0.034096
     9  C   -0.038682
    10  C    0.033725
    11  C   -0.084969
 Electronic spatial extent (au):  <R**2>=           2152.0021
 Charge=             -0.0000 electrons
 Dipole moment (field-independent basis, Debye):
    X=             -3.0261    Y=             -0.0000    Z=             -1.0917  Tot=              3.2170
 Quadrupole moment (field-independent basis, Debye-Ang):
   XX=            -85.1576   YY=            -67.9673   ZZ=            -68.9242
   XY=              0.0000   XZ=             -4.1580   YZ=              0.0000
 Traceless Quadrupole moment (field-independent basis, Debye-Ang):
   XX=            -11.1412   YY=              6.0491   ZZ=              5.0922
   XY=              0.0000   XZ=             -4.1580   YZ=              0.0000
 Octapole moment (field-independent basis, Debye-Ang**2):
  XXX=            -60.3125  YYY=             -0.0000  ZZZ=             -1.0153  XYY=              9.4285
  XXY=              0.0000  XXZ=            -13.1699  XZZ=              6.8172  YZZ=              0.0000
  YYZ=              1.5976  XYZ=              0.0000
 Hexadecapole moment (field-independent basis, Debye-Ang**3):
 XXXX=          -2259.6644 YYYY=           -549.5247 ZZZZ=           -306.5906 XXXY=              0.0000
 XXXZ=            -54.7609 YYYX=              0.0000 YYYZ=              0.0000 ZZZX=              7.1659
 ZZZY=              0.0000 XXYY=           -422.5943 XXZZ=           -387.2995 YYZZ=           -144.3857
 XXYZ=             -0.0000 YYXZ=              0.4493 ZZXY=             -0.0000
 N-N= 6.600652052668D+02 E-N=-2.402806874101D+03  KE= 4.625957042695D+02
  Exact polarizability: 122.042  -0.000  99.210   2.856  -0.000  89.822
 Approx polarizability: 157.935  -0.000 139.237   8.560   0.000 140.061
 Calling FoFJK, ICntrl=    100127 FMM=F ISym2X=0 I1Cent= 0 IOpClX= 0 NMat=1 NMatS=1 NMatT=0.
 Full mass-weighted force constant matrix:
 Low frequencies ---   -7.7309   -6.7538   -0.0008   -0.0008   -0.0002    8.9428
 Low frequencies ---   37.1256   60.6975  159.2168
 Diagonal vibrational polarizability:
        6.0564802       7.7132342      23.0310560
 Harmonic frequencies (cm**-1), IR intensities (KM/Mole), Raman scattering
 activities (A**4/AMU), depolarization ratios for plane and unpolarized
 incident light, reduced masses (AMU), force constants (mDyne/A),
 and normal coordinates:
                      1                      2                      3
                      A                      A                      A
 Frequencies --     37.1248                60.6922               159.2147
 Red. masses --      2.4447                 5.6209                 2.4533
 Frc consts  --      0.0020                 0.0122                 0.0366
 IR Inten    --      0.1296                 3.2751                 1.2906
  Atom  AN      X      Y      Z        X      Y      Z        X      Y      Z
     1   8     0.00  -0.05  -0.00    -0.19  -0.00   0.38    -0.00   0.15   0.00
     2   6     0.00  -0.00  -0.00    -0.03   0.00   0.03    -0.00   0.04  -0.00
     3   6    -0.00   0.03   0.11     0.03  -0.02  -0.15    -0.06  -0.03  -0.09
     4   6     0.00  -0.03   0.12     0.02   0.01  -0.17     0.02  -0.11   0.11
     5   6    -0.00   0.02   0.00    -0.00   0.00  -0.11     0.00  -0.05   0.00
     6   6    -0.00   0.01  -0.00     0.03   0.00   0.03     0.00   0.01   0.00
     7   6     0.03  -0.07   0.13    -0.03  -0.00   0.10    -0.08   0.05   0.01
     8   6    -0.00   0.15  -0.00     0.17   0.00   0.05    -0.00   0.04   0.00
     9   6    -0.03  -0.07  -0.13    -0.03   0.00   0.10     0.08   0.05  -0.01
    10   6    -0.00  -0.03  -0.12     0.02  -0.01  -0.17    -0.02  -0.11  -0.11
    11   6     0.00   0.03  -0.11     0.03   0.02  -0.15     0.06  -0.03   0.09
    12   1    -0.01   0.13   0.12     0.06  -0.12  -0.16    -0.22  -0.14  -0.10
    13   1    -0.00  -0.01   0.19     0.01   0.02  -0.19    -0.06   0.03  -0.24
    14   1    -0.00   0.01   0.23     0.03  -0.00  -0.23    -0.04  -0.07   0.33
    15   1     0.02  -0.15   0.13     0.01   0.08  -0.18     0.17  -0.29   0.11
    16   1     0.00   0.12   0.00    -0.09   0.00  -0.11     0.00   0.05   0.00
    17   1     0.02  -0.04   0.04    -0.02   0.00   0.20    -0.07   0.09   0.06
    18   1     0.10  -0.23   0.15    -0.13  -0.00   0.08    -0.13   0.06  -0.00
    19   1    -0.01  -0.01   0.28     0.02   0.00   0.07    -0.09   0.03  -0.03
    20   1     0.12   0.27   0.10     0.21   0.00   0.02    -0.06   0.01   0.01
    21   1    -0.12   0.27  -0.10     0.21  -0.00   0.02     0.06   0.01  -0.01
    22   1    -0.00   0.03  -0.00     0.19   0.00   0.15    -0.00   0.11  -0.00
    23   1     0.01  -0.01  -0.28     0.02  -0.00   0.07     0.09   0.03   0.03
    24   1    -0.10  -0.23  -0.15    -0.13   0.00   0.08     0.13   0.06   0.00
    25   1    -0.02  -0.04  -0.04    -0.02  -0.00   0.20     0.07   0.09  -0.06
    26   1    -0.02  -0.15  -0.13     0.01  -0.08  -0.18    -0.17  -0.29  -0.11
    27   1     0.00   0.01  -0.23     0.03   0.00  -0.23     0.04  -0.07  -0.33
    28   1     0.01   0.13  -0.12     0.06   0.12  -0.16     0.22  -0.14   0.10
    29   1     0.00  -0.01  -0.19     0.01  -0.02  -0.19     0.06   0.03   0.24
                      4                      5                      6
                      A                      A                      A
 Frequencies --    165.8393               196.5333               249.2560
 Red. masses --      2.8142                 1.5430                 1.3984
 Frc consts  --      0.0456                 0.0351                 0.0512
 IR Inten    --      0.5613                 0.1167                 0.0113
  Atom  AN      X      Y      Z        X      Y      Z        X      Y      Z
     1   8     0.12   0.00  -0.07     0.00  -0.01  -0.00    -0.00  -0.03   0.00
     2   6     0.04   0.00   0.11     0.00  -0.02   0.00     0.00  -0.02  -0.00
     3   6     0.03   0.00   0.14     0.02  -0.03  -0.07     0.02  -0.01  -0.03
     4   6    -0.05   0.01  -0.11     0.05   0.03   0.03     0.04   0.04   0.04
     5   6    -0.03  -0.00  -0.13    -0.00   0.07  -0.00     0.00   0.07   0.00
     6   6    -0.02  -0.00  -0.03    -0.00   0.02  -0.00    -0.00   0.01  -0.00
     7   6    -0.09   0.00   0.04     0.09  -0.01  -0.05     0.08  -0.04   0.01
     8   6     0.11   0.00  -0.01     0.00  -0.03  -0.00     0.00   0.01  -0.00
     9   6    -0.09  -0.00   0.04    -0.09  -0.01   0.05    -0.08  -0.04  -0.01
    10   6    -0.05  -0.01  -0.11    -0.05   0.03  -0.03    -0.04   0.04  -0.04
    11   6     0.03  -0.00   0.14    -0.02  -0.03   0.07    -0.02  -0.01   0.03
    12   1     0.23   0.08   0.14    -0.07  -0.12  -0.08    -0.03  -0.06  -0.04
    13   1    -0.03  -0.01   0.27     0.06  -0.01  -0.18     0.06  -0.00  -0.10
    14   1     0.00  -0.01  -0.24     0.06   0.06   0.10     0.04   0.07   0.12
    15   1    -0.22   0.07  -0.11     0.12  -0.02   0.03     0.10  -0.02   0.04
    16   1    -0.06  -0.00  -0.13    -0.00   0.12  -0.00     0.00   0.12   0.00
    17   1    -0.07  -0.01   0.19     0.05   0.05  -0.32     0.09  -0.19   0.16
    18   1    -0.24   0.02   0.01     0.35  -0.12   0.01    -0.06   0.06  -0.02
    19   1    -0.02  -0.00  -0.03    -0.07   0.02   0.13     0.25  -0.03  -0.09
    20   1     0.14   0.00  -0.04     0.22   0.08   0.01    -0.37  -0.20  -0.06
    21   1     0.14  -0.00  -0.04    -0.22   0.08  -0.01     0.37  -0.20   0.06
    22   1     0.12   0.00   0.07     0.00  -0.30  -0.00     0.00   0.44   0.00
    23   1    -0.02   0.00  -0.03     0.07   0.02  -0.13    -0.25  -0.03   0.09
    24   1    -0.24  -0.02   0.01    -0.35  -0.12  -0.01     0.05   0.06   0.02
    25   1    -0.07   0.01   0.19    -0.05   0.05   0.32    -0.09  -0.19  -0.16
    26   1    -0.22  -0.07  -0.11    -0.12  -0.02  -0.03    -0.10  -0.02  -0.04
    27   1     0.00   0.01  -0.24    -0.06   0.06  -0.10    -0.04   0.07  -0.12
    28   1     0.23  -0.08   0.14     0.07  -0.12   0.08     0.03  -0.06   0.04
    29   1    -0.03   0.01   0.27    -0.06  -0.01   0.18    -0.06  -0.00   0.10
                      7                      8                      9
                      A                      A                      A
 Frequencies --    255.7191               267.3593               274.7140
 Red. masses --      1.2499                 1.0520                 3.1577
 Frc consts  --      0.0482                 0.0443                 0.1404
 IR Inten    --      0.0969                 0.0084                 0.2438
  Atom  AN      X      Y      Z        X      Y      Z        X      Y      Z
     1   8     0.01  -0.00  -0.01    -0.00   0.01   0.00    -0.12  -0.00  -0.05
     2   6    -0.01   0.00   0.02    -0.00   0.01  -0.00    -0.13  -0.00  -0.02
     3   6     0.00   0.00   0.01     0.00   0.01   0.01    -0.10   0.04   0.05
     4   6    -0.02   0.02  -0.06    -0.00  -0.00  -0.01    -0.06   0.00   0.06
     5   6    -0.01   0.00  -0.01     0.00  -0.01   0.00     0.02   0.00  -0.03
     6   6     0.00  -0.00   0.02     0.00  -0.01  -0.00     0.07   0.00  -0.06
     7   6     0.05  -0.03   0.04    -0.03   0.00   0.01     0.07  -0.00  -0.04
     8   6    -0.05  -0.00   0.02     0.00  -0.03  -0.00     0.30   0.00  -0.03
     9   6     0.05   0.03   0.04     0.03   0.00  -0.01     0.07   0.00  -0.04
    10   6    -0.02  -0.02  -0.06     0.00  -0.00   0.01    -0.06  -0.00   0.06
    11   6     0.00  -0.00   0.01    -0.00   0.01  -0.01    -0.10  -0.04   0.05
    12   1     0.05   0.00   0.01     0.02   0.04   0.01    -0.10   0.12   0.06
    13   1    -0.01  -0.00   0.03    -0.01   0.01   0.04    -0.06  -0.02   0.12
    14   1    -0.02  -0.01  -0.15     0.00  -0.01  -0.02    -0.10   0.00   0.13
    15   1    -0.08   0.10  -0.06    -0.01   0.01  -0.01    -0.06  -0.08   0.06
    16   1    -0.05   0.00  -0.01     0.00  -0.02   0.00     0.10   0.00  -0.02
    17   1     0.01   0.09  -0.29    -0.05   0.16  -0.24     0.06   0.05  -0.16
    18   1     0.36  -0.26   0.11     0.20  -0.18   0.06     0.18  -0.08  -0.02
    19   1    -0.17   0.03   0.32    -0.25   0.02   0.22    -0.02   0.01   0.05
    20   1    -0.07  -0.00   0.03    -0.32  -0.23  -0.08     0.39   0.00  -0.11
    21   1    -0.07   0.00   0.03     0.32  -0.23   0.08     0.39  -0.00  -0.11
    22   1    -0.06   0.00  -0.03     0.00   0.34   0.00     0.34  -0.00   0.18
    23   1    -0.17  -0.03   0.32     0.25   0.02  -0.22    -0.02  -0.01   0.05
    24   1     0.36   0.26   0.11    -0.20  -0.18  -0.06     0.18   0.08  -0.02
    25   1     0.01  -0.09  -0.29     0.05   0.16   0.24     0.06  -0.05  -0.16
    26   1    -0.08  -0.10  -0.06     0.01   0.01   0.01    -0.06   0.08   0.06
    27   1    -0.02   0.01  -0.15    -0.00  -0.01   0.02    -0.10  -0.00   0.13
    28   1     0.05  -0.00   0.01    -0.02   0.04  -0.01    -0.10  -0.12   0.06
    29   1    -0.01   0.00   0.03     0.01   0.01  -0.04    -0.06   0.02   0.12
                     10                     11                     12
                      A                      A                      A
 Frequencies --    333.7186               340.2246               385.6580
 Red. masses --      2.3303                 1.9223                 2.0354
 Frc consts  --      0.1529                 0.1311                 0.1784
 IR Inten    --      0.1130                 0.1020                 0.1426
  Atom  AN      X      Y      Z        X      Y      Z        X      Y      Z
     1   8    -0.00   0.04  -0.00    -0.06  -0.00  -0.04     0.04  -0.00  -0.01
     2   6    -0.00  -0.01  -0.00    -0.08   0.00   0.01     0.01   0.00   0.05
     3   6    -0.04  -0.03   0.03    -0.03   0.02   0.02     0.00  -0.02  -0.01
     4   6    -0.04  -0.08  -0.03    -0.04   0.05  -0.06    -0.01   0.05  -0.02
     5   6     0.00  -0.09   0.00     0.01   0.00   0.02    -0.01   0.00   0.10
     6   6     0.00  -0.00   0.00     0.05  -0.00   0.05    -0.01  -0.00   0.10
     7   6     0.10   0.01  -0.12     0.14  -0.01   0.01    -0.03   0.11  -0.10
     8   6    -0.00   0.19   0.00    -0.06  -0.00   0.05     0.05   0.00   0.13
     9   6    -0.10   0.01   0.12     0.14   0.01   0.01    -0.03  -0.11  -0.10
    10   6     0.04  -0.08   0.03    -0.04  -0.05  -0.06    -0.01  -0.05  -0.02
    11   6     0.04  -0.03  -0.03    -0.03  -0.02   0.02     0.00   0.02  -0.01
    12   1     0.01   0.03   0.04     0.03   0.06   0.03    -0.00  -0.13  -0.02
    13   1    -0.08  -0.03   0.10    -0.02  -0.01   0.07     0.00   0.02  -0.10
    14   1    -0.07  -0.11  -0.07    -0.04  -0.01  -0.21    -0.01  -0.01  -0.18
    15   1    -0.08  -0.04  -0.03    -0.12   0.19  -0.06    -0.03   0.22  -0.03
    16   1    -0.00  -0.12   0.00    -0.04   0.00   0.02    -0.06   0.00   0.09
    17   1     0.08  -0.08  -0.26     0.15  -0.21   0.20    -0.05   0.19  -0.26
    18   1     0.25   0.13  -0.10    -0.03   0.19  -0.03     0.13   0.28  -0.08
    19   1     0.12  -0.01  -0.17     0.37  -0.02  -0.19    -0.18  -0.01  -0.21
    20   1    -0.13   0.21   0.16    -0.12  -0.00   0.09     0.10   0.00   0.09
    21   1     0.13   0.21  -0.16    -0.12   0.00   0.09     0.10  -0.00   0.09
    22   1    -0.00   0.41  -0.00    -0.09  -0.00  -0.07     0.07   0.00   0.23
    23   1    -0.12  -0.01   0.17     0.37   0.02  -0.19    -0.18   0.01  -0.21
    24   1    -0.25   0.13   0.10    -0.03  -0.19  -0.03     0.13  -0.28  -0.08
    25   1    -0.08  -0.08   0.26     0.15   0.21   0.20    -0.05  -0.19  -0.26
    26   1     0.08  -0.04   0.03    -0.12  -0.19  -0.06    -0.03  -0.22  -0.03
    27   1     0.07  -0.11   0.07    -0.04   0.01  -0.21    -0.01   0.01  -0.18
    28   1    -0.01   0.03  -0.04     0.03  -0.06   0.03    -0.00   0.13  -0.02
    29   1     0.08  -0.03  -0.10    -0.02   0.01   0.07     0.00  -0.02  -0.10
                     13                     14                     15
                      A                      A                      A
 Frequencies --    420.8365               425.8726               441.6707
 Red. masses --      3.6695                 2.0616                 2.6448
 Frc consts  --      0.3829                 0.2203                 0.3040
 IR Inten    --      4.3719                 1.7977                 0.0028
  Atom  AN      X      Y      Z        X      Y      Z        X      Y      Z
     1   8    -0.00  -0.13   0.00     0.10  -0.00  -0.01     0.00   0.03   0.00
     2   6    -0.00   0.14  -0.00     0.04   0.00   0.14     0.00   0.02   0.00
     3   6     0.14   0.19  -0.10    -0.06  -0.10  -0.02     0.03   0.02  -0.00
     4   6     0.12  -0.08  -0.04    -0.05  -0.04   0.01     0.03  -0.12  -0.05
     5   6     0.00  -0.08  -0.00    -0.07  -0.00  -0.00    -0.00  -0.08   0.00
     6   6     0.00  -0.07   0.00    -0.04  -0.00  -0.02    -0.00   0.16   0.00
     7   6    -0.04  -0.05  -0.05     0.05  -0.06  -0.00     0.12   0.11   0.09
     8   6    -0.00   0.04   0.00     0.04   0.00  -0.02     0.00  -0.09   0.00
     9   6     0.04  -0.05   0.05     0.05   0.06  -0.00    -0.12   0.11  -0.09
    10   6    -0.12  -0.08   0.04    -0.05   0.04   0.01    -0.03  -0.12   0.05
    11   6    -0.14   0.19   0.10    -0.06   0.10  -0.02    -0.03   0.02   0.00
    12   1     0.21   0.26  -0.09    -0.15  -0.45  -0.06     0.11   0.11   0.01
    13   1     0.02   0.21   0.03    -0.10   0.07  -0.34    -0.04   0.00   0.12
    14   1     0.00  -0.07   0.15     0.01  -0.01  -0.00    -0.04  -0.14  -0.01
    15   1     0.27  -0.21  -0.04    -0.04  -0.02   0.01     0.03  -0.14  -0.05
    16   1     0.00  -0.14  -0.00    -0.05  -0.00   0.00    -0.00  -0.17   0.00
    17   1    -0.04  -0.02  -0.06     0.05  -0.20   0.02     0.12  -0.04   0.10
    18   1    -0.03   0.00  -0.06     0.04  -0.06  -0.01     0.13   0.02   0.10
    19   1    -0.07  -0.09  -0.10     0.18  -0.01   0.01     0.26   0.20   0.18
    20   1     0.01   0.11   0.12     0.09   0.00  -0.05     0.04  -0.21  -0.25
    21   1    -0.01   0.11  -0.12     0.09  -0.00  -0.05    -0.04  -0.21   0.25
    22   1    -0.00   0.05  -0.00     0.06   0.00   0.08     0.00  -0.22   0.00
    23   1     0.07  -0.09   0.10     0.18   0.01   0.01    -0.26   0.20  -0.18
    24   1     0.03   0.00   0.06     0.04   0.06  -0.01    -0.13   0.02  -0.10
    25   1     0.04  -0.02   0.06     0.05   0.20   0.02    -0.12  -0.04  -0.10
    26   1    -0.27  -0.21   0.04    -0.04   0.02   0.01    -0.03  -0.14   0.05
    27   1    -0.00  -0.07  -0.15     0.01   0.01  -0.00     0.04  -0.14   0.01
    28   1    -0.21   0.26   0.09    -0.15   0.45  -0.06    -0.11   0.11  -0.01
    29   1    -0.02   0.21  -0.03    -0.10  -0.07  -0.34     0.04   0.00  -0.12
                     16                     17                     18
                      A                      A                      A
 Frequencies --    475.3250               508.4855               531.7646
 Red. masses --      2.1076                 3.3133                 2.3622
 Frc consts  --      0.2806                 0.5047                 0.3936
 IR Inten    --      0.1298                 6.9607                 0.5574
  Atom  AN      X      Y      Z        X      Y      Z        X      Y      Z
     1   8     0.01   0.00   0.03     0.00   0.27   0.00     0.00   0.00  -0.03
     2   6     0.05  -0.00  -0.05     0.00  -0.09   0.00    -0.05  -0.00   0.09
     3   6     0.01  -0.01   0.00     0.13  -0.09   0.05    -0.05  -0.03   0.01
     4   6    -0.02  -0.12  -0.04     0.13  -0.00  -0.02    -0.01  -0.05  -0.01
     5   6    -0.10   0.00  -0.12    -0.00   0.04   0.00     0.07   0.00  -0.12
     6   6    -0.06  -0.00   0.08    -0.00  -0.03  -0.00     0.19   0.00   0.01
     7   6     0.05   0.01  -0.03    -0.02  -0.04  -0.02     0.03   0.13   0.05
     8   6    -0.02  -0.00   0.13     0.00   0.00  -0.00    -0.03  -0.00  -0.03
     9   6     0.05  -0.01  -0.03     0.02  -0.04   0.02     0.03  -0.13   0.05
    10   6    -0.02   0.12  -0.04    -0.13  -0.00   0.02    -0.01   0.05  -0.01
    11   6     0.01   0.01   0.00    -0.13  -0.09  -0.05    -0.05   0.03   0.01
    12   1     0.08   0.16   0.02     0.30   0.15   0.07    -0.07  -0.19  -0.01
    13   1    -0.08  -0.03   0.18     0.21  -0.26   0.31    -0.06   0.03  -0.12
    14   1     0.02  -0.01   0.22     0.20   0.04  -0.00    -0.04  -0.02   0.11
    15   1     0.03  -0.39  -0.03     0.14  -0.02  -0.02    -0.04  -0.22  -0.01
    16   1    -0.23   0.00  -0.12     0.00   0.01   0.00     0.05  -0.00  -0.12
    17   1     0.02  -0.11  -0.15    -0.02  -0.01   0.01     0.05   0.37   0.09
    18   1     0.18   0.14  -0.02    -0.06  -0.01  -0.03    -0.04   0.12   0.04
    19   1     0.09  -0.01  -0.10    -0.04  -0.07  -0.05    -0.16   0.05   0.02
    20   1    -0.00  -0.00   0.12     0.01   0.03   0.05    -0.19  -0.01   0.10
    21   1    -0.00   0.00   0.12    -0.01   0.03  -0.05    -0.19   0.01   0.10
    22   1    -0.01  -0.00   0.16     0.00   0.01   0.00    -0.10   0.00  -0.35
    23   1     0.09   0.01  -0.10     0.04  -0.07   0.05    -0.16  -0.05   0.02
    24   1     0.18  -0.14  -0.02     0.06  -0.01   0.03    -0.04  -0.12   0.04
    25   1     0.02   0.11  -0.15     0.02  -0.01  -0.01     0.05  -0.37   0.09
    26   1     0.03   0.39  -0.03    -0.14  -0.02   0.02    -0.04   0.22  -0.01
    27   1     0.02   0.01   0.22    -0.20   0.04   0.00    -0.04   0.02   0.11
    28   1     0.08  -0.16   0.02    -0.30   0.15  -0.07    -0.07   0.19  -0.01
    29   1    -0.08   0.03   0.18    -0.21  -0.26  -0.31    -0.06  -0.03  -0.12
                     19                     20                     21
                      A                      A                      A
 Frequencies --    671.4113               749.2025               769.7854
 Red. masses --      3.7429                 3.4876                 1.5710
 Frc consts  --      0.9941                 1.1534                 0.5485
 IR Inten    --      1.2605                 0.9529                 3.1363
  Atom  AN      X      Y      Z        X      Y      Z        X      Y      Z
     1   8     0.12  -0.00   0.13     0.11   0.00   0.04     0.00  -0.02   0.00
     2   6     0.25  -0.00  -0.22     0.07   0.00   0.08     0.00  -0.08   0.00
     3   6    -0.06   0.01  -0.02    -0.03   0.22  -0.05    -0.07  -0.01  -0.08
     4   6    -0.14  -0.03   0.03    -0.06   0.13   0.02    -0.06   0.04  -0.05
     5   6    -0.07   0.00   0.08     0.07  -0.00  -0.14     0.00   0.05  -0.00
     6   6     0.06   0.00  -0.02     0.03  -0.00  -0.01     0.00  -0.00  -0.00
     7   6     0.04   0.07   0.03    -0.02  -0.06  -0.03    -0.00   0.00  -0.00
     8   6     0.03   0.00  -0.10    -0.01  -0.00   0.12    -0.00  -0.00   0.00
     9   6     0.04  -0.07   0.03    -0.02   0.06  -0.03     0.00   0.00   0.00
    10   6    -0.14   0.03   0.03    -0.06  -0.13   0.02     0.06   0.04   0.05
    11   6    -0.06  -0.01  -0.02    -0.03  -0.22  -0.05     0.07  -0.01   0.08
    12   1    -0.24   0.26   0.01    -0.14   0.04  -0.06     0.17   0.33  -0.05
    13   1    -0.19   0.05   0.07    -0.01   0.31  -0.24    -0.09  -0.18   0.29
    14   1    -0.09  -0.09  -0.20    -0.24   0.11   0.24    -0.10   0.14   0.30
    15   1    -0.24   0.18   0.02    -0.03  -0.13   0.03     0.16  -0.24  -0.04
    16   1    -0.01   0.00   0.08     0.10   0.00  -0.13     0.00  -0.05  -0.00
    17   1     0.06   0.14   0.08    -0.02  -0.07  -0.02    -0.00   0.01  -0.00
    18   1    -0.01   0.05   0.03    -0.02  -0.05  -0.03    -0.00  -0.00  -0.00
    19   1     0.00   0.06   0.04    -0.02  -0.07  -0.05    -0.01  -0.00   0.00
    20   1    -0.00  -0.00  -0.08    -0.07  -0.00   0.17     0.00   0.00   0.00
    21   1    -0.00   0.00  -0.08    -0.07   0.00   0.17    -0.00   0.00  -0.00
    22   1     0.02  -0.00  -0.16    -0.03   0.00   0.03    -0.00  -0.01  -0.00
    23   1     0.00  -0.06   0.04    -0.02   0.07  -0.05     0.01  -0.00  -0.00
    24   1    -0.01  -0.05   0.03    -0.02   0.05  -0.03     0.00  -0.00   0.00
    25   1     0.06  -0.14   0.08    -0.02   0.07  -0.02     0.00   0.01   0.00
    26   1    -0.24  -0.18   0.02    -0.03   0.13   0.03    -0.16  -0.24   0.04
    27   1    -0.09   0.09  -0.20    -0.24  -0.11   0.24     0.10   0.14  -0.30
    28   1    -0.24  -0.26   0.01    -0.14  -0.04  -0.06    -0.17   0.33   0.05
    29   1    -0.19  -0.05   0.07    -0.01  -0.31  -0.24     0.09  -0.18  -0.29
                     22                     23                     24
                      A                      A                      A
 Frequencies --    782.5500               849.2940               920.8020
 Red. masses --      2.5871                 2.2480                 1.4045
 Frc consts  --      0.9335                 0.9554                 0.7016
 IR Inten    --      3.8151                 0.7672                 0.0910
  Atom  AN      X      Y      Z        X      Y      Z        X      Y      Z
     1   8    -0.04  -0.00   0.01     0.04  -0.00  -0.00     0.00  -0.00   0.00
     2   6     0.03  -0.00  -0.12    -0.01   0.00   0.10     0.00  -0.04  -0.00
     3   6    -0.02  -0.09   0.06    -0.06   0.02  -0.06    -0.01   0.01  -0.09
     4   6     0.01  -0.04   0.03    -0.01  -0.10  -0.06     0.01  -0.03   0.09
     5   6     0.13   0.00  -0.08     0.04  -0.00   0.17    -0.00  -0.02  -0.00
     6   6     0.09  -0.00  -0.03     0.10  -0.00   0.00     0.00  -0.02   0.00
     7   6    -0.04  -0.11  -0.06    -0.01  -0.08  -0.04     0.01   0.01   0.01
     8   6     0.00  -0.00   0.18     0.01  -0.00   0.03     0.00  -0.01   0.00
     9   6    -0.04   0.11  -0.06    -0.01   0.08  -0.04    -0.01   0.01  -0.01
    10   6     0.01   0.04   0.03    -0.01   0.10  -0.06    -0.01  -0.03  -0.09
    11   6    -0.02   0.09   0.06    -0.06  -0.02  -0.06     0.01   0.01   0.09
    12   1    -0.25  -0.07   0.06     0.25   0.14  -0.05    -0.07   0.36  -0.05
    13   1     0.04  -0.08  -0.05    -0.28   0.05   0.20     0.03  -0.13   0.15
    14   1     0.09  -0.10  -0.24    -0.18  -0.17   0.00    -0.05  -0.19  -0.28
    15   1    -0.26   0.10   0.02     0.22  -0.01  -0.06    -0.04   0.36   0.07
    16   1     0.25  -0.00  -0.08     0.03   0.00   0.17    -0.00   0.31  -0.00
    17   1    -0.03  -0.01  -0.01     0.02   0.10   0.08     0.01   0.01   0.01
    18   1    -0.12  -0.15  -0.07    -0.15  -0.13  -0.06     0.01   0.01   0.01
    19   1    -0.11  -0.14  -0.06    -0.15  -0.14  -0.05     0.01   0.01   0.01
    20   1    -0.11  -0.00   0.27    -0.03  -0.00   0.07    -0.01   0.01   0.05
    21   1    -0.11   0.00   0.27    -0.03   0.00   0.07     0.01   0.01  -0.05
    22   1    -0.04   0.00  -0.01    -0.00   0.00  -0.07    -0.00   0.02  -0.00
    23   1    -0.11   0.14  -0.06    -0.15   0.14  -0.05    -0.01   0.01  -0.01
    24   1    -0.12   0.15  -0.07    -0.15   0.13  -0.06    -0.01   0.01  -0.01
    25   1    -0.03   0.01  -0.01     0.02  -0.10   0.08    -0.01   0.01  -0.01
    26   1    -0.26  -0.10   0.02     0.22   0.01  -0.06     0.04   0.36  -0.07
    27   1     0.09   0.10  -0.24    -0.18   0.17   0.00     0.05  -0.19   0.28
    28   1    -0.25   0.07   0.06     0.25  -0.14  -0.05     0.07   0.36   0.05
    29   1     0.04   0.08  -0.05    -0.28  -0.05   0.20    -0.03  -0.13  -0.15
                     25                     26                     27
                      A                      A                      A
 Frequencies --    924.1491               940.1552               942.6529
 Red. masses --      2.2414                 1.8246                 1.8089
 Frc consts  --      1.1279                 0.9502                 0.9470
 IR Inten    --      1.4642                 0.0866                 0.4629
  Atom  AN      X      Y      Z        X      Y      Z        X      Y      Z
     1   8    -0.00  -0.00  -0.01     0.00  -0.01   0.00    -0.01  -0.00  -0.00
     2   6    -0.01  -0.00   0.03     0.00   0.01  -0.00    -0.00   0.00   0.00
     3   6    -0.04   0.07   0.01    -0.02  -0.00  -0.00    -0.00   0.04   0.02
     4   6     0.05  -0.11  -0.02     0.02  -0.02  -0.00     0.02  -0.04  -0.00
     5   6     0.18  -0.00  -0.00    -0.00   0.03   0.00     0.05   0.00  -0.01
     6   6    -0.12   0.00  -0.03     0.00   0.16  -0.00     0.00   0.00   0.14
     7   6    -0.01   0.08   0.02    -0.10  -0.07  -0.07    -0.05  -0.07   0.05
     8   6    -0.07   0.00   0.01    -0.00   0.09   0.00     0.06   0.00  -0.13
     9   6    -0.01  -0.08   0.02     0.10  -0.07   0.07    -0.05   0.07   0.05
    10   6     0.05   0.11  -0.02    -0.02  -0.02   0.00     0.02   0.04  -0.00
    11   6    -0.04  -0.07   0.01     0.02  -0.00   0.00    -0.00  -0.04   0.02
    12   1    -0.15   0.01   0.01    -0.02   0.05   0.00    -0.11  -0.03   0.01
    13   1    -0.15   0.17  -0.06    -0.06   0.00   0.04    -0.01   0.09  -0.07
    14   1    -0.06  -0.24  -0.21     0.02  -0.03  -0.05    -0.01  -0.09  -0.08
    15   1    -0.07   0.05  -0.02     0.00   0.04  -0.00    -0.07   0.00  -0.00
    16   1     0.27   0.00  -0.00     0.00   0.07   0.00    -0.04   0.00  -0.01
    17   1    -0.02  -0.12  -0.02    -0.12  -0.38  -0.12    -0.09  -0.16  -0.22
    18   1     0.07   0.01   0.04     0.02  -0.18  -0.04     0.20   0.31   0.07
    19   1     0.16   0.18   0.11     0.16   0.09   0.05    -0.06  -0.21  -0.23
    20   1     0.14   0.02  -0.14     0.05  -0.11  -0.42    -0.09  -0.02  -0.04
    21   1     0.14  -0.02  -0.14    -0.05  -0.11   0.42    -0.09   0.02  -0.04
    22   1     0.01  -0.00   0.40    -0.00  -0.16   0.00     0.01  -0.00  -0.41
    23   1     0.16  -0.18   0.11    -0.16   0.09  -0.05    -0.06   0.21  -0.23
    24   1     0.07  -0.01   0.04    -0.02  -0.18   0.04     0.20  -0.31   0.07
    25   1    -0.02   0.12  -0.02     0.12  -0.38   0.12    -0.09   0.16  -0.22
    26   1    -0.07  -0.05  -0.02    -0.00   0.04   0.00    -0.07  -0.00  -0.00
    27   1    -0.06   0.24  -0.21    -0.02  -0.03   0.05    -0.01   0.09  -0.08
    28   1    -0.15  -0.01   0.01     0.02   0.05  -0.00    -0.11   0.03   0.01
    29   1    -0.15  -0.17  -0.06     0.06   0.00  -0.04    -0.01  -0.09  -0.07
                     28                     29                     30
                      A                      A                      A
 Frequencies --    956.0300               969.6107              1004.3334
 Red. masses --      2.1106                 1.2042                 2.0551
 Frc consts  --      1.1366                 0.6670                 1.2213
 IR Inten    --     10.7694                 0.0026                 4.7746
  Atom  AN      X      Y      Z        X      Y      Z        X      Y      Z
     1   8    -0.00  -0.03   0.00     0.00   0.00   0.00    -0.05  -0.00  -0.03
     2   6     0.00   0.08  -0.00     0.00  -0.01  -0.00    -0.03  -0.00  -0.01
     3   6    -0.12  -0.04   0.03     0.01   0.00  -0.01     0.13   0.09   0.03
     4   6     0.11  -0.07  -0.05    -0.01   0.00   0.01    -0.03  -0.09   0.01
     5   6    -0.00   0.14  -0.00     0.00  -0.01  -0.00    -0.10   0.00   0.05
     6   6     0.00   0.01  -0.00    -0.00  -0.01  -0.00     0.03  -0.00   0.01
     7   6     0.03  -0.02  -0.00     0.01  -0.03   0.07     0.04  -0.02  -0.02
     8   6    -0.00  -0.01   0.00    -0.00   0.07   0.00    -0.02  -0.00  -0.01
     9   6    -0.03  -0.02   0.00    -0.01  -0.03  -0.07     0.04   0.02  -0.02
    10   6    -0.11  -0.07   0.05     0.01   0.00  -0.01    -0.03   0.09   0.01
    11   6     0.12  -0.04  -0.03    -0.01   0.00   0.01     0.13  -0.09   0.03
    12   1    -0.03   0.02   0.03    -0.01   0.02  -0.00    -0.10  -0.16   0.01
    13   1    -0.43   0.12   0.13     0.03  -0.01  -0.00     0.23   0.15  -0.25
    14   1     0.27  -0.01  -0.14     0.00   0.00  -0.00    -0.09  -0.16  -0.10
    15   1     0.14   0.07  -0.06    -0.02   0.00   0.01    -0.23  -0.05   0.01
    16   1     0.00   0.23  -0.00     0.00  -0.02  -0.00    -0.31   0.00   0.04
    17   1     0.05   0.18   0.08    -0.01   0.11  -0.13     0.07   0.20   0.12
    18   1    -0.10  -0.00  -0.03     0.12   0.37   0.06    -0.14  -0.09  -0.05
    19   1    -0.14  -0.10  -0.05    -0.17  -0.26  -0.26    -0.12  -0.07   0.00
    20   1    -0.00   0.01   0.03     0.03  -0.11  -0.35     0.07   0.01  -0.07
    21   1     0.00   0.01  -0.03    -0.03  -0.11   0.35     0.07  -0.01  -0.07
    22   1    -0.00   0.01   0.00    -0.00  -0.15   0.00     0.01   0.00   0.14
    23   1     0.14  -0.10   0.05     0.17  -0.26   0.26    -0.12   0.07   0.00
    24   1     0.10  -0.00   0.03    -0.12   0.37  -0.06    -0.14   0.09  -0.05
    25   1    -0.05   0.18  -0.08     0.01   0.11   0.13     0.07  -0.20   0.12
    26   1    -0.14   0.07   0.06     0.02   0.00  -0.01    -0.23   0.05   0.01
    27   1    -0.27  -0.01   0.14    -0.00   0.00   0.00    -0.09   0.16  -0.10
    28   1     0.03   0.02  -0.03     0.01   0.02   0.00    -0.10   0.16   0.01
    29   1     0.43   0.12  -0.13    -0.03  -0.01   0.00     0.23  -0.15  -0.25
                     31                     32                     33
                      A                      A                      A
 Frequencies --   1033.5028              1049.5367              1053.3575
 Red. masses --      1.8465                 1.5020                 1.6647
 Frc consts  --      1.1620                 0.9748                 1.0883
 IR Inten    --      1.1576                 0.2830                 0.0006
  Atom  AN      X      Y      Z        X      Y      Z        X      Y      Z
     1   8     0.00   0.00   0.01    -0.00   0.01  -0.00     0.01  -0.00   0.01
     2   6     0.02  -0.00  -0.03     0.00  -0.02  -0.00     0.01   0.00  -0.02
     3   6    -0.09   0.02   0.07     0.05   0.01  -0.02     0.01  -0.05  -0.01
     4   6     0.12   0.04  -0.05    -0.06  -0.04   0.00    -0.07   0.03  -0.01
     5   6    -0.05  -0.00  -0.01    -0.00   0.05   0.00     0.13   0.00  -0.02
     6   6     0.02  -0.00   0.05     0.00   0.06  -0.00    -0.00   0.00   0.05
     7   6     0.03  -0.04  -0.01     0.06  -0.04  -0.07     0.03  -0.04   0.03
     8   6    -0.06  -0.00  -0.03     0.00   0.05   0.00    -0.10   0.00  -0.05
     9   6     0.03   0.04  -0.01    -0.06  -0.04   0.07     0.03   0.04   0.03
    10   6     0.12  -0.04  -0.05     0.06  -0.04  -0.00    -0.07  -0.03  -0.01
    11   6    -0.09  -0.02   0.07    -0.05   0.01   0.02     0.01   0.05  -0.01
    12   1    -0.25   0.01   0.07    -0.00   0.01  -0.02     0.11  -0.03  -0.01
    13   1    -0.21   0.14  -0.03     0.10  -0.02  -0.04     0.13  -0.16   0.04
    14   1     0.28   0.15   0.01    -0.09  -0.06  -0.01    -0.21  -0.00   0.11
    15   1     0.09  -0.01  -0.04    -0.16  -0.08   0.00    -0.02  -0.12  -0.00
    16   1    -0.32   0.00  -0.02    -0.00   0.06   0.00     0.08   0.00  -0.02
    17   1     0.05   0.19   0.07     0.12   0.34   0.21     0.03   0.12   0.00
    18   1    -0.10  -0.02  -0.03    -0.29  -0.24  -0.11    -0.02   0.12   0.01
    19   1    -0.14  -0.12  -0.04    -0.20  -0.08   0.05    -0.16  -0.19  -0.12
    20   1     0.13   0.02  -0.15     0.02  -0.05  -0.20     0.22   0.04  -0.25
    21   1     0.13  -0.02  -0.15    -0.02  -0.05   0.20     0.22  -0.04  -0.25
    22   1     0.00   0.00   0.27    -0.00  -0.05  -0.00     0.01  -0.00   0.49
    23   1    -0.14   0.12  -0.04     0.20  -0.08  -0.05    -0.16   0.19  -0.12
    24   1    -0.10   0.02  -0.03     0.29  -0.24   0.11    -0.02  -0.12   0.01
    25   1     0.05  -0.19   0.07    -0.12   0.34  -0.21     0.03  -0.12   0.00
    26   1     0.09   0.01  -0.04     0.16  -0.08  -0.00    -0.02   0.12  -0.00
    27   1     0.28  -0.15   0.01     0.09  -0.06   0.01    -0.21   0.00   0.11
    28   1    -0.25  -0.01   0.07     0.00   0.01   0.02     0.11   0.03  -0.01
    29   1    -0.21  -0.14  -0.03    -0.10  -0.02   0.04     0.13   0.16   0.04
                     34                     35                     36
                      A                      A                      A
 Frequencies --   1080.9148              1126.0027              1134.2048
 Red. masses --      1.4949                 1.5921                 2.1816
 Frc consts  --      1.0291                 1.1893                 1.6535
 IR Inten    --      3.5181                 1.3159                 0.0027
  Atom  AN      X      Y      Z        X      Y      Z        X      Y      Z
     1   8    -0.00   0.00  -0.00    -0.00   0.00   0.00    -0.03   0.00   0.01
     2   6    -0.00   0.06  -0.00     0.00   0.00  -0.00     0.05  -0.00  -0.13
     3   6     0.06  -0.03  -0.01     0.06   0.00  -0.02    -0.01  -0.01   0.11
     4   6    -0.09  -0.05   0.01    -0.04  -0.07  -0.03    -0.02   0.03  -0.12
     5   6     0.00   0.10  -0.00     0.00   0.16   0.00     0.09  -0.00   0.13
     6   6    -0.00  -0.01  -0.00    -0.00   0.01  -0.00     0.01  -0.00   0.03
     7   6    -0.02   0.00   0.02    -0.03  -0.00   0.03    -0.03   0.03  -0.03
     8   6    -0.00  -0.01  -0.00     0.00  -0.05   0.00     0.03   0.00  -0.01
     9   6     0.02   0.00  -0.02     0.03  -0.00  -0.03    -0.03  -0.03  -0.03
    10   6     0.09  -0.05  -0.01     0.04  -0.07   0.03    -0.02  -0.03  -0.12
    11   6    -0.06  -0.03   0.01    -0.06   0.00   0.02    -0.01   0.01   0.11
    12   1     0.44  -0.23  -0.04    -0.30   0.19  -0.00     0.01  -0.30   0.08
    13   1    -0.12   0.07   0.03     0.04   0.01  -0.03     0.04   0.08  -0.15
    14   1    -0.17  -0.10  -0.01     0.20   0.06  -0.05    -0.22   0.04   0.22
    15   1     0.10   0.06   0.00    -0.41  -0.24  -0.02     0.14  -0.27  -0.10
    16   1     0.00   0.52  -0.00     0.00   0.00   0.00    -0.12   0.00   0.12
    17   1    -0.04  -0.07  -0.06    -0.05  -0.12  -0.09    -0.04  -0.17   0.02
    18   1     0.07   0.07   0.03     0.09   0.10   0.04     0.01  -0.13  -0.01
    19   1     0.04   0.01  -0.02     0.04  -0.01  -0.05     0.11   0.15   0.10
    20   1    -0.00   0.01   0.05    -0.00   0.04   0.16    -0.05  -0.01   0.05
    21   1     0.00   0.01  -0.05     0.00   0.04  -0.16    -0.05   0.01   0.05
    22   1     0.00   0.01   0.00     0.00   0.10  -0.00     0.01  -0.00  -0.15
    23   1    -0.04   0.01   0.02    -0.04  -0.01   0.05     0.11  -0.15   0.10
    24   1    -0.07   0.07  -0.03    -0.09   0.10  -0.04     0.01   0.13  -0.01
    25   1     0.04  -0.07   0.06     0.05  -0.12   0.09    -0.04   0.17   0.02
    26   1    -0.10   0.06  -0.00     0.41  -0.24   0.02     0.14   0.27  -0.10
    27   1     0.17  -0.10   0.01    -0.20   0.06   0.05    -0.22  -0.04   0.22
    28   1    -0.44  -0.23   0.04     0.30   0.19   0.00     0.01   0.30   0.08
    29   1     0.12   0.07  -0.03    -0.04   0.01   0.03     0.04  -0.08  -0.15
                     37                     38                     39
                      A                      A                      A
 Frequencies --   1187.9210              1206.6765              1250.0563
 Red. masses --      2.0495                 1.5377                 2.4452
 Frc consts  --      1.7040                 1.3192                 2.2512
 IR Inten    --     31.0245                 0.2380                14.3723
  Atom  AN      X      Y      Z        X      Y      Z        X      Y      Z
     1   8    -0.00  -0.03  -0.00     0.04  -0.00   0.01     0.00  -0.02   0.00
     2   6     0.00   0.20  -0.00    -0.02   0.00   0.07    -0.00   0.12   0.00
     3   6     0.04  -0.09  -0.05    -0.02  -0.02  -0.04    -0.04  -0.03  -0.01
     4   6    -0.05   0.02   0.06     0.02   0.01   0.00    -0.00   0.01   0.03
     5   6    -0.00  -0.08  -0.00     0.06   0.00   0.00     0.00  -0.04   0.00
     6   6     0.00  -0.06   0.00     0.05  -0.00   0.13    -0.00   0.28  -0.00
     7   6     0.02   0.02  -0.01    -0.03   0.02  -0.06    -0.00  -0.08   0.02
     8   6    -0.00   0.04  -0.00     0.00   0.00  -0.04     0.00  -0.11   0.00
     9   6    -0.02   0.02   0.01    -0.03  -0.02  -0.06     0.00  -0.08  -0.02
    10   6     0.05   0.02  -0.06     0.02  -0.01   0.00     0.00   0.01  -0.03
    11   6    -0.04  -0.09   0.05    -0.02   0.02  -0.04     0.04  -0.03   0.01
    12   1     0.14   0.07  -0.03    -0.23   0.22  -0.01     0.16  -0.05  -0.01
    13   1    -0.13  -0.06   0.13     0.21  -0.22   0.07     0.22  -0.22   0.05
    14   1     0.47   0.28  -0.01    -0.03  -0.03  -0.02    -0.03  -0.02  -0.01
    15   1    -0.11   0.03   0.06    -0.19  -0.10   0.01    -0.00   0.04   0.03
    16   1    -0.00  -0.27  -0.00    -0.45   0.00  -0.01     0.00  -0.25   0.00
    17   1     0.02  -0.02   0.06    -0.02  -0.14   0.07    -0.02   0.03  -0.12
    18   1    -0.02  -0.06  -0.01    -0.04  -0.22  -0.04    -0.07   0.08  -0.01
    19   1     0.02   0.06   0.06     0.08   0.14   0.12    -0.14  -0.21  -0.15
    20   1     0.00  -0.03  -0.13     0.02   0.00  -0.05     0.03   0.10   0.34
    21   1    -0.00  -0.03   0.13     0.02  -0.00  -0.05    -0.03   0.10  -0.34
    22   1    -0.00  -0.06   0.00     0.01  -0.00  -0.01     0.00   0.25  -0.00
    23   1    -0.02   0.06  -0.06     0.08  -0.14   0.12     0.14  -0.21   0.15
    24   1     0.02  -0.06   0.01    -0.04   0.22  -0.04     0.07   0.08   0.01
    25   1    -0.02  -0.02  -0.06    -0.02   0.14   0.07     0.02   0.03   0.12
    26   1     0.11   0.03  -0.06    -0.19   0.10   0.01     0.00   0.04  -0.03
    27   1    -0.47   0.28   0.01    -0.03   0.03  -0.02     0.03  -0.02   0.01
    28   1    -0.14   0.07   0.03    -0.23  -0.22  -0.01    -0.16  -0.05   0.01
    29   1     0.13  -0.06  -0.13     0.21   0.22   0.07    -0.22  -0.22  -0.05
                     40                     41                     42
                      A                      A                      A
 Frequencies --   1258.5333              1275.0952              1281.5079
 Red. masses --      1.7677                 2.0254                 1.5941
 Frc consts  --      1.6496                 1.9402                 1.5424
 IR Inten    --     16.8070                 6.7659                 4.2966
  Atom  AN      X      Y      Z        X      Y      Z        X      Y      Z
     1   8    -0.04  -0.00  -0.01    -0.01   0.00   0.00     0.00  -0.03   0.00
     2   6     0.01   0.00  -0.03     0.02  -0.00  -0.05     0.00   0.16  -0.00
     3   6     0.03   0.00  -0.01    -0.04   0.00   0.01    -0.06  -0.01   0.02
     4   6    -0.03  -0.00   0.06     0.02   0.00   0.06     0.02  -0.02  -0.04
     5   6    -0.01  -0.00  -0.05     0.03  -0.00  -0.12    -0.00   0.05  -0.00
     6   6     0.18   0.00   0.08    -0.15   0.00   0.16     0.00  -0.09  -0.00
     7   6    -0.06   0.01  -0.02     0.06   0.00  -0.05    -0.01   0.02  -0.00
     8   6    -0.06  -0.00  -0.02     0.05  -0.00  -0.03    -0.00   0.03   0.00
[...]
 0.00004305,0.00007203,-0.00010459,-0.00004276,-0.00006529,0.00032480,-
 0.00018756,0.00036957,-0.00016264,-0.00002078,-0.00009193,0.00093481,-
 0.00099548,-0.00003650,0.00004844,0.00005314,-0.00031790,0.00007607,0.
 00015108,0.00011027,-0.00009809,0.00014854,0.00010585,0.11767085,0.000
 14999,0.00026843,-0.00003953,0.00002008,-0.00063557,0.00018357,0.00009
 709,0.00086977,-0.00007622,0.00028281,-0.00078590,0.00050549,0.0010428
 3,-0.00020137,0.00038551,0.01396513,-0.02077968,-0.00663622,-0.0049055
 5,-0.00401335,0.00181156,0.00123113,0.00081971,-0.00132866,0.10401125,
 -0.23682788,-0.05762012,-0.00013287,0.00012620,-0.00003734,-0.00009222
 ,0.00008610,-0.00002036,-0.00001092,-0.00001808,0.00006009,-0.00003752
 ,-0.00000140,-0.00003136,0.00047804,0.00154022,-0.00028223,-0.00007351
 ,0.00005281,-0.00002587,-0.00006579,0.00001310,0.00006920,-0.00016981,
 0.00040868,0.00009360,-0.00006485,0.00026697,-0.00016294,0.00099548,-0
 .00169315,-0.00042818,-0.00020413,0.00042770,-0.00008350,-0.00072416,0
 .00042988,0.00090338,-0.00002957,-0.00008310,0.00010374,-0.11525605,0.
 25788133,0.00014982,0.00014995,-0.00003230,-0.00007932,-0.00036383,0.0
 0010453,0.00013961,0.00042781,-0.00009533,-0.00056725,-0.00090028,0.00
 029326,0.00034523,-0.00057230,-0.00020712,-0.00345504,0.00508022,-0.00
 008223,0.00039675,0.00126890,-0.00022645,-0.00069392,0.00085649,0.0005
 8613,0.03262989,-0.05791531,-0.06751952,-0.00022344,0.00013754,0.00007
 297,0.00000340,0.00000545,-0.00003600,-0.00003894,-0.00003283,-0.00001
 136,-0.00000719,-0.00000829,0.00000687,-0.00096970,0.00048994,-0.00023
 031,0.00017746,0.00015029,-0.00006324,-0.00002144,-0.00003787,0.000113
 56,0.00038159,-0.00010205,0.00003664,-0.00011625,0.00033242,0.00030941
 ,-0.00003650,0.00042817,0.00067468,-0.00013266,-0.00020800,0.00002622,
 0.00029641,0.00002330,0.00008765,-0.00011004,0.00008642,-0.00004955,-0
 .03547722,0.06231982,0.06814895,0.00009323,0.00004425,-0.00000322,-0.0
 0010141,-0.00010834,0.00000304,-0.00000982,0.00008600,-0.00002880,-0.0
 0017173,-0.00003951,-0.00016374,0.00045628,0.00031448,0.00188557,-0.00
 594211,0.00005484,0.01849989,0.00017620,0.00090206,-0.00030931,-0.0022
 1897,-0.00372318,-0.00029932,-0.06444972,-0.00256915,0.06094389,0.0001
 7935,-0.00003535,-0.00023254,0.00000374,0.00004251,-0.00003804,-0.0000
 5191,-0.00000419,-0.00006809,0.00001080,0.00000096,-0.00000919,-0.0000
 5916,0.00021203,0.00020725,0.00030550,0.00000973,-0.00008487,-0.000168
 93,-0.00033995,-0.00082987,0.00003351,-0.00010557,-0.00016456,0.000455
 02,-0.00014068,-0.00020494,-0.00016264,0.00006485,-0.00011625,-0.00000
 023,-0.00033315,0.00147910,0.00017099,-0.00002386,-0.00038938,0.000279
 48,-0.00003383,0.00023963,-0.00421500,-0.00152355,0.01564412,0.0666516
 6,0.00001764,-0.00001865,-0.00000532,-0.00001877,0.00004872,0.00001016
 ,-0.00001806,0.00002795,0.00000040,-0.00005789,0.00015224,-0.00007706,
 0.00073176,0.00097097,0.00105601,-0.00545616,-0.00100777,0.02601570,-0
 .00021710,0.00147373,0.00103085,-0.00285401,-0.00461787,-0.00004762,-0
 .00252289,-0.05062393,0.01247289,0.00023823,-0.00010072,-0.00006712,0.
 00003665,0.00002206,-0.00004664,0.00000455,0.00002317,0.00001180,-0.00
 000415,-0.00000217,-0.00001041,-0.00010427,-0.00009784,-0.00012923,0.0
 0001659,-0.00014452,0.00001261,-0.00010498,0.00001945,-0.00074448,0.00
 004182,-0.00010967,0.00002112,0.00014068,-0.00043098,-0.00054789,0.000
 02078,0.00026697,-0.00033242,-0.00080091,0.00017542,0.00174347,-0.0002
 8771,0.00019713,0.00005118,0.00015226,-0.00011846,-0.00028122,0.005596
 39,0.00275251,-0.02796753,0.00588821,0.05205444,0.00001743,-0.00002424
 ,-0.00000345,-0.00001312,0.00005838,0.00002657,0.00002081,-0.00002900,
 -0.00002074,0.00030023,0.00006795,0.00015423,-0.00101690,-0.00051523,0
 .00011417,0.00109203,-0.00023456,-0.00615871,-0.00011756,-0.00062427,0
 .00005468,0.00101977,0.00229004,0.00097087,0.06115317,0.01280288,-0.29
 144185,0.00006284,0.00006308,0.00041168,0.00002457,0.00004763,-0.00001
 725,0.00002714,0.00001384,0.00005645,0.00001738,-0.00000498,0.00001314
 ,0.00012047,-0.00008870,-0.00018332,-0.00016350,-0.00004469,0.00005240
 ,0.00030036,0.00006833,0.00081950,0.00008883,0.00001942,-0.00007647,-0
 .00020494,0.00054789,0.00051541,-0.00009193,0.00016294,0.00030941,0.00
 025033,-0.00000139,-0.00050348,-0.00015624,-0.00015562,0.00013723,-0.0
 0004695,-0.00020562,0.00043624,0.00097691,0.00030155,-0.00702255,-0.06
 815087,-0.01466950,0.31740708,-0.00026710,-0.00001406,0.00003493,0.000
 27583,0.00004427,-0.00007867,-0.00006461,-0.00013352,0.00011638,0.0004
 3369,-0.00017978,-0.00019800,-0.00113544,-0.00322941,0.00233914,-0.016
 75719,0.00128925,-0.01062447,0.00040472,0.00183541,-0.00015952,0.00000
 193,0.00072340,-0.00112735,-0.23433965,0.01373189,-0.11764292,-0.00049
 250,0.00068425,-0.00103905,-0.00020255,-0.00043246,0.00024802,0.000016
 39,-0.00001032,-0.00001616,-0.00005561,0.00002241,-0.00004185,-0.00001
 204,-0.00028664,0.00012814,-0.00011678,-0.00002056,0.00006193,0.000226
 14,0.00003056,-0.00012693,0.00103739,-0.00042087,0.00020717,0.00003351
 ,-0.00004182,0.00008883,0.00032480,0.00016981,0.00038159,0.00047195,0.
 00001984,0.00024102,-0.00004193,-0.00007389,-0.00001995,0.00029976,-0.
 00028809,0.00102624,-0.01293803,0.00096678,-0.00825083,0.00856488,-0.0
 0055368,0.00462323,0.25447838,0.00000809,0.00019112,-0.00001133,0.0001
 2589,-0.00046280,0.00010532,0.00005875,0.00046964,-0.00005279,0.000329
 50,-0.00091610,0.00032727,-0.00219788,-0.00490067,0.00191292,-0.022496
 61,-0.00002051,-0.01492097,-0.00182312,0.00082261,-0.00103091,0.000325
 08,0.00059391,-0.00097534,0.01492953,-0.04857119,0.00909584,-0.0012393
 7,0.00069263,-0.00119127,-0.00033281,-0.00043297,0.00017151,-0.0000138
 5,-0.00001943,0.00001757,-0.00002955,0.00001043,-0.00002336,0.00017477
 ,0.00073064,-0.00017106,0.00001308,0.00010522,-0.00002971,0.00020156,-
 0.00006062,0.00013131,0.00042087,-0.00073282,0.00033898,0.00010557,-0.
 00010967,-0.00001942,0.00018757,0.00040868,0.00010205,0.00029100,-0.00
 002096,-0.00017146,0.00008187,-0.00001486,0.00013561,0.00015863,0.0002
 0067,0.00047051,0.02331143,-0.00110870,0.01627747,0.00119404,-0.000968
 13,0.00027959,-0.01368268,0.05406667,-0.00006507,-0.00002590,-0.000004
 19,0.00009516,0.00006633,0.00001725,0.00000714,0.00003712,-0.00002815,
 0.00023417,-0.00000713,0.00018538,0.00039256,0.00025910,-0.00012808,0.
 00530904,-0.00050222,0.00182547,-0.00012153,0.00012447,-0.00005518,0.0
 0082673,-0.00000316,0.00070407,-0.11791112,0.00838553,-0.12416552,0.00
 006337,0.00023710,0.00056653,0.00004287,0.00002812,0.00001074,0.000024
 06,0.00000032,0.00003700,-0.00002195,-0.00000126,-0.00000279,0.0000746
 6,-0.00002768,-0.00014366,-0.00008706,-0.00002008,0.00002520,0.0001424
 4,0.00016004,0.00055660,0.00020717,-0.00033898,0.00040252,-0.00016456,
 -0.00002112,-0.00007646,0.00036957,-0.00009360,0.00003664,-0.00011274,
 -0.00015374,0.00011846,0.00007256,0.00000230,-0.00004349,-0.00000637,0
 .00023919,0.00007916,0.00858761,-0.00003069,0.00513317,-0.02778826,0.0
 0249834,-0.01615216,0.12992097,-0.01063719,0.13110705,-0.00014241,-0.0
 0029773,0.00032887,0.00174097,-0.00064858,-0.00048653,0.00001292,0.000
 02729,-0.00023182,0.00030750,0.00140615,-0.00038526,-0.00970291,-0.000
 89019,0.01874875,0.00065143,0.00033670,0.00139599,-0.00026231,-0.00005
 193,-0.00018228,-0.00048764,-0.00097995,0.00010944,-0.00004701,-0.0000
 7509,-0.00026965,-0.09546431,0.00002678,0.09921230,0.00932969,0.000523
 37,-0.02429516,-0.00012158,0.00000500,-0.00000816,0.00006711,0.0000355
 1,0.00004104,-0.00002493,0.00005760,-0.00026418,0.00067547,-0.00036713
 ,-0.00032505,-0.00176592,-0.00377678,-0.00008375,-0.00011678,-0.000013
 08,-0.00008706,0.00030550,-0.00001659,-0.00016350,-0.00004638,0.000073
 51,0.00017746,-0.00043960,0.00029912,-0.00138195,0.00005647,0.00006514
 ,-0.00006773,0.00029941,0.00037779,-0.00014839,0.00000774,-0.00003038,
 0.00000057,0.00017424,0.00014961,-0.00017342,-0.00007861,-0.00003998,-
 0.00011074,0.10511181,-0.00016501,0.00015778,-0.00014329,-0.00028088,-
 0.00028792,0.00075885,0.00022498,-0.00011757,-0.00016522,-0.00069628,0
 .00182484,0.00135032,-0.01209250,-0.00166976,0.02571291,0.00066816,0.0
 0063187,0.00033779,0.00008921,-0.00003201,0.00003382,-0.00013473,0.000
 19838,-0.00029027,0.00001244,-0.00001389,0.00006014,0.00045256,-0.0524
 9412,0.00447051,-0.00017656,-0.00004676,-0.00010573,-0.00006137,0.0001
 0304,-0.00017316,0.00006455,-0.00000693,0.00003053,0.00004120,0.000329
 94,-0.00036326,0.00036713,-0.00041343,-0.00058679,-0.00343876,-0.00437
 592,0.00077831,0.00002056,0.00010522,0.00002008,-0.00000973,-0.0001445
 2,0.00004469,-0.00004305,0.00005281,-0.00015029,-0.00032352,0.00019149
 ,-0.00045577,-0.00005769,-0.00016654,-0.00011570,0.00012374,0.00002106
 ,-0.00005860,0.00000714,-0.00003139,-0.00002755,0.00012566,0.00008498,
 -0.00012593,-0.00002022,-0.00001303,-0.00013654,0.00408416,0.05370132,
 -0.00124499,0.00034924,0.00035507,0.00209393,-0.00152442,-0.00050297,-
 0.00009013,0.00037805,-0.00032398,-0.00007768,-0.00058265,0.00009752,0
 .00243277,0.00086957,-0.00252559,-0.00027099,0.00031687,-0.00040304,0.
 00010534,0.00006538,0.00011108,-0.00065203,0.00018836,-0.00098053,0.00
 019042,-0.00004933,0.00008248,0.09908792,0.00396034,-0.25471681,0.0072
 8491,0.00092972,-0.02138008,0.00001414,-0.00004301,0.00014894,0.000012
 08,0.00010758,-0.00001224,-0.00016278,0.00007743,0.00034572,-0.0003250
 5,0.00058679,0.00040995,0.00005650,0.00049367,0.00104664,0.00006193,0.
 00002971,0.00002520,-0.00008487,-0.00001261,0.00005240,0.00007203,0.00
 002587,-0.00006324,-0.00121795,-0.00107056,-0.00037142,0.00004821,0.00
 003127,0.00002709,-0.00024020,-0.00024778,0.00022559,-0.00000251,0.000
 02720,0.00000143,-0.00001927,-0.00001572,0.00008148,0.00006517,0.00007
 962,0.00000216,-0.10466421,-0.00431253,0.28216866,-0.00176027,0.001725
 28,0.00080274,-0.00095781,-0.00456759,-0.00394881,-0.00005356,0.000112
 19,0.00060844,-0.00255941,-0.00288889,0.00016949,0.01257569,-0.0163414
 3,-0.00231624,0.00066355,0.00046168,-0.00034475,-0.00202092,-0.0001581
 4,-0.00109838,0.00000715,0.00007136,-0.00008086,0.00013450,0.00004953,
 0.00027303,-0.12579151,0.12049689,0.01766367,-0.01495892,0.02095571,-0
 .00099120,-0.00001520,-0.00005483,0.00001235,0.00006369,0.00010186,0.0
 0010616,0.00087090,-0.00119653,-0.00002418,-0.00002493,-0.00004120,-0.
 00016278,0.00067335,0.00083506,-0.00003644,-0.00001204,-0.00017477,0.0
 0007466,-0.00005916,0.00010427,0.00012047,-0.00263941,-0.00047804,-0.0
 0096969,-0.00001998,0.00003392,-0.00002315,-0.00002673,-0.00001929,0.0
 0007224,0.00003842,0.00002646,-0.00002957,0.00004123,0.00010191,0.0000
 2016,0.00000078,-0.00002603,0.00000326,0.00004491,0.00007409,0.0000092
 6,-0.00789580,0.01141792,0.00134933,0.14189913,0.00005222,0.00006393,0
 .00014899,-0.00060515,0.00072511,-0.00032269,-0.00036323,0.00070213,-0
 .00023309,-0.00542950,-0.00373384,0.00105063,0.01506181,-0.02182665,-0
 .00371297,0.00140001,-0.00038367,0.00036621,0.00060866,-0.00055768,0.0
 0078086,-0.00029559,0.00001031,-0.00013013,-0.00005937,0.00016987,0.00
 004091,0.11861774,-0.23160474,-0.02152214,-0.00053072,0.00181858,-0.00
 006617,0.00000480,-0.00001618,0.00004506,0.00012828,0.00005355,0.00006
 159,0.00119653,-0.00169399,-0.00009260,-0.00005760,0.00032994,-0.00007
 743,0.00003362,0.00097335,0.00044545,0.00028664,0.00073064,0.00002768,
 -0.00021203,-0.00009784,0.00008870,0.00047057,0.00154021,-0.00048994,0
 .00007434,-0.00005757,-0.00014270,0.00000043,0.00016229,0.00018977,-0.
 00004717,0.00000888,-0.00011069,0.00008713,0.00021880,0.00007845,0.000
 05098,-0.00002026,-0.00000503,-0.00014879,0.00003268,-0.00005648,-0.00
 066734,0.00128398,-0.00057885,-0.12988929,0.25053827,-0.00229737,0.001
 78776,0.00091597,-0.00180498,-0.00356087,-0.00380043,0.00026082,-0.000
 11550,0.00030919,0.00033312,0.00021911,0.00020489,-0.00168458,0.003479
 21,-0.00061626,0.00028608,-0.00064660,0.00016184,-0.00078516,-0.000691
 55,0.00045426,-0.00018857,-0.00006055,-0.00003799,-0.00017303,0.000096
 85,-0.00002338,0.01725542,-0.02169641,-0.05244112,-0.01594620,0.022371
 70,-0.00074788,-0.00001785,-0.00000718,0.00001544,0.00002925,0.0000836
 0,0.00005404,-0.00002418,0.00009261,0.00060677,-0.00026418,0.00036326,
 0.00034572,-0.00053823,-0.00004742,0.00023509,0.00012814,0.00017106,-0
 .00014366,0.00020725,0.00012923,-0.00018332,-0.00109763,0.00028223,-0.
 00023030,0.00018934,-0.00006611,-0.00006139,0.00007092,0.00018319,0.00
 006721,-0.00005943,0.00001109,-0.00002045,0.00001925,0.00006033,-0.000
 01468,0.00001848,0.00001976,-0.00002219,-0.00001708,-0.00004149,-0.000
 01923,0.01693371,-0.02592912,-0.00244616,-0.01234679,0.02349269,0.0553
 7819,-0.00120818,0.00376573,-0.00334760,-0.01126544,-0.00025559,0.0180
 9185,0.00031705,-0.00021311,-0.00115621,-0.00008712,-0.00031349,-0.000
 02626,0.00168358,0.00058816,-0.00048240,0.00006432,0.00033536,-0.00013
 071,0.00004489,0.00002538,0.00001573,-0.00004754,0.00010232,-0.0001610
 0,0.00004554,-0.00003313,0.00010019,0.00919111,-0.00303616,-0.02510029
 ,-0.09000632,0.00823293,0.10296222,0.00059853,0.00038712,-0.00025471,-
 0.00009468,-0.00008368,-0.00033434,-0.00001520,-0.00000480,-0.00001785
 ,-0.00012158,0.00006137,0.00001414,-0.00018657,-0.00004436,0.00048082,
 0.00001639,0.00001385,0.00002406,-0.00005191,-0.00000455,0.00002714,0.
 00001228,0.00001092,-0.00003894,-0.00004139,-0.00012085,0.00013269,-0.
 00000250,-0.00000295,0.00001689,-0.00005267,-0.00008926,0.00002565,-0.
 00000336,0.00001407,0.00000018,-0.00002000,-0.00002041,0.00000894,0.00
 003148,0.00003449,0.00000540,-0.00333944,-0.00042937,-0.00387319,0.001
 58270,-0.00008118,0.00090011,0.10097797,0.00250162,-0.00267030,0.00356
 163,0.01219234,0.00133664,-0.02890973,-0.00145462,-0.00047423,0.003416
 52,0.00043964,0.00021082,0.00019194,0.00044492,0.00003820,-0.00109152,
 -0.00009181,0.00005809,0.00006856,-0.00001140,0.00002807,-0.00000931,0
 .00003989,-0.00004958,0.00001570,0.00002585,-0.00002895,-0.00000305,-0
 .00078472,0.00044002,0.00108481,0.00950509,-0.05398714,-0.02579234,-0.
 00038712,-0.00160065,-0.00003227,0.00008761,0.00042024,0.00041774,0.00
 005483,-0.00001618,0.00000718,-0.00000500,0.00010304,0.00004301,-0.000
 24617,0.00002549,0.00008834,0.00001032,-0.00001943,-0.00000032,0.00000
 419,0.00002317,-0.00001384,-0.00000788,-0.00001808,0.00003283,-0.00001
 127,0.00001890,-0.00000466,-0.00000319,-0.00000056,-0.00000525,0.00001
 586,0.00000192,0.00001977,-0.00000578,-0.00000089,0.00000138,-0.000018
 31,-0.00000626,0.00000517,0.00001590,0.00001041,0.00001829,0.00044400,
 0.00100077,0.00033378,-0.00051507,0.00018612,0.00043372,-0.01189186,0.
 05124370,-0.00069571,-0.00065896,-0.00075412,0.00094064,0.00002427,0.0
 0065751,0.00057448,0.00014239,-0.00066213,-0.00034845,-0.00006683,-0.0
 0004710,0.00170413,0.00078394,0.00040015,-0.00023705,0.00010947,0.0002
 1184,0.00003709,0.00007922,-0.00008813,0.00014856,0.00022228,-0.000089
 47,-0.00003032,-0.00000417,0.00000525,0.00835665,-0.00211946,-0.024673
 86,0.09848654,-0.02007482,-0.24550443,-0.00025471,0.00003227,0.0005354
 7,-0.00003195,-0.00018192,0.00023121,0.00001235,-0.00004506,0.00001544
 ,-0.00000816,0.00017316,0.00014894,-0.00076285,-0.00073817,0.00070110,
 -0.00001615,-0.00001757,0.00003700,-0.00006809,-0.00001180,0.00005645,
 0.00003210,-0.00006009,-0.00001136,-0.00003456,-0.00017766,0.00015252,
 -0.00000720,-0.00000461,0.00001711,-0.00008195,-0.00008418,0.00008292,
 0.00000095,0.00000724,-0.00000098,-0.00002875,-0.00002038,0.00002395,-
 0.00000207,-0.00000239,0.00000433,-0.00448935,-0.00008097,-0.00228865,
 0.00043238,0.00038308,0.00135004,-0.10521887,0.02236003,0.27289305,0.0
 0183667,-0.00139827,0.00014413,0.01167328,0.01587123,-0.00310347,-0.00
 208680,0.00277718,0.00045014,-0.00029606,0.00020931,-0.00008191,-0.002
 48202,0.00193036,-0.00420285,0.00001807,-0.00147920,0.00051610,0.00007
 524,-0.00016118,-0.00000642,-0.00017186,-0.00000859,0.00008374,-0.0003
 5549,0.00021523,-0.00038650,-0.01316023,-0.01734312,0.00415909,-0.1510
 8310,-0.13036514,0.02303451,-0.00009468,-0.00008761,-0.00003195,0.0005
 9436,0.00092193,0.00009360,0.00006369,-0.00012828,0.00002925,0.0000671
 1,-0.00006455,0.00001208,0.00031094,0.00044255,-0.00005803,-0.00005561
 ,0.00002955,-0.00002195,0.00001080,0.00000415,0.00001738,0.00003006,0.
 00003752,-0.00000719,0.00003931,0.00002851,-0.00000209,0.00001815,-0.0
 0001659,-0.00001460,-0.00000855,0.00000227,-0.00009875,0.00002095,-0.0
 0003569,-0.00000545,0.00001597,0.00001186,0.00002773,-0.00014371,-0.00
 016995,0.00000469,0.00119537,0.00023025,0.00005116,0.00019965,0.000313
 20,0.00061338,-0.00802192,-0.01034783,0.00159032,0.16179041,0.00010247
 ,0.00600505,-0.00087901,-0.02219043,-0.02659988,0.00485190,0.00507594,
 -0.00332339,-0.00073743,0.00044053,0.00032886,0.00038969,0.00059710,0.
 00093111,0.00020527,0.00019473,0.00014946,0.00018772,-0.00003307,-0.00
 000203,-0.00004994,-0.00003334,-0.00003455,-0.00001279,0.00003662,-0.0
 0001043,-0.00002178,0.00149890,0.00213490,-0.00101454,-0.12605846,-0.2
 0967328,0.02914110,0.00008368,0.00042025,0.00018192,-0.00092194,-0.001
 53248,-0.00006342,-0.00010186,0.00005355,-0.00008360,-0.00003551,-0.00
 000693,-0.00010758,-0.00001130,-0.00004636,0.00006629,-0.00002241,0.00
 001043,0.00000126,-0.00000096,-0.00000217,0.00000498,0.00000559,-0.000
 00140,0.00000829,0.00000394,0.00001823,0.00000030,-0.00000227,0.000007
 23,0.00002128,-0.00000234,0.00001218,-0.00000891,0.00000344,0.00001826
 ,0.00002180,0.00000802,-0.00000248,0.00000009,0.00000303,0.00001717,-0
 .00000049,-0.00005700,0.00012634,-0.00041300,-0.00021703,0.00044377,-0
 .00041462,0.00305302,0.00372667,0.00003167,0.13858092,0.22683192,-0.00
 077914,0.00023851,-0.00115059,0.00074891,-0.00262008,-0.00063454,-0.00
 005819,0.00023935,0.00121160,-0.00010198,0.00047547,-0.00005820,-0.002
 73980,0.00166148,-0.00371463,-0.00045133,-0.00128198,0.00072819,0.0000
 8795,-0.00012332,-0.00003491,-0.00000728,-0.00002035,0.00015482,-0.000
 37011,0.00015948,-0.00039067,-0.01458418,-0.01998873,0.00337780,0.0226
 5196,0.02941740,-0.05538270,-0.00033434,-0.00041774,0.00023121,0.00009
 360,0.00006342,0.00039530,0.00010616,-0.00006159,0.00005404,0.00004105
 ,-0.00003053,-0.00001224,-0.00024874,-0.00006008,0.00034274,-0.0000418
 5,0.00002336,-0.00000279,-0.00000919,0.00001041,0.00001314,0.00001895,
 0.00003136,0.00000687,0.00002636,0.00004195,-0.00002094,0.00000727,-0.
 00001359,-0.00001713,-0.00000108,0.00001436,-0.00003662,0.00001913,-0.
 00002904,-0.00000386,0.00000830,0.00001825,0.00001772,-0.00013792,-0.0
 0016687,0.00000720,0.00087007,-0.00037723,0.00083330,0.00065520,0.0003
 4085,0.00070980,0.01733638,0.02376189,-0.00340405,-0.02280615,-0.03130
 643,0.05678012\\-0.00002798,0.00000001,0.00000909,0.00018150,-0.000000
 04,0.00005405,-0.00011420,0.00002646,-0.00009940,0.00003450,0.00001118
 ,0.00006803,0.00002041,-0.00000024,-0.00000947,-0.00003080,0.00000043,
 -0.00000102,-0.00002037,0.00000450,-0.00000882,0.00001644,-0.00000005,
 -0.00003243,-0.00002114,-0.00000400,-0.00000907,0.00003415,-0.00001102
 ,0.00006801,-0.00011477,-0.00002715,-0.00009935,0.00001823,0.00001097,
 0.00000684,0.00001177,-0.00002072,0.00001144,-0.00000416,0.00000648,-0
 .00001051,-0.00001360,-0.00001014,0.00002680,0.00000212,0.00000012,-0.
 00000080,0.00000516,0.00000850,0.00000528,0.00000451,-0.00001001,-0.00
 001182,0.00000810,0.00000829,0.00000987,-0.00001757,-0.00001011,-0.000
 00565,-0.00001757,0.00001012,-0.00000564,0.00001382,0.00000001,-0.0000
 0375,0.00000844,-0.00000895,0.00000968,0.00000439,0.00000997,-0.000011
 61,0.00000562,-0.00000857,0.00000561,-0.00001360,0.00001010,0.00002679
 ,-0.00000390,-0.00000668,-0.00001042,0.00001821,-0.00001089,0.00000688
 ,0.00001232,0.00002141,0.00001138\\\@


 ASKING DUMB QUESTIONS IS EASIER THAN CORECTING DUMB MISTAKES.
 Job cpu time:       0 days  0 hours  2 minutes 49.0 seconds.
 Elapsed time:       0 days  0 hours  2 minutes 50.5 seconds.
 File lengths (MBytes):  RWF=    140 Int=      0 D2E=      0 Chk=      5 Scr=      1
 Normal termination of Gaussian 16 at Thu Feb 22 10:52:13 2024.
