 Entering Gaussian System, Link 0=g16
 Input=/Volumes/SSD-PMU3/b3lyp_6-31gd_freq/MILHJIWCSVKZDK-NAKRPEOUSA-N_calculating/gaussianinput1.gjf
 Output=/Volumes/SSD-PMU3/b3lyp_6-31gd_freq/MILHJIWCSVKZDK-NAKRPEOUSA-N_calculating/gaussianinput1.log
 Initial command:
 /Applications/g16/l1.exe "/Users/macmini_m1_2022/PycharmProjects/sphere_model/sphere_model_lib/Gau-89164.inp" -scrdir="/Users/macmini_m1_2022/PycharmProjects/sphere_model/sphere_model_lib/"
 Entering Link 1 = /Applications/g16/l1.exe PID=     89165.
  
 Copyright (c) 1988,1990,1992,1993,1995,1998,2003,2009,2016,
            Gaussian, Inc.  All Rights Reserved.
  
 This is part of the Gaussian(R) 16 program.  It is based on
 the Gaussian(R) 09 system (copyright 2009, Gaussian, Inc.),
 the Gaussian(R) 03 system (copyright 2003, Gaussian, Inc.),
 the Gaussian(R) 98 system (copyright 1998, Gaussian, Inc.),
 the Gaussian(R) 94 system (copyright 1995, Gaussian, Inc.),
 the Gaussian 92(TM) system (copyright 1992, Gaussian, Inc.),
 the Gaussian 90(TM) system (copyright 1990, Gaussian, Inc.),
 the Gaussian 88(TM) system (copyright 1988, Gaussian, Inc.),
 the Gaussian 86(TM) system (copyright 1986, Carnegie Mellon
 University), and the Gaussian 82(TM) system (copyright 1983,
 Carnegie Mellon University). Gaussian is a federally registered
 trademark of Gaussian, Inc.
  
 This software contains proprietary and confidential information,
 including trade secrets, belonging to Gaussian, Inc.
  
 This software is provided under written license and may be
 used, copied, transmitted, or stored only in accord with that
 written license.
  
 The following legend is applicable only to US Government
 contracts under FAR:
  
                    RESTRICTED RIGHTS LEGEND
  
 Use, reproduction and disclosure by the US Government is
 subject to restrictions as set forth in subparagraphs (a)
 and (c) of the Commercial Computer Software - Restricted
 Rights clause in FAR 52.227-19.
  
 Gaussian, Inc.
 340 Quinnipiac St., Bldg. 40, Wallingford CT 06492
  
  
 ---------------------------------------------------------------
 Warning -- This program may not be used in any manner that
 competes with the business of Gaussian, Inc. or will provide
 assistance to any competitor of Gaussian, Inc.  The licensee
 of this program is prohibited from giving any competitor of
 Gaussian, Inc. access to this program.  By using this program,
 the user acknowledges that Gaussian, Inc. is engaged in the
 business of creating and licensing software in the field of
 computational chemistry and represents and warrants to the
 licensee that it is not a competitor of Gaussian, Inc. and that
 it will not use this program in any manner prohibited above.
 ---------------------------------------------------------------
  

 Cite this work as:
 Gaussian 16, Revision A.03,
 M. J. Frisch, G. W. Trucks, H. B. Schlegel, G. E. Scuseria, 
 M. A. Robb, J. R. Cheeseman, G. Scalmani, V. Barone, 
 G. A. Petersson, H. Nakatsuji, X. Li, M. Caricato, A. V. Marenich, 
 J. Bloino, B. G. Janesko, R. Gomperts, B. Mennucci, H. P. Hratchian, 
 J. V. Ortiz, A. F. Izmaylov, J. L. Sonnenberg, D. Williams-Young, 
 F. Ding, F. Lipparini, F. Egidi, J. Goings, B. Peng, A. Petrone, 
 T. Henderson, D. Ranasinghe, V. G. Zakrzewski, J. Gao, N. Rega, 
 G. Zheng, W. Liang, M. Hada, M. Ehara, K. Toyota, R. Fukuda, 
 J. Hasegawa, M. Ishida, T. Nakajima, Y. Honda, O. Kitao, H. Nakai, 
 T. Vreven, K. Throssell, J. A. Montgomery, Jr., J. E. Peralta, 
 F. Ogliaro, M. J. Bearpark, J. J. Heyd, E. N. Brothers, K. N. Kudin, 
 V. N. Staroverov, T. A. Keith, R. Kobayashi, J. Normand, 
 K. Raghavachari, A. P. Rendell, J. C. Burant, S. S. Iyengar, 
 J. Tomasi, M. Cossi, J. M. Millam, M. Klene, C. Adamo, R. Cammi, 
 J. W. Ochterski, R. L. Martin, K. Morokuma, O. Farkas, 
 J. B. Foresman, and D. J. Fox, Gaussian, Inc., Wallingford CT, 2016.
 
 ******************************************
 Gaussian 16:  EM64M-G16RevA.03 25-Dec-2016
                24-Feb-2024 
 ******************************************
 %nprocshared=10
 Will use up to   10 processors via shared memory.
 %mem=12GB
 %chk= 1.chk
 ---------------------
 # freq b3lyp/6-31g(d)
 ---------------------
 1/10=4,30=1,38=1/1,3;
 2/12=2,17=6,18=5,40=1/2;
 3/5=1,6=6,7=1,11=2,25=1,30=1,71=2,74=-5,140=1/1,2,3;
 4//1;
 5/5=2,38=5,98=1/2;
 8/6=4,10=90,11=11/1;
 11/6=1,8=1,9=11,15=111,16=1/1,2,10;
 10/6=1/2;
 6/7=2,8=2,9=2,10=2,28=1/1;
 7/8=1,10=1,25=1/1,2,3,16;
 1/10=4,30=1/3;
 99//99;
 ---------
 good luck
 ---------
 Symbolic Z-matrix:
 Charge =  0 Multiplicity = 1
 O                     1.21539   0.        0. 
 C                     0.        0.        0. 
 C                    -0.84966  -1.27188   0.00191 
 C                    -2.30864  -0.88594   0.31145 
 C                    -2.30995  -0.06506   1.63252 
 C                    -3.69252  -0.03156   2.31727 
 C                    -3.63552   0.24857   3.8256 
 C                    -1.61617   1.33451   1.36867 
 C                    -2.54478   2.5679    1.43182 
 C                    -1.81544   3.90686   1.2592 
 C                    -0.86147   1.25531   0.00191 
 C                    -1.8747    1.11603  -1.16219 
 C                    -2.86104  -0.04632  -0.85919 
 H                    -0.75735  -1.75674  -0.98065 
 H                    -0.43748  -1.97288   0.73761 
 H                    -2.91431  -1.79067   0.44391 
 H                    -1.65204  -0.61474   2.32246 
 H                    -4.35769   0.69043   1.82895 
 H                    -4.16347  -1.0137    2.17365 
 H                    -3.17345   1.21532   4.05401 
 H                    -3.04973  -0.52234   4.34128 
 H                    -4.64012   0.25097   4.26396 
 H                    -0.85563   1.48386   2.14664 
 H                    -3.34424   2.49223   0.68416 
 H                    -3.04847   2.57741   2.40434 
 H                    -1.39862   4.02746   0.25358 
 H                    -0.98842   4.00205   1.97381 
 H                    -2.50109   4.74417   1.43163 
 H                    -0.20767   2.12007  -0.1356 
 H                    -2.4084    2.06047  -1.30965 
 H                    -1.32767   0.92947  -2.09416 
 H                    -3.85396   0.3407   -0.60166 
 H                    -2.99598  -0.67852  -1.74485 
 

 GradGradGradGradGradGradGradGradGradGradGradGradGradGradGradGradGradGrad
 Berny optimization.
 Initialization pass.
 Trust Radius=3.00D-01 FncErr=1.00D-07 GrdErr=1.00D-07 EigMax=2.50D+02 EigMin=1.00D-04
 Number of steps in this run=      2 maximum allowed number of steps=      2.
 GradGradGradGradGradGradGradGradGradGradGradGradGradGradGradGradGradGrad

                          Input orientation:                          
 ---------------------------------------------------------------------
 Center     Atomic      Atomic             Coordinates (Angstroms)
 Number     Number       Type             X           Y           Z
 ---------------------------------------------------------------------
      1          8           0        1.215392    0.000000    0.000000
      2          6           0        0.000000    0.000000    0.000000
      3          6           0       -0.849655   -1.271881    0.001906
      4          6           0       -2.308637   -0.885939    0.311446
      5          6           0       -2.309949   -0.065055    1.632518
      6          6           0       -3.692518   -0.031557    2.317266
      7          6           0       -3.635516    0.248570    3.825595
      8          6           0       -1.616173    1.334505    1.368667
      9          6           0       -2.544784    2.567895    1.431818
     10          6           0       -1.815435    3.906855    1.259198
     11          6           0       -0.861469    1.255313    0.001906
     12          6           0       -1.874698    1.116028   -1.162186
     13          6           0       -2.861043   -0.046322   -0.859187
     14          1           0       -0.757353   -1.756744   -0.980649
     15          1           0       -0.437483   -1.972879    0.737611
     16          1           0       -2.914313   -1.790670    0.443910
     17          1           0       -1.652041   -0.614739    2.322464
     18          1           0       -4.357691    0.690434    1.828951
     19          1           0       -4.163473   -1.013695    2.173652
     20          1           0       -3.173454    1.215322    4.054007
     21          1           0       -3.049732   -0.522337    4.341282
     22          1           0       -4.640118    0.250968    4.263956
     23          1           0       -0.855626    1.483864    2.146643
     24          1           0       -3.344240    2.492229    0.684164
     25          1           0       -3.048473    2.577406    2.404342
     26          1           0       -1.398616    4.027456    0.253578
     27          1           0       -0.988416    4.002047    1.973811
     28          1           0       -2.501090    4.744166    1.431626
     29          1           0       -0.207674    2.120074   -0.135603
     30          1           0       -2.408401    2.060466   -1.309647
     31          1           0       -1.327669    0.929473   -2.094163
     32          1           0       -3.853955    0.340702   -0.601664
     33          1           0       -2.995982   -0.678520   -1.744852
 ---------------------------------------------------------------------
                    Distance matrix (angstroms):
                    1          2          3          4          5
     1  O    0.000000
     2  C    1.215392   0.000000
     3  C    2.425305   1.529575   0.000000
     4  C    3.647008   2.492326   1.540583   0.000000
     5  C    3.885534   2.829348   2.499557   1.555340   0.000000
     6  C    5.427550   4.359519   3.870551   2.582326   1.543211
     7  C    6.182902   5.283365   4.969244   3.923896   2.581681
     8  C    3.416418   2.503232   3.041189   2.554916   1.584207
     9  C    4.773166   3.888459   4.434184   3.638677   2.651010
    10  C    5.102451   4.488307   5.415978   4.910433   4.019948
    11  C    2.426760   1.522479   2.527222   2.602897   2.549581
    12  C    3.484946   2.471980   2.847443   2.523443   3.065089
    13  C    4.166254   2.987627   2.507819   1.542884   2.551989
    14  H    2.817720   2.149745   1.099557   2.198703   3.478650
    15  H    2.677371   2.151212   1.096606   2.205510   2.819003
    16  H    4.523054   3.449170   2.174241   1.096781   2.180778
    17  H    3.740844   2.915644   2.541781   2.132806   1.100464
    18  H    5.906015   4.776111   4.415324   2.997732   2.191483
    19  H    5.889357   4.804878   3.970457   2.631454   2.151347
    20  H    6.097044   5.289876   5.292045   4.378352   2.872040
    21  H    6.108261   5.331082   4.922635   4.113515   2.844958
    22  H    7.247848   6.306742   5.903537   4.727652   3.529026
    23  H    3.331523   2.746275   3.492000   3.330939   2.185985
    24  H    5.241138   4.226491   4.566941   3.552944   2.916991
    25  H    5.532127   4.660158   5.042173   4.113676   2.850216
    26  H    4.808091   4.270929   5.333636   4.997293   4.413689
    27  H    4.976854   4.570479   5.632227   5.329057   4.290017
    28  H    6.194264   5.550866   6.400325   5.743686   4.817209
    29  H    2.556994   2.134533   3.454911   3.694592   3.510071
    30  H    4.369505   3.429445   3.905688   3.364402   3.630960
    31  H    3.422952   2.648045   3.077005   3.169381   3.980215
    32  H    5.116283   3.915488   3.462736   2.174034   2.745936
    33  H    4.608749   3.532818   2.830187   2.178033   3.500515
                    6          7          8          9         10
     6  C    0.000000
     7  C    1.535180   0.000000
     8  C    2.660296   3.360580   0.000000
     9  C    2.976317   3.507012   1.545172   0.000000
    10  C    4.489325   4.825157   2.582377   1.534458   0.000000
    11  C    3.877082   4.830059   1.563293   2.569255   3.085694
    12  C    4.089989   5.360123   2.553387   3.047259   3.695312
    13  C    3.283508   4.757515   2.901675   3.490395   4.605264
    14  H    4.740011   5.950217   3.976516   5.264733   6.181651
    15  H    4.106007   4.969698   3.567398   5.053837   6.061524
    16  H    2.685059   4.014278   3.508142   4.484373   5.859524
    17  H    2.122186   2.634175   2.170384   3.423361   4.647800
    18  H    1.096439   2.168725   2.853526   2.639925   4.139209
    19  H    1.098644   2.144987   3.556794   3.999782   5.528229
    20  H    2.200092   1.095574   3.106506   3.016713   4.110903
    21  H    2.179605   1.096984   3.786739   4.274282   5.535384
    22  H    2.183430   1.096080   4.324465   4.216584   5.511163
    23  H    3.220803   3.474568   1.098174   2.130576   2.753121
    24  H    3.026188   3.871361   2.189768   1.097197   2.160804
    25  H    2.688692   2.790709   2.160766   1.095261   2.144568
    26  H    5.098665   5.660654   2.922797   2.198242   1.095242
    27  H    4.868274   4.952255   2.806432   2.184681   1.097130
    28  H    5.001139   5.218083   3.523185   2.176710   1.095876
    29  H    4.773910   5.562708   2.205406   2.849462   2.779020
    30  H    4.379499   5.582068   2.885829   2.791364   3.218653
    31  H    5.096744   6.390096   3.498353   4.074106   4.510848
    32  H    2.946997   4.433602   3.142852   3.287760   4.509525
    33  H    4.171873   5.683166   3.956026   4.564430   5.607466
                   11         12         13         14         15
    11  C    0.000000
    12  C    1.549562   0.000000
    13  C    2.536539   1.554266   0.000000
    14  H    3.169975   3.087756   2.714002   0.000000
    15  H    3.338001   3.900790   3.483537   1.761093   0.000000
    16  H    3.699669   3.479833   2.177992   2.585149   2.500829
    17  H    3.083357   3.897168   3.450752   3.607658   2.414840
    18  H    3.985066   3.910663   3.163677   5.181213   4.863362
    19  H    4.557204   4.571873   3.439513   4.701424   4.106732
    20  H    4.665447   5.376365   5.082206   6.326016   5.352443
    21  H    5.174816   5.861152   5.225617   5.924670   4.681278
    22  H    5.783768   6.151333   5.431398   6.827346   5.919691
    23  H    2.156888   3.481689   3.924052   4.504570   3.756233
    24  H    2.856499   2.731756   3.009926   5.245699   5.328159
    25  H    3.507508   4.029081   4.191623   5.957537   5.504576
    26  H    2.834897   3.272225   4.469072   5.949076   6.096071
    27  H    3.383648   4.353054   5.284118   6.476565   6.126292
    28  H    4.111515   4.503733   5.322233   7.149931   7.061078
    29  H    1.092780   2.200216   3.501030   4.005742   4.191370
    30  H    2.182073   1.094782   2.201444   4.171965   4.933929
    31  H    2.171870   1.096642   2.197402   2.963264   4.151508
    32  H    3.186814   2.198357   1.096348   3.759236   4.338041
    33  H    3.368534   2.194808   1.096488   2.599622   3.792612
                   16         17         18         19         20
    16  H    0.000000
    17  H    2.550512   0.000000
    18  H    3.187092   3.044269   0.000000
    19  H    2.270704   2.547273   1.749456   0.000000
    20  H    4.704885   2.943138   2.574645   3.079674   0.000000
    21  H    4.100794   2.457174   3.081132   2.486055   1.765586
    22  H    4.662557   3.667076   2.490411   2.489163   1.767812
    23  H    4.226117   2.251516   3.604847   4.144922   3.013715
    24  H    4.311123   3.898822   2.363067   3.896309   3.607700
    25  H    4.789716   3.485185   2.367655   3.767287   2.142962
    26  H    6.015327   5.088663   4.730078   6.061709   5.049892
    27  H    6.293270   4.677250   4.726498   5.939578   4.106999
    28  H    6.621965   5.498394   4.476335   6.038798   4.447662
    29  H    4.791205   3.950632   4.808948   5.549911   5.212222
    30  H    4.261708   4.573952   3.940497   4.966298   5.483462
    31  H    4.044556   4.690032   4.962761   5.480140   6.425623
    32  H    2.553213   3.783096   2.506781   3.103638   4.785741
    33  H    2.456466   4.284076   4.062063   4.102445   6.102860
                   21         22         23         24         25
    21  H    0.000000
    22  H    1.770115   0.000000
    23  H    3.695319   4.508373   0.000000
    24  H    4.748563   4.417857   3.057588   0.000000
    25  H    3.655153   3.376953   2.463904   1.747497   0.000000
    26  H    6.335308   6.391583   3.216892   2.515508   3.074160
    27  H    5.506723   5.714043   2.527598   3.081014   2.541416
    28  H    6.041784   5.725938   3.721340   2.518099   2.437346
    29  H    5.924705   6.518914   2.456268   3.263214   3.838048
    30  H    6.246213   6.270558   3.832691   2.244437   3.804029
    31  H    6.818226   7.201275   4.302861   3.771984   5.090520
    32  H    5.081764   4.929540   4.224925   2.557779   3.832456
    33  H    6.088375   6.298643   4.939713   4.009370   5.274431
                   26         27         28         29         30
    26  H    0.000000
    27  H    1.768647   0.000000
    28  H    1.765480   1.769997   0.000000
    29  H    2.282085   2.932747   3.821233   0.000000
    30  H    2.707838   4.070281   3.837371   2.495021   0.000000
    31  H    3.887727   5.109229   5.325410   2.551054   1.750026
    32  H    4.511351   5.315057   5.035376   4.083962   2.355516
    33  H    5.356446   6.306067   6.304003   4.265732   2.834907
                   31         32         33
    31  H    0.000000
    32  H    2.992712   0.000000
    33  H    2.343273   1.755508   0.000000
 Stoichiometry    C12H20O
 Framework group  C1[X(C12H20O)]
 Deg. of freedom    93
 Full point group                 C1      NOp   1
 Largest Abelian subgroup         C1      NOp   1
 Largest concise Abelian subgroup C1      NOp   1
                         Standard orientation:                         
 ---------------------------------------------------------------------
 Center     Atomic      Atomic             Coordinates (Angstroms)
 Number     Number       Type             X           Y           Z
 ---------------------------------------------------------------------
      1          8           0       -2.779447    0.256988   -1.649566
      2          6           0       -1.982349   -0.050556   -0.785141
      3          6           0       -1.785985   -1.481086   -0.280538
      4          6           0       -0.502816   -1.528508    0.570711
      5          6           0        0.655413   -0.945077   -0.287891
      6          6           0        2.050418   -1.366876    0.219598
      7          6           0        3.147324   -1.313795   -0.853135
      8          6           0        0.414507    0.607771   -0.488735
      9          6           0        1.418915    1.541672    0.222989
     10          6           0        1.201203    3.031769   -0.071585
     11          6           0       -1.058550    0.930579   -0.076684
     12          6           0       -1.247553    0.717841    1.446524
     13          6           0       -0.719848   -0.688336    1.846445
     14          1           0       -2.671530   -1.771829    0.302817
     15          1           0       -1.741578   -2.158266   -1.141933
     16          1           0       -0.270630   -2.566322    0.838963
     17          1           0        0.549757   -1.408553   -1.280387
     18          1           0        2.350873   -0.771217    1.089709
     19          1           0        1.979192   -2.402646    0.578940
     20          1           0        3.279286   -0.307851   -1.266589
     21          1           0        2.904141   -1.980437   -1.689690
     22          1           0        4.113332   -1.632262   -0.444724
     23          1           0        0.502152    0.824816   -1.561673
     24          1           0        1.398972    1.380589    1.308114
     25          1           0        2.431880    1.275656   -0.097531
     26          1           0        0.259125    3.405146    0.343906
     27          1           0        1.185530    3.223500   -1.151718
     28          1           0        2.009877    3.632117    0.360357
     29          1           0       -1.337204    1.943145   -0.378727
     30          1           0       -0.731672    1.507561    2.002182
     31          1           0       -2.311013    0.819508    1.694196
     32          1           0        0.221596   -0.608891    2.402638
     33          1           0       -1.430580   -1.192064    2.512330
 ---------------------------------------------------------------------
 Rotational constants (GHZ):           0.9666773           0.7036381           0.5609683
 Standard basis: 6-31G(d) (6D, 7F)
 There are   235 symmetry adapted cartesian basis functions of A   symmetry.
 There are   235 symmetry adapted basis functions of A   symmetry.
   235 basis functions,   444 primitive gaussians,   235 cartesian basis functions
    50 alpha electrons       50 beta electrons
       nuclear repulsion energy       878.8813929611 Hartrees.
 NAtoms=   33 NActive=   33 NUniq=   33 SFac= 1.00D+00 NAtFMM=   60 NAOKFM=F Big=F
 Integral buffers will be    131072 words long.
 Raffenetti 2 integral format.
 Two-electron integral symmetry is turned on.
 One-electron integrals computed using PRISM.
 NBasis=   235 RedAO= T EigKep=  1.18D-03  NBF=   235
 NBsUse=   235 1.00D-06 EigRej= -1.00D+00 NBFU=   235
 ExpMin= 1.61D-01 ExpMax= 5.48D+03 ExpMxC= 8.25D+02 IAcc=3 IRadAn=         5 AccDes= 0.00D+00
 Harris functional with IExCor=  402 and IRadAn=       5 diagonalized for initial guess.
 HarFok:  IExCor=  402 AccDes= 0.00D+00 IRadAn=         5 IDoV= 1 UseB2=F ITyADJ=14
 ICtDFT=  3500011 ScaDFX=  1.000000  1.000000  1.000000  1.000000
 FoFCou: FMM=F IPFlag=           0 FMFlag=      100000 FMFlg1=           0
         NFxFlg=           0 DoJE=T BraDBF=F KetDBF=T FulRan=T
         wScrn=  0.000000 ICntrl=       500 IOpCl=  0 I1Cent=   200000004 NGrid=           0
         NMat0=    1 NMatS0=      1 NMatT0=    0 NMatD0=    1 NMtDS0=    0 NMtDT0=    0
 Petite list used in FoFCou.
 Requested convergence on RMS density matrix=1.00D-08 within 128 cycles.
 Requested convergence on MAX density matrix=1.00D-06.
 Requested convergence on             energy=1.00D-06.
 No special actions if energy rises.
 Integral accuracy reduced to 1.0D-05 until final iterations.
 Initial convergence to 1.0D-05 achieved.  Increase integral accuracy.
 SCF Done:  E(RB3LYP) =  -544.549357515     A.U. after   13 cycles
            NFock= 13  Conv=0.91D-08     -V/T= 2.0098
 DoSCS=F DFT=T ScalE2(SS,OS)=  1.000000  1.000000
 Range of M.O.s used for correlation:     1   235
 NBasis=   235 NAE=    50 NBE=    50 NFC=     0 NFV=     0
 NROrb=    235 NOA=    50 NOB=    50 NVA=   185 NVB=   185
 Symmetrizing basis deriv contribution to polar:
 IMax=3 JMax=2 DiffMx= 0.00D+00
 G2DrvN: will do    34 centers at a time, making    1 passes.
 Calling FoFCou, ICntrl=  3107 FMM=F I1Cent=   0 AccDes= 0.00D+00.
 End of G2Drv F.D. properties file   721 does not exist.
 End of G2Drv F.D. properties file   722 does not exist.
 End of G2Drv F.D. properties file   788 does not exist.
          IDoAtm=111111111111111111111111111111111
          Differentiating once with respect to electric field.
                with respect to dipole field.
          Differentiating once with respect to nuclear coordinates.
 Keep R1 ints in memory in canonical form, NReq=395129331.
          There are   102 degrees of freedom in the 1st order CPHF.  IDoFFX=6 NUNeed=     3.
     99 vectors produced by pass  0 Test12= 9.25D-15 1.00D-09 XBig12= 8.07D+01 1.56D+00.
 AX will form    99 AO Fock derivatives at one time.
     99 vectors produced by pass  1 Test12= 9.25D-15 1.00D-09 XBig12= 7.57D+00 5.98D-01.
     99 vectors produced by pass  2 Test12= 9.25D-15 1.00D-09 XBig12= 7.12D-02 2.91D-02.
     99 vectors produced by pass  3 Test12= 9.25D-15 1.00D-09 XBig12= 2.06D-04 1.44D-03.
     99 vectors produced by pass  4 Test12= 9.25D-15 1.00D-09 XBig12= 2.50D-07 5.40D-05.
     48 vectors produced by pass  5 Test12= 9.25D-15 1.00D-09 XBig12= 1.31D-10 1.08D-06.
      4 vectors produced by pass  6 Test12= 9.25D-15 1.00D-09 XBig12= 7.26D-14 3.62D-08.
      1 vectors produced by pass  7 Test12= 9.25D-15 1.00D-09 XBig12= 4.38D-17 1.21D-09.
 InvSVY:  IOpt=1 It=  1 EMax= 8.88D-15
 Solved reduced A of dimension   548 with   102 vectors.
 Isotropic polarizability for W=    0.000000      119.76 Bohr**3.
 End of Minotr F.D. properties file   721 does not exist.
 End of Minotr F.D. properties file   722 does not exist.
 End of Minotr F.D. properties file   788 does not exist.

 **********************************************************************

            Population analysis using the SCF density.

 **********************************************************************

 Orbital symmetries:
       Occupied  (A) (A) (A) (A) (A) (A) (A) (A) (A) (A) (A) (A)
                 (A) (A) (A) (A) (A) (A) (A) (A) (A) (A) (A) (A)
                 (A) (A) (A) (A) (A) (A) (A) (A) (A) (A) (A) (A)
                 (A) (A) (A) (A) (A) (A) (A) (A) (A) (A) (A) (A)
                 (A) (A)
       Virtual   (A) (A) (A) (A) (A) (A) (A) (A) (A) (A) (A) (A)
                 (A) (A) (A) (A) (A) (A) (A) (A) (A) (A) (A) (A)
                 (A) (A) (A) (A) (A) (A) (A) (A) (A) (A) (A) (A)
                 (A) (A) (A) (A) (A) (A) (A) (A) (A) (A) (A) (A)
                 (A) (A) (A) (A) (A) (A) (A) (A) (A) (A) (A) (A)
                 (A) (A) (A) (A) (A) (A) (A) (A) (A) (A) (A) (A)
                 (A) (A) (A) (A) (A) (A) (A) (A) (A) (A) (A) (A)
                 (A) (A) (A) (A) (A) (A) (A) (A) (A) (A) (A) (A)
                 (A) (A) (A) (A) (A) (A) (A) (A) (A) (A) (A) (A)
                 (A) (A) (A) (A) (A) (A) (A) (A) (A) (A) (A) (A)
                 (A) (A) (A) (A) (A) (A) (A) (A) (A) (A) (A) (A)
                 (A) (A) (A) (A) (A) (A) (A) (A) (A) (A) (A) (A)
                 (A) (A) (A) (A) (A) (A) (A) (A) (A) (A) (A) (A)
                 (A) (A) (A) (A) (A) (A) (A) (A) (A) (A) (A) (A)
                 (A) (A) (A) (A) (A) (A) (A) (A) (A) (A) (A) (A)
                 (A) (A) (A) (A) (A)
 The electronic state is 1-A.
 Alpha  occ. eigenvalues --  -19.12785 -10.26219 -10.19603 -10.19182 -10.19076
 Alpha  occ. eigenvalues --  -10.18945 -10.18796 -10.18625 -10.18548 -10.18493
 Alpha  occ. eigenvalues --  -10.18407 -10.17774 -10.17734  -1.02689  -0.86277
 Alpha  occ. eigenvalues --   -0.78829  -0.78123  -0.74160  -0.72650  -0.70526
 Alpha  occ. eigenvalues --   -0.64233  -0.62224  -0.59422  -0.57987  -0.55221
 Alpha  occ. eigenvalues --   -0.50402  -0.49447  -0.47220  -0.45627  -0.45251
 Alpha  occ. eigenvalues --   -0.43595  -0.41898  -0.41321  -0.40503  -0.40254
 Alpha  occ. eigenvalues --   -0.39819  -0.38454  -0.38244  -0.37852  -0.36094
 Alpha  occ. eigenvalues --   -0.35689  -0.34992  -0.34510  -0.34109  -0.33340
 Alpha  occ. eigenvalues --   -0.32658  -0.29897  -0.29605  -0.28751  -0.22768
 Alpha virt. eigenvalues --   -0.00720   0.06464   0.08999   0.09811   0.10167
 Alpha virt. eigenvalues --    0.11835   0.12375   0.13793   0.14004   0.15134
 Alpha virt. eigenvalues --    0.15741   0.16167   0.17023   0.17502   0.17763
 Alpha virt. eigenvalues --    0.18057   0.18655   0.19428   0.19541   0.20667
 Alpha virt. eigenvalues --    0.21345   0.22016   0.22559   0.23135   0.23988
 Alpha virt. eigenvalues --    0.24901   0.25308   0.26276   0.26707   0.27463
 Alpha virt. eigenvalues --    0.31248   0.31467   0.35135   0.36077   0.38299
 Alpha virt. eigenvalues --    0.48906   0.49882   0.51005   0.52542   0.53579
 Alpha virt. eigenvalues --    0.54764   0.55939   0.57069   0.58752   0.58948
 Alpha virt. eigenvalues --    0.60716   0.61992   0.63069   0.64363   0.65157
 Alpha virt. eigenvalues --    0.65992   0.67075   0.67640   0.68632   0.68724
 Alpha virt. eigenvalues --    0.70564   0.72114   0.75027   0.76240   0.76801
 Alpha virt. eigenvalues --    0.78053   0.80785   0.81788   0.84046   0.84372
 Alpha virt. eigenvalues --    0.85219   0.86041   0.86109   0.87286   0.87741
 Alpha virt. eigenvalues --    0.88668   0.89368   0.89893   0.90605   0.91120
 Alpha virt. eigenvalues --    0.91811   0.93186   0.93648   0.94895   0.95457
 Alpha virt. eigenvalues --    0.96351   0.97496   0.98113   0.98699   0.99375
 Alpha virt. eigenvalues --    1.00211   1.01885   1.04112   1.04755   1.06529
 Alpha virt. eigenvalues --    1.08533   1.11488   1.12465   1.17929   1.21402
 Alpha virt. eigenvalues --    1.25455   1.26593   1.31359   1.35437   1.41850
 Alpha virt. eigenvalues --    1.46693   1.48799   1.51671   1.55032   1.55555
 Alpha virt. eigenvalues --    1.56862   1.59506   1.62841   1.64085   1.65437
 Alpha virt. eigenvalues --    1.67946   1.70150   1.72473   1.74207   1.74884
 Alpha virt. eigenvalues --    1.78883   1.80327   1.82391   1.84581   1.84912
 Alpha virt. eigenvalues --    1.86735   1.88814   1.89451   1.91578   1.93496
 Alpha virt. eigenvalues --    1.96296   1.96609   1.97281   1.99668   2.00240
 Alpha virt. eigenvalues --    2.02222   2.03513   2.03837   2.04570   2.07584
 Alpha virt. eigenvalues --    2.08339   2.10432   2.14668   2.15980   2.17047
 Alpha virt. eigenvalues --    2.20807   2.24365   2.25373   2.26957   2.29062
 Alpha virt. eigenvalues --    2.31989   2.32801   2.34790   2.36088   2.37780
 Alpha virt. eigenvalues --    2.39200   2.40963   2.42029   2.46533   2.48981
 Alpha virt. eigenvalues --    2.50010   2.56916   2.57717   2.59244   2.61764
 Alpha virt. eigenvalues --    2.64823   2.65432   2.66283   2.72384   2.73627
 Alpha virt. eigenvalues --    2.76501   2.78739   2.79910   2.84976   2.87953
 Alpha virt. eigenvalues --    3.01267   3.07066   4.07658   4.10544   4.19628
 Alpha virt. eigenvalues --    4.19971   4.31935   4.32974   4.40021   4.46845
 Alpha virt. eigenvalues --    4.53688   4.61197   4.66393   4.71557   4.97295
          Condensed to atoms (all electrons):
               1          2          3          4          5          6
     1  O    8.024105   0.570147  -0.078297   0.003316  -0.000186  -0.000001
     2  C    0.570147   4.506244   0.305698  -0.028465  -0.014931   0.000298
     3  C   -0.078297   0.305698   5.410475   0.294973  -0.037606   0.004148
     4  C    0.003316  -0.028465   0.294973   4.989952   0.379921  -0.031629
     5  C   -0.000186  -0.014931  -0.037606   0.379921   5.009848   0.378021
     6  C   -0.000001   0.000298   0.004148  -0.031629   0.378021   5.000725
     7  C    0.000000  -0.000006  -0.000163   0.003516  -0.036557   0.368108
     8  C   -0.000053  -0.027081  -0.011957  -0.045912   0.344907  -0.037325
     9  C   -0.000045   0.003343  -0.000125  -0.001761  -0.032521  -0.007416
    10  C   -0.000004   0.000131  -0.000018  -0.000030   0.003901   0.000394
    11  C   -0.065373   0.356734  -0.149044   0.029402  -0.044494   0.002693
    12  C    0.000656  -0.030525  -0.004143  -0.052134  -0.021754   0.000137
    13  C    0.000101  -0.019660  -0.039034   0.375992  -0.038422  -0.004477
    14  H   -0.000404  -0.021170   0.344531  -0.029257   0.004669  -0.000154
    15  H    0.000452  -0.022798   0.350052  -0.027975  -0.004471   0.000029
    16  H   -0.000069   0.003637  -0.032901   0.367117  -0.043431  -0.006961
    17  H   -0.000127   0.000196  -0.004372  -0.053981   0.369479  -0.052751
    18  H   -0.000000  -0.000009  -0.000033  -0.002079  -0.034285   0.369563
    19  H   -0.000000  -0.000006   0.000277  -0.006655  -0.041110   0.372003
    20  H   -0.000000  -0.000003   0.000004   0.000050  -0.004704  -0.035665
    21  H   -0.000000   0.000001  -0.000014   0.000032  -0.005269  -0.035061
    22  H   -0.000000   0.000000   0.000002  -0.000124   0.004017  -0.027971
    23  H    0.001332  -0.002355   0.000765   0.004295  -0.036262   0.002030
    24  H   -0.000001  -0.000034  -0.000000   0.000496  -0.001643  -0.001429
    25  H    0.000000  -0.000067   0.000005   0.000081  -0.007384   0.002078
    26  H   -0.000001   0.000071  -0.000002   0.000006  -0.000070   0.000003
    27  H    0.000001  -0.000054   0.000001  -0.000002   0.000070  -0.000008
    28  H   -0.000000  -0.000002   0.000000   0.000000  -0.000100   0.000000
    29  H    0.004279  -0.031099   0.008979  -0.000674   0.005155  -0.000080
    30  H   -0.000074   0.003426  -0.000493   0.003404   0.000764  -0.000007
    31  H    0.000633  -0.003857   0.003139  -0.000835   0.000137   0.000001
    32  H    0.000003   0.000324   0.005093  -0.036054  -0.008071   0.003298
    33  H    0.000000   0.000487  -0.005228  -0.029363   0.004977  -0.000010
               7          8          9         10         11         12
     1  O    0.000000  -0.000053  -0.000045  -0.000004  -0.065373   0.000656
     2  C   -0.000006  -0.027081   0.003343   0.000131   0.356734  -0.030525
     3  C   -0.000163  -0.011957  -0.000125  -0.000018  -0.149044  -0.004143
     4  C    0.003516  -0.045912  -0.001761  -0.000030   0.029402  -0.052134
     5  C   -0.036557   0.344907  -0.032521   0.003901  -0.044494  -0.021754
     6  C    0.368108  -0.037325  -0.007416   0.000394   0.002693   0.000137
     7  C    5.083567   0.000049  -0.004628   0.000036  -0.000018  -0.000008
     8  C    0.000049   5.005210   0.376286  -0.040159   0.358675  -0.032816
     9  C   -0.004628   0.376286   5.020111   0.363748  -0.044587  -0.007335
    10  C    0.000036  -0.040159   0.363748   5.084834  -0.002316  -0.002304
    11  C   -0.000018   0.358675  -0.044587  -0.002316   5.201683   0.332290
    12  C   -0.000008  -0.032816  -0.007335  -0.002304   0.332290   5.120291
    13  C    0.000066  -0.016066  -0.000515   0.000115  -0.043902   0.343127
    14  H    0.000002   0.000232   0.000008  -0.000000   0.002448   0.000131
    15  H   -0.000008  -0.000125   0.000026  -0.000000   0.005128   0.000096
    16  H    0.000110   0.005766  -0.000125   0.000002  -0.000593   0.005947
    17  H   -0.006794  -0.036981   0.004436  -0.000123   0.000669   0.000172
    18  H   -0.038149  -0.011197   0.006282  -0.000080   0.000269   0.000034
    19  H   -0.039267   0.004920   0.000122  -0.000006  -0.000119   0.000008
    20  H    0.375419   0.002705  -0.001561  -0.000101  -0.000007  -0.000001
    21  H    0.375388  -0.000385   0.000237  -0.000001   0.000001  -0.000000
    22  H    0.371887  -0.000102   0.000094   0.000000   0.000000   0.000000
    23  H    0.000714   0.368521  -0.047692  -0.005399  -0.046829   0.006174
    24  H    0.000354  -0.036969   0.372053  -0.039349  -0.010154   0.004500
    25  H   -0.000358  -0.032532   0.371590  -0.039035   0.005196   0.000111
    26  H   -0.000003  -0.005808  -0.032150   0.377195   0.002802   0.000237
    27  H    0.000008  -0.003926  -0.035664   0.376537  -0.001190   0.000154
    28  H    0.000001   0.004016  -0.028350   0.371825   0.000136  -0.000007
    29  H    0.000001  -0.031564  -0.006127   0.003135   0.344730  -0.036334
    30  H    0.000000  -0.009153   0.004022   0.000352  -0.025308   0.367653
    31  H    0.000000   0.005067   0.000141  -0.000009  -0.039780   0.371899
    32  H   -0.000087   0.001782  -0.000421   0.000001  -0.000412  -0.032182
    33  H    0.000001   0.000039   0.000017  -0.000002   0.002894  -0.033239
              13         14         15         16         17         18
     1  O    0.000101  -0.000404   0.000452  -0.000069  -0.000127  -0.000000
     2  C   -0.019660  -0.021170  -0.022798   0.003637   0.000196  -0.000009
     3  C   -0.039034   0.344531   0.350052  -0.032901  -0.004372  -0.000033
     4  C    0.375992  -0.029257  -0.027975   0.367117  -0.053981  -0.002079
     5  C   -0.038422   0.004669  -0.004471  -0.043431   0.369479  -0.034285
     6  C   -0.004477  -0.000154   0.000029  -0.006961  -0.052751   0.369563
     7  C    0.000066   0.000002  -0.000008   0.000110  -0.006794  -0.038149
     8  C   -0.016066   0.000232  -0.000125   0.005766  -0.036981  -0.011197
     9  C   -0.000515   0.000008   0.000026  -0.000125   0.004436   0.006282
    10  C    0.000115  -0.000000  -0.000000   0.000002  -0.000123  -0.000080
    11  C   -0.043902   0.002448   0.005128  -0.000593   0.000669   0.000269
    12  C    0.343127   0.000131   0.000096   0.005947   0.000172   0.000034
    13  C    5.069329  -0.004863   0.004721  -0.040186   0.006035   0.001065
    14  H   -0.004863   0.561127  -0.022829  -0.002177   0.000271   0.000005
    15  H    0.004721  -0.022829   0.549773  -0.003502   0.005399  -0.000001
    16  H   -0.040186  -0.002177  -0.003502   0.626574  -0.001000  -0.000154
    17  H    0.006035   0.000271   0.005399  -0.001000   0.647031   0.006117
    18  H    0.001065   0.000005  -0.000001  -0.000154   0.006117   0.601617
    19  H   -0.000304  -0.000011  -0.000002   0.007859  -0.001031  -0.038659
    20  H   -0.000003  -0.000000   0.000001   0.000004  -0.000199  -0.004303
    21  H    0.000001   0.000000  -0.000003   0.000014   0.006377   0.005154
    22  H    0.000003  -0.000000   0.000000  -0.000010   0.000145  -0.002467
    23  H   -0.000140   0.000003  -0.000036  -0.000143  -0.011965   0.000005
    24  H   -0.000434   0.000000   0.000000  -0.000045  -0.000129   0.001395
    25  H   -0.000020   0.000000  -0.000001   0.000005   0.000082  -0.000038
    26  H   -0.000003   0.000000  -0.000000  -0.000000  -0.000001  -0.000000
    27  H   -0.000004  -0.000000   0.000000  -0.000000  -0.000011   0.000002
    28  H    0.000002   0.000000  -0.000000  -0.000000   0.000003   0.000013
    29  H    0.004996  -0.000238  -0.000153   0.000012  -0.000190  -0.000010
    30  H   -0.029962   0.000074   0.000005  -0.000150   0.000003  -0.000074
    31  H   -0.031846  -0.000115  -0.000031  -0.000126   0.000016   0.000003
    32  H    0.369995  -0.000021  -0.000164  -0.001513   0.000048   0.002271
    33  H    0.368183   0.003969  -0.000047  -0.003853  -0.000195  -0.000046
              19         20         21         22         23         24
     1  O   -0.000000  -0.000000  -0.000000  -0.000000   0.001332  -0.000001
     2  C   -0.000006  -0.000003   0.000001   0.000000  -0.002355  -0.000034
     3  C    0.000277   0.000004  -0.000014   0.000002   0.000765  -0.000000
     4  C   -0.006655   0.000050   0.000032  -0.000124   0.004295   0.000496
     5  C   -0.041110  -0.004704  -0.005269   0.004017  -0.036262  -0.001643
     6  C    0.372003  -0.035665  -0.035061  -0.027971   0.002030  -0.001429
     7  C   -0.039267   0.375419   0.375388   0.371887   0.000714   0.000354
     8  C    0.004920   0.002705  -0.000385  -0.000102   0.368521  -0.036969
     9  C    0.000122  -0.001561   0.000237   0.000094  -0.047692   0.372053
    10  C   -0.000006  -0.000101  -0.000001   0.000000  -0.005399  -0.039349
    11  C   -0.000119  -0.000007   0.000001   0.000000  -0.046829  -0.010154
    12  C    0.000008  -0.000001  -0.000000   0.000000   0.006174   0.004500
    13  C   -0.000304  -0.000003   0.000001   0.000003  -0.000140  -0.000434
    14  H   -0.000011  -0.000000   0.000000  -0.000000   0.000003   0.000000
    15  H   -0.000002   0.000001  -0.000003   0.000000  -0.000036   0.000000
    16  H    0.007859   0.000004   0.000014  -0.000010  -0.000143  -0.000045
    17  H   -0.001031  -0.000199   0.006377   0.000145  -0.011965  -0.000129
    18  H   -0.038659  -0.004303   0.005154  -0.002467   0.000005   0.001395
    19  H    0.613119   0.005255  -0.004766  -0.002955  -0.000138  -0.000042
    20  H    0.005255   0.568637  -0.031609  -0.030681   0.000035   0.000005
    21  H   -0.004766  -0.031609   0.575979  -0.030559  -0.000014  -0.000009
    22  H   -0.002955  -0.030681  -0.030559   0.573815  -0.000011  -0.000017
    23  H   -0.000138   0.000035  -0.000014  -0.000011   0.628108   0.006130
    24  H   -0.000042   0.000005  -0.000009  -0.000017   0.006130   0.606611
    25  H    0.000107   0.006576  -0.000072   0.000081  -0.004429  -0.039470
    26  H    0.000000   0.000001   0.000000   0.000000  -0.000254  -0.005204
    27  H    0.000000   0.000017  -0.000001  -0.000000   0.006152   0.005199
    28  H   -0.000000  -0.000004   0.000000  -0.000000  -0.000041  -0.001802
    29  H    0.000003   0.000002  -0.000000  -0.000000  -0.003348  -0.000136
    30  H   -0.000002  -0.000000  -0.000000   0.000000  -0.000034   0.001593
    31  H    0.000000  -0.000000  -0.000000  -0.000000  -0.000165  -0.000064
    32  H    0.000300   0.000005   0.000001   0.000004  -0.000001   0.002023
    33  H   -0.000066  -0.000000   0.000000  -0.000000   0.000009   0.000032
              25         26         27         28         29         30
     1  O    0.000000  -0.000001   0.000001  -0.000000   0.004279  -0.000074
     2  C   -0.000067   0.000071  -0.000054  -0.000002  -0.031099   0.003426
     3  C    0.000005  -0.000002   0.000001   0.000000   0.008979  -0.000493
     4  C    0.000081   0.000006  -0.000002   0.000000  -0.000674   0.003404
     5  C   -0.007384  -0.000070   0.000070  -0.000100   0.005155   0.000764
     6  C    0.002078   0.000003  -0.000008   0.000000  -0.000080  -0.000007
     7  C   -0.000358  -0.000003   0.000008   0.000001   0.000001   0.000000
     8  C   -0.032532  -0.005808  -0.003926   0.004016  -0.031564  -0.009153
     9  C    0.371590  -0.032150  -0.035664  -0.028350  -0.006127   0.004022
    10  C   -0.039035   0.377195   0.376537   0.371825   0.003135   0.000352
    11  C    0.005196   0.002802  -0.001190   0.000136   0.344730  -0.025308
    12  C    0.000111   0.000237   0.000154  -0.000007  -0.036334   0.367653
    13  C   -0.000020  -0.000003  -0.000004   0.000002   0.004996  -0.029962
    14  H    0.000000   0.000000  -0.000000   0.000000  -0.000238   0.000074
    15  H   -0.000001  -0.000000   0.000000  -0.000000  -0.000153   0.000005
    16  H    0.000005  -0.000000  -0.000000  -0.000000   0.000012  -0.000150
    17  H    0.000082  -0.000001  -0.000011   0.000003  -0.000190   0.000003
    18  H   -0.000038  -0.000000   0.000002   0.000013  -0.000010  -0.000074
    19  H    0.000107   0.000000   0.000000  -0.000000   0.000003  -0.000002
    20  H    0.006576   0.000001   0.000017  -0.000004   0.000002  -0.000000
    21  H   -0.000072   0.000000  -0.000001   0.000000  -0.000000  -0.000000
    22  H    0.000081   0.000000  -0.000000  -0.000000  -0.000000   0.000000
    23  H   -0.004429  -0.000254   0.006152  -0.000041  -0.003348  -0.000034
    24  H   -0.039470  -0.005204   0.005199  -0.001802  -0.000136   0.001593
    25  H    0.596839   0.004887  -0.003531  -0.003837   0.000022  -0.000047
    26  H    0.004887   0.566618  -0.031926  -0.030788   0.002072   0.001607
    27  H   -0.003531  -0.031926   0.570871  -0.030541   0.000528  -0.000025
    28  H   -0.003837  -0.030788  -0.030541   0.575224  -0.000071  -0.000039
    29  H    0.000022   0.002072   0.000528  -0.000071   0.598747  -0.003964
    30  H   -0.000047   0.001607  -0.000025  -0.000039  -0.003964   0.579622
    31  H   -0.000001  -0.000063  -0.000000   0.000001  -0.000572  -0.036023
    32  H   -0.000047  -0.000007   0.000000  -0.000001  -0.000138  -0.010132
    33  H   -0.000000   0.000000   0.000000  -0.000000  -0.000126   0.003145
              31         32         33
     1  O    0.000633   0.000003   0.000000
     2  C   -0.003857   0.000324   0.000487
     3  C    0.003139   0.005093  -0.005228
     4  C   -0.000835  -0.036054  -0.029363
     5  C    0.000137  -0.008071   0.004977
     6  C    0.000001   0.003298  -0.000010
     7  C    0.000000  -0.000087   0.000001
     8  C    0.005067   0.001782   0.000039
     9  C    0.000141  -0.000421   0.000017
    10  C   -0.000009   0.000001  -0.000002
    11  C   -0.039780  -0.000412   0.002894
    12  C    0.371899  -0.032182  -0.033239
    13  C   -0.031846   0.369995   0.368183
    14  H   -0.000115  -0.000021   0.003969
    15  H   -0.000031  -0.000164  -0.000047
    16  H   -0.000126  -0.001513  -0.003853
    17  H    0.000016   0.000048  -0.000195
    18  H    0.000003   0.002271  -0.000046
    19  H    0.000000   0.000300  -0.000066
    20  H   -0.000000   0.000005  -0.000000
    21  H   -0.000000   0.000001   0.000000
    22  H   -0.000000   0.000004  -0.000000
    23  H   -0.000165  -0.000001   0.000009
    24  H   -0.000064   0.002023   0.000032
    25  H   -0.000001  -0.000047  -0.000000
    26  H   -0.000063  -0.000007   0.000000
    27  H   -0.000000   0.000000   0.000000
    28  H    0.000001  -0.000001  -0.000000
    29  H   -0.000572  -0.000138  -0.000126
    30  H   -0.036023  -0.010132   0.003145
    31  H    0.590245   0.004451  -0.009875
    32  H    0.004451   0.595331  -0.036110
    33  H   -0.009875  -0.036110   0.596776
 Mulliken charges:
               1
     1  O   -0.460391
     2  C    0.451385
     3  C   -0.364714
     4  C   -0.105623
     5  C   -0.092594
     6  C   -0.262585
     7  C   -0.453180
     8  C   -0.098064
     9  C   -0.271498
    10  C   -0.453272
    11  C   -0.171626
    12  C   -0.300834
    13  C   -0.273891
    14  H    0.163770
    15  H    0.166461
    16  H    0.119893
    17  H    0.123373
    18  H    0.137788
    19  H    0.131166
    20  H    0.150126
    21  H    0.144577
    22  H    0.144847
    23  H    0.134984
    24  H    0.136541
    25  H    0.143210
    26  H    0.150778
    27  H    0.147344
    28  H    0.144364
    29  H    0.142163
    30  H    0.149817
    31  H    0.147628
    32  H    0.140431
    33  H    0.137628
 Sum of Mulliken charges =  -0.00000
 Mulliken charges with hydrogens summed into heavy atoms:
               1
     1  O   -0.460391
     2  C    0.451385
     3  C   -0.034483
     4  C    0.014270
     5  C    0.030779
     6  C    0.006369
     7  C   -0.013630
     8  C    0.036921
     9  C    0.008253
    10  C   -0.010787
    11  C   -0.029463
    12  C   -0.003389
    13  C    0.004168
 APT charges:
               1
     1  O   -0.663361
     2  C    0.749537
     3  C   -0.052273
     4  C    0.101078
     5  C    0.071186
     6  C    0.105249
     7  C    0.085414
     8  C    0.116503
     9  C    0.095468
    10  C    0.082968
    11  C   -0.094199
    12  C    0.093460
    13  C    0.085522
    14  H   -0.017123
    15  H   -0.012564
    16  H   -0.065847
    17  H   -0.074827
    18  H   -0.036469
    19  H   -0.055675
    20  H   -0.019742
    21  H   -0.027969
    22  H   -0.040550
    23  H   -0.063255
    24  H   -0.039320
    25  H   -0.050648
    26  H   -0.020309
    27  H   -0.021636
    28  H   -0.036757
    29  H   -0.039190
    30  H   -0.031071
    31  H   -0.038994
    32  H   -0.034575
    33  H   -0.050030
 Sum of APT charges =   0.00000
 APT charges with hydrogens summed into heavy atoms:
               1
     1  O   -0.663361
     2  C    0.749537
     3  C   -0.081961
     4  C    0.035231
     5  C   -0.003642
     6  C    0.013105
     7  C   -0.002846
     8  C    0.053248
     9  C    0.005500
    10  C    0.004266
    11  C   -0.133390
    12  C    0.023395
    13  C    0.000917
 Electronic spatial extent (au):  <R**2>=           2441.0754
 Charge=             -0.0000 electrons
 Dipole moment (field-independent basis, Debye):
    X=              2.2991    Y=             -0.7184    Z=              2.1353  Tot=              3.2189
 Quadrupole moment (field-independent basis, Debye-Ang):
   XX=            -88.5611   YY=            -79.1676   ZZ=            -84.5634
   XY=              2.3759   XZ=             -7.3662   YZ=              1.2997
 Traceless Quadrupole moment (field-independent basis, Debye-Ang):
   XX=             -4.4637   YY=              4.9298   ZZ=             -0.4661
   XY=              2.3759   XZ=             -7.3662   YZ=              1.2997
 Octapole moment (field-independent basis, Debye-Ang**2):
  XXX=             15.7810  YYY=             -2.0616  ZZZ=              0.6387  XYY=             -4.8720
  XXY=             -5.2456  XXZ=             22.9525  XZZ=              9.3215  YZZ=             -1.4011
  YYZ=             -2.3202  XYZ=             -2.6662
 Hexadecapole moment (field-independent basis, Debye-Ang**3):
 XXXX=          -1644.9039 YYYY=          -1134.4563 ZZZZ=           -575.5618 XXXY=             14.9913
 XXXZ=            -48.9206 YYYX=             -0.4870 YYYZ=              2.7276 ZZZX=             -6.0150
 ZZZY=              2.2700 XXYY=           -443.7170 XXZZ=           -395.8964 YYZZ=           -279.0058
 XXYZ=              4.1065 YYXZ=              5.6716 ZZXY=              7.4144
 N-N= 8.788813929611D+02 E-N=-3.019696872942D+03  KE= 5.392678920448D+02
  Exact polarizability: 127.947   0.810 122.137   1.665  -0.867 109.187
 Approx polarizability: 173.089  -0.640 166.561   9.731  -2.690 170.552
 Calling FoFJK, ICntrl=    100127 FMM=F ISym2X=0 I1Cent= 0 IOpClX= 0 NMat=1 NMatS=1 NMatT=0.
 Full mass-weighted force constant matrix:
 Low frequencies ---   -4.7904    0.0002    0.0004    0.0004    5.1648    7.2201
 Low frequencies ---   48.2846   93.3304  103.9885
 Diagonal vibrational polarizability:
       12.7232343       9.2910724      12.8032683
 Harmonic frequencies (cm**-1), IR intensities (KM/Mole), Raman scattering
 activities (A**4/AMU), depolarization ratios for plane and unpolarized
 incident light, reduced masses (AMU), force constants (mDyne/A),
 and normal coordinates:
                      1                      2                      3
                      A                      A                      A
 Frequencies --     48.2774                93.3286               103.9867
 Red. masses --      3.7967                 4.1527                 2.3055
 Frc consts  --      0.0052                 0.0213                 0.0147
 IR Inten    --      1.3962                 2.2226                 0.7286
  Atom  AN      X      Y      Z        X      Y      Z        X      Y      Z
     1   8    -0.13   0.13   0.14     0.24   0.03  -0.17    -0.11  -0.03   0.08
     2   6    -0.04   0.05   0.03     0.03   0.02   0.02    -0.02  -0.02  -0.01
     3   6     0.02   0.01  -0.13    -0.05   0.01   0.03     0.02  -0.02  -0.02
     4   6    -0.00  -0.05  -0.10    -0.03  -0.04   0.01     0.00   0.00   0.01
     5   6     0.03   0.00  -0.01    -0.04   0.02   0.02     0.00  -0.00   0.01
     6   6     0.01   0.05   0.11    -0.03   0.03  -0.01     0.01  -0.02  -0.03
     7   6     0.09  -0.03   0.19    -0.07   0.06  -0.06     0.02   0.14  -0.01
     8   6    -0.01  -0.00  -0.02    -0.06   0.03   0.08     0.02  -0.00   0.03
     9   6     0.01   0.04  -0.11    -0.03   0.04   0.02    -0.01  -0.03   0.11
    10   6    -0.00   0.02  -0.18     0.08   0.01  -0.23     0.19  -0.04  -0.08
    11   6     0.01  -0.01   0.05    -0.05  -0.00   0.16    -0.00  -0.01  -0.04
    12   6     0.05  -0.09   0.05    -0.03  -0.10   0.14    -0.07   0.00  -0.04
    13   6    -0.02  -0.14  -0.05     0.00  -0.11   0.06    -0.04   0.02  -0.01
    14   1     0.02  -0.10  -0.18    -0.04   0.07   0.07     0.01  -0.06  -0.05
    15   1     0.07   0.11  -0.20    -0.11   0.00   0.04     0.06  -0.01  -0.03
    16   1    -0.01  -0.07  -0.17    -0.02  -0.06  -0.06     0.01   0.01   0.03
    17   1     0.13   0.00  -0.02    -0.05   0.06   0.01    -0.01   0.02   0.00
    18   1    -0.06   0.12   0.09    -0.01   0.02  -0.02    -0.02  -0.11   0.05
    19   1    -0.01   0.08   0.19    -0.00   0.02  -0.02     0.03  -0.06  -0.15
    20   1     0.10  -0.06   0.11    -0.12   0.06  -0.06     0.00   0.19   0.11
    21   1     0.16  -0.10   0.23    -0.08   0.05  -0.05     0.04   0.23  -0.10
    22   1     0.06   0.02   0.29    -0.04   0.09  -0.09     0.02   0.11  -0.04
    23   1    -0.08  -0.02  -0.03    -0.13   0.04   0.08     0.08   0.02   0.04
    24   1     0.05   0.10  -0.10    -0.11   0.20   0.04    -0.20   0.07   0.12
    25   1    -0.00   0.02  -0.13    -0.03  -0.06   0.11     0.02  -0.14   0.31
    26   1     0.02   0.05  -0.16     0.05   0.13  -0.39     0.10   0.08  -0.38
    27   1    -0.05  -0.04  -0.19     0.20  -0.15  -0.26     0.51  -0.14  -0.10
    28   1     0.02   0.05  -0.25     0.06   0.04  -0.23     0.11  -0.06   0.09
    29   1     0.01   0.01   0.12    -0.06   0.01   0.22    -0.00  -0.01  -0.06
    30   1     0.11  -0.15   0.07    -0.05  -0.12   0.19    -0.13   0.03  -0.02
    31   1     0.06  -0.03   0.09    -0.03  -0.14   0.15    -0.09  -0.04  -0.10
    32   1    -0.04  -0.22  -0.00     0.02  -0.13   0.03    -0.04   0.06  -0.00
    33   1    -0.07  -0.17  -0.12     0.03  -0.16   0.06    -0.03   0.02  -0.01
                      4                      5                      6
                      A                      A                      A
 Frequencies --    141.7737               177.0015               185.5650
 Red. masses --      2.2834                 1.8059                 1.6199
 Frc consts  --      0.0270                 0.0333                 0.0329
 IR Inten    --      0.1916                 0.1887                 0.2259
  Atom  AN      X      Y      Z        X      Y      Z        X      Y      Z
     1   8     0.03   0.02  -0.03     0.01   0.04   0.02    -0.01  -0.04  -0.03
     2   6    -0.02   0.02   0.02     0.03   0.01  -0.01    -0.04  -0.01   0.00
     3   6    -0.08   0.03   0.06     0.02  -0.01  -0.04    -0.04   0.00   0.04
     4   6    -0.03  -0.01  -0.00    -0.03  -0.02   0.04     0.00  -0.00  -0.03
     5   6    -0.04  -0.05  -0.05     0.00  -0.05   0.07    -0.02   0.01  -0.05
     6   6    -0.06  -0.07  -0.03     0.03   0.03   0.03    -0.03   0.09   0.02
     7   6     0.07   0.20   0.11    -0.07   0.13  -0.07     0.00   0.01   0.05
     8   6    -0.01  -0.05  -0.05     0.03  -0.06   0.01    -0.05   0.01  -0.05
     9   6     0.01  -0.06  -0.06     0.05  -0.04  -0.03    -0.00  -0.04  -0.03
    10   6    -0.03  -0.06   0.00    -0.01  -0.05  -0.00     0.11  -0.01   0.07
    11   6     0.01  -0.00  -0.00     0.05  -0.01  -0.01    -0.04   0.00  -0.00
    12   6     0.07   0.02   0.01     0.02   0.03  -0.01     0.02  -0.02   0.00
    13   6     0.05   0.01  -0.00    -0.12  -0.02   0.02     0.07  -0.00  -0.02
    14   1    -0.06   0.11   0.13    -0.02  -0.04  -0.11    -0.01   0.04   0.11
    15   1    -0.18  -0.01   0.09     0.08   0.02  -0.06    -0.12  -0.03   0.06
    16   1    -0.06  -0.02  -0.00    -0.05  -0.02   0.06     0.01  -0.00  -0.05
    17   1    -0.06  -0.06  -0.04     0.01  -0.08   0.08     0.01  -0.01  -0.05
    18   1    -0.18  -0.23   0.12     0.04   0.06   0.01    -0.07   0.18  -0.04
    19   1    -0.04  -0.15  -0.25     0.13   0.02   0.05     0.00   0.12   0.13
    20   1     0.13   0.29   0.37    -0.42   0.08  -0.29    -0.26  -0.09  -0.29
    21   1     0.19   0.40  -0.08     0.05  -0.12   0.09     0.21  -0.34   0.26
    22   1     0.02   0.10   0.17     0.07   0.51  -0.10     0.07   0.41   0.19
    23   1    -0.03  -0.05  -0.05     0.04  -0.09   0.00    -0.07   0.03  -0.05
    24   1     0.07  -0.10  -0.07     0.10  -0.05  -0.03    -0.00  -0.09  -0.04
    25   1     0.00  -0.03  -0.12     0.04  -0.01  -0.07    -0.02  -0.08  -0.05
    26   1     0.01  -0.07   0.12     0.05  -0.05   0.16     0.08   0.01  -0.02
    27   1    -0.16  -0.02   0.01    -0.21  -0.06  -0.00     0.26   0.09   0.09
    28   1     0.01  -0.06  -0.07     0.06  -0.04  -0.15     0.09  -0.10   0.23
    29   1     0.03   0.00  -0.00     0.07  -0.01  -0.03    -0.06   0.00   0.02
    30   1     0.12   0.01  -0.02     0.11  -0.01  -0.03     0.01  -0.00  -0.01
    31   1     0.09   0.05   0.05     0.04   0.15  -0.01     0.02  -0.06   0.04
    32   1     0.08  -0.01  -0.05    -0.18  -0.09   0.14     0.11   0.02  -0.09
    33   1     0.07   0.04   0.04    -0.23   0.02  -0.07     0.13  -0.01   0.04
                      7                      8                      9
                      A                      A                      A
 Frequencies --    217.1054               236.5599               280.1410
 Red. masses --      1.9267                 1.2246                 1.9669
 Frc consts  --      0.0535                 0.0404                 0.0909
 IR Inten    --      0.1058                 0.0486                 0.3271
  Atom  AN      X      Y      Z        X      Y      Z        X      Y      Z
     1   8    -0.00  -0.09  -0.02     0.02  -0.00   0.00    -0.00   0.08  -0.01
     2   6    -0.02  -0.04   0.01     0.00  -0.01   0.01    -0.00   0.03  -0.02
     3   6     0.03  -0.04  -0.01    -0.00  -0.01  -0.00     0.00   0.03  -0.02
     4   6     0.00   0.01   0.01    -0.01  -0.01   0.01    -0.00  -0.01   0.02
     5   6    -0.01   0.05   0.01    -0.00  -0.01   0.01     0.02  -0.03   0.05
     6   6    -0.01   0.07   0.00    -0.00   0.01   0.01     0.05   0.12   0.10
     7   6    -0.00   0.02   0.00    -0.02   0.01  -0.01    -0.07   0.05  -0.02
     8   6    -0.05   0.04  -0.02     0.00  -0.01  -0.04    -0.02  -0.06  -0.03
     9   6     0.05  -0.01  -0.10    -0.01   0.01  -0.04     0.00  -0.09  -0.06
    10   6     0.15   0.03   0.05    -0.03   0.01   0.02    -0.00  -0.09   0.02
    11   6    -0.05   0.01   0.03     0.01  -0.01  -0.00     0.00  -0.01  -0.01
    12   6     0.00   0.02   0.03     0.09   0.03   0.01    -0.06  -0.05  -0.02
    13   6    -0.10  -0.03   0.02    -0.05  -0.02   0.01     0.08   0.02   0.01
    14   1     0.02  -0.10  -0.05    -0.00  -0.02  -0.01    -0.01   0.02  -0.05
    15   1     0.08  -0.01  -0.03     0.00  -0.00  -0.01     0.03   0.02  -0.02
    16   1     0.04   0.02   0.01    -0.00  -0.01   0.00    -0.04  -0.02   0.01
    17   1    -0.01   0.03   0.02     0.00  -0.03   0.02     0.09  -0.11   0.07
    18   1     0.01   0.07  -0.00     0.00   0.02   0.00     0.08   0.27  -0.02
    19   1    -0.02   0.07   0.01     0.01   0.01   0.02     0.13   0.17   0.25
    20   1     0.24   0.06   0.18     0.03   0.02   0.05     0.12   0.09   0.14
    21   1    -0.17   0.23  -0.12    -0.07   0.07  -0.04    -0.35   0.26  -0.10
    22   1    -0.08  -0.29  -0.06    -0.03  -0.07  -0.04    -0.09  -0.26  -0.21
    23   1    -0.11   0.02  -0.03    -0.02  -0.03  -0.04    -0.04  -0.10  -0.04
    24   1     0.17  -0.08  -0.10    -0.01  -0.03  -0.04     0.03  -0.12  -0.06
    25   1    -0.01  -0.06  -0.24     0.00   0.04  -0.04    -0.01  -0.07  -0.09
    26   1     0.28   0.11   0.29    -0.26  -0.13  -0.38    -0.04  -0.13  -0.04
    27   1    -0.06   0.12   0.07     0.45   0.13   0.03     0.09  -0.02   0.03
    28   1     0.32  -0.10  -0.07    -0.30   0.05   0.47    -0.05  -0.10   0.13
    29   1    -0.08   0.00   0.03    -0.01  -0.02  -0.01     0.04   0.00   0.01
    30   1     0.12  -0.03  -0.00     0.23  -0.02  -0.04    -0.21   0.02   0.03
    31   1     0.03   0.12   0.09     0.13   0.18   0.09    -0.09  -0.20  -0.10
    32   1    -0.17  -0.10   0.14    -0.10  -0.12   0.10     0.16   0.12  -0.13
    33   1    -0.21  -0.04  -0.10    -0.16   0.00  -0.08     0.21   0.02   0.14
                     10                     11                     12
                      A                      A                      A
 Frequencies --    297.3967               304.1653               327.3758
 Red. masses --      2.7144                 2.4326                 2.1534
 Frc consts  --      0.1414                 0.1326                 0.1360
 IR Inten    --      0.3332                 0.2205                 0.0516
  Atom  AN      X      Y      Z        X      Y      Z        X      Y      Z
     1   8     0.03   0.06   0.01    -0.00  -0.00   0.04    -0.02   0.02   0.01
     2   6    -0.00   0.04   0.03     0.04  -0.02  -0.02    -0.00   0.01  -0.01
     3   6     0.05   0.02  -0.00     0.00  -0.02   0.00    -0.13   0.04   0.15
     4   6     0.02   0.04   0.06    -0.02  -0.02   0.02    -0.01  -0.03  -0.01
     5   6     0.02  -0.01  -0.01    -0.01  -0.01   0.04     0.03  -0.01  -0.00
     6   6     0.08  -0.03  -0.11    -0.06  -0.12   0.04     0.08   0.06  -0.01
     7   6     0.19  -0.03  -0.03    -0.10   0.03   0.02     0.07  -0.01  -0.03
     8   6    -0.06  -0.02  -0.01     0.05   0.03   0.00     0.06  -0.00  -0.01
     9   6     0.01  -0.06  -0.11     0.11   0.11  -0.13     0.04   0.04   0.01
    10   6    -0.02  -0.06   0.00     0.04   0.15   0.02     0.01   0.04   0.00
    11   6    -0.05   0.02   0.07     0.05  -0.02  -0.01     0.06  -0.02  -0.05
    12   6    -0.18   0.01   0.05    -0.10  -0.09  -0.03    -0.05  -0.07  -0.06
    13   6    -0.09   0.05   0.06     0.02  -0.02   0.01    -0.10  -0.08  -0.01
    14   1     0.03  -0.04  -0.06    -0.03   0.00  -0.03    -0.05   0.33   0.41
    15   1     0.12   0.06  -0.02     0.02  -0.03   0.01    -0.47  -0.12   0.26
    16   1    -0.00   0.05   0.10    -0.00  -0.03   0.00    -0.02  -0.04  -0.06
    17   1    -0.05  -0.04   0.01    -0.02   0.01   0.03     0.03  -0.01   0.00
    18   1     0.08  -0.10  -0.06    -0.06  -0.23   0.12     0.08   0.16  -0.08
    19   1     0.06  -0.05  -0.17    -0.09  -0.17  -0.11     0.13   0.10   0.10
    20   1     0.16  -0.06  -0.12    -0.25   0.06   0.05     0.15  -0.01  -0.02
    21   1     0.36  -0.15   0.01    -0.06   0.03   0.01     0.02   0.02  -0.04
    22   1     0.16   0.10   0.14    -0.04   0.14  -0.04     0.05  -0.08  -0.03
    23   1    -0.17  -0.03  -0.02     0.00  -0.05  -0.02     0.10  -0.01  -0.01
    24   1     0.13  -0.12  -0.11     0.27   0.07  -0.13     0.02   0.04   0.01
    25   1    -0.02  -0.05  -0.24     0.08   0.17  -0.28     0.05   0.06   0.03
    26   1    -0.11  -0.15  -0.12    -0.03   0.03  -0.03     0.01   0.02   0.02
    27   1     0.15   0.06   0.02     0.16   0.31   0.05    -0.01   0.03   0.00
    28   1    -0.13  -0.06   0.20    -0.04   0.12   0.21     0.00   0.05  -0.01
    29   1    -0.02   0.02   0.05     0.02  -0.02   0.01     0.07  -0.01  -0.03
    30   1    -0.31   0.04   0.12    -0.28  -0.03   0.07    -0.09  -0.08  -0.00
    31   1    -0.22  -0.09  -0.07    -0.15  -0.24  -0.18    -0.07  -0.06  -0.16
    32   1    -0.13   0.12   0.11     0.08   0.08  -0.09    -0.17  -0.10   0.12
    33   1    -0.09  -0.02   0.01     0.13  -0.03   0.11    -0.20  -0.09  -0.12
                     13                     14                     15
                      A                      A                      A
 Frequencies --    389.6838               417.9051               450.7513
 Red. masses --      3.4351                 3.8486                 2.8353
 Frc consts  --      0.3073                 0.3960                 0.3394
 IR Inten    --      0.8910                 3.3635                 2.3159
  Atom  AN      X      Y      Z        X      Y      Z        X      Y      Z
     1   8    -0.07   0.05  -0.10     0.16   0.19   0.12     0.00   0.05  -0.01
     2   6    -0.11   0.04  -0.06     0.09  -0.09   0.08    -0.05  -0.09  -0.01
     3   6    -0.04   0.04  -0.03     0.00  -0.16   0.03    -0.13  -0.14  -0.07
     4   6    -0.04  -0.03   0.05    -0.00  -0.05   0.05    -0.14  -0.06   0.00
     5   6     0.07  -0.10   0.13    -0.06  -0.05  -0.07    -0.06  -0.03   0.02
     6   6     0.16  -0.12   0.05    -0.06   0.05  -0.06     0.02   0.08  -0.05
     7   6     0.09  -0.01  -0.06    -0.00  -0.01   0.01     0.09   0.00  -0.03
     8   6    -0.06  -0.07  -0.01    -0.03  -0.03  -0.12     0.03   0.00   0.15
     9   6    -0.16   0.07  -0.03    -0.17   0.03  -0.02     0.14   0.05   0.05
    10   6     0.06   0.15   0.03     0.04   0.10   0.03     0.01   0.03  -0.01
    11   6    -0.07  -0.04  -0.02     0.06  -0.09  -0.04    -0.02  -0.06   0.02
    12   6     0.07  -0.00   0.02    -0.00   0.01  -0.07     0.01   0.06   0.01
    13   6     0.05  -0.00   0.05    -0.03   0.04   0.01     0.01   0.07  -0.03
    14   1    -0.05   0.01  -0.06    -0.02  -0.21  -0.03    -0.17  -0.20  -0.15
    15   1    -0.00   0.03  -0.02     0.10  -0.13   0.01    -0.03  -0.11  -0.09
    16   1    -0.16  -0.06   0.05     0.08  -0.01   0.13    -0.12  -0.04   0.08
    17   1     0.10  -0.13   0.14    -0.10  -0.10  -0.04    -0.07   0.06  -0.02
    18   1     0.23  -0.17   0.07    -0.12   0.15  -0.10     0.02   0.20  -0.14
    19   1     0.19  -0.14  -0.02    -0.02   0.08   0.05     0.13   0.12   0.09
    20   1    -0.04   0.02  -0.03     0.09  -0.02   0.01     0.21  -0.02  -0.04
    21   1     0.06   0.00  -0.06     0.04  -0.02   0.01     0.13  -0.01  -0.04
    22   1     0.15   0.06  -0.16    -0.05  -0.05   0.11     0.02  -0.06   0.08
    23   1    -0.06  -0.18  -0.03    -0.05  -0.05  -0.13     0.07   0.02   0.15
    24   1    -0.20   0.08  -0.03    -0.41   0.03  -0.02     0.37   0.10   0.06
    25   1    -0.14   0.03   0.05    -0.10   0.01   0.22     0.09   0.07  -0.16
    26   1     0.16   0.33   0.11     0.16   0.29   0.14    -0.05  -0.07  -0.06
    27   1     0.07   0.25   0.05    -0.01   0.17   0.04     0.02  -0.03  -0.02
    28   1     0.22  -0.08   0.06     0.22  -0.12  -0.01    -0.08   0.15  -0.01
    29   1     0.02  -0.00   0.02    -0.03  -0.14  -0.13    -0.07  -0.10  -0.07
    30   1     0.17   0.01  -0.10    -0.09   0.05  -0.04     0.11   0.06  -0.08
    31   1     0.11   0.06   0.15    -0.03  -0.00  -0.19     0.03   0.12   0.10
    32   1     0.10  -0.02  -0.03    -0.04   0.06   0.02     0.15   0.09  -0.26
    33   1     0.08   0.06   0.13    -0.05   0.08   0.02     0.17   0.15   0.20
                     16                     17                     18
                      A                      A                      A
 Frequencies --    480.9147               511.7177               594.7265
 Red. masses --      3.5730                 3.4313                 2.7525
 Frc consts  --      0.4869                 0.5294                 0.5736
 IR Inten    --      0.8582                 7.1660                 1.2337
  Atom  AN      X      Y      Z        X      Y      Z        X      Y      Z
     1   8    -0.09  -0.02  -0.04    -0.05   0.21  -0.05    -0.02   0.00   0.08
     2   6     0.05   0.05  -0.14    -0.06  -0.11  -0.14     0.21  -0.00  -0.14
     3   6     0.05   0.08  -0.03     0.02  -0.11   0.05     0.10   0.04  -0.03
     4   6    -0.06   0.00   0.18     0.11   0.09   0.04     0.02  -0.10   0.01
     5   6    -0.12   0.02   0.03     0.05   0.16   0.04    -0.05  -0.05   0.05
     6   6    -0.10   0.10  -0.13    -0.01  -0.02   0.02    -0.02   0.01  -0.03
     7   6     0.05  -0.01   0.00    -0.04  -0.00   0.02     0.00   0.00  -0.00
     8   6     0.04   0.01  -0.05    -0.02   0.08   0.01    -0.12  -0.00   0.14
     9   6     0.01   0.01   0.01     0.04  -0.03   0.01    -0.07  -0.01  -0.01
    10   6    -0.01   0.01   0.00     0.00  -0.07  -0.01     0.00   0.00  -0.00
    11   6     0.08  -0.02  -0.07    -0.09  -0.13  -0.05    -0.06   0.05  -0.00
    12   6     0.08  -0.13  -0.00     0.03  -0.05  -0.02    -0.00   0.03  -0.03
    13   6     0.03  -0.08   0.22     0.03  -0.01   0.08     0.01  -0.00  -0.07
    14   1    -0.11   0.05  -0.29     0.10   0.01   0.22     0.03   0.59   0.14
    15   1     0.32   0.06   0.00    -0.02  -0.36   0.24    -0.26  -0.26   0.19
    16   1    -0.07  -0.03   0.04     0.22   0.11  -0.01    -0.02  -0.10   0.06
    17   1    -0.30  -0.04   0.07     0.03   0.14   0.04    -0.05   0.04   0.01
    18   1    -0.12   0.16  -0.16     0.05  -0.24   0.15    -0.02   0.02  -0.03
    19   1    -0.05   0.12  -0.04    -0.16  -0.08  -0.19     0.01   0.01  -0.01
    20   1     0.23  -0.05  -0.04    -0.09  -0.01  -0.02     0.05  -0.01  -0.01
    21   1     0.19  -0.06   0.00    -0.05  -0.03   0.05     0.05  -0.01  -0.00
    22   1    -0.08  -0.05   0.25    -0.01   0.04  -0.02    -0.03  -0.01   0.07
    23   1     0.13  -0.03  -0.05    -0.00   0.11   0.02    -0.11  -0.04   0.13
    24   1    -0.06   0.02   0.01     0.15  -0.07   0.00     0.18   0.01  -0.01
    25   1     0.04   0.03   0.08    -0.01  -0.07  -0.12    -0.14  -0.04  -0.24
    26   1    -0.01   0.01   0.00    -0.03  -0.13  -0.03     0.02   0.08  -0.03
    27   1    -0.01   0.00  -0.00    -0.02  -0.13  -0.02     0.07   0.02  -0.00
    28   1    -0.01   0.02  -0.01    -0.04   0.01  -0.04     0.04  -0.08   0.04
    29   1     0.08   0.04   0.11    -0.21  -0.15  -0.03    -0.07   0.04  -0.03
    30   1    -0.00  -0.06  -0.03     0.14   0.00  -0.20     0.18  -0.03  -0.13
    31   1     0.07  -0.15  -0.08     0.07   0.03   0.11     0.05   0.13   0.14
    32   1     0.05  -0.10   0.20    -0.04  -0.01   0.20     0.02   0.04  -0.09
    33   1    -0.00   0.01   0.25    -0.05  -0.06  -0.03     0.04   0.03  -0.01
                     19                     20                     21
                      A                      A                      A
 Frequencies --    614.7045               635.7574               727.7758
 Red. masses --      3.3110                 3.4020                 2.8320
 Frc consts  --      0.7371                 0.8102                 0.8838
 IR Inten    --      1.3416                 1.3453                 1.7299
  Atom  AN      X      Y      Z        X      Y      Z        X      Y      Z
     1   8     0.08  -0.03   0.07    -0.02  -0.06   0.06    -0.02   0.04  -0.01
     2   6     0.04   0.01   0.09     0.14  -0.10  -0.12     0.02   0.02  -0.05
     3   6    -0.08  -0.01   0.00    -0.09  -0.02  -0.14     0.03  -0.10   0.02
     4   6    -0.11  -0.06   0.02    -0.13   0.12  -0.06     0.00  -0.14   0.07
     5   6    -0.03   0.19   0.19     0.04   0.08  -0.02    -0.03  -0.09  -0.04
     6   6     0.06   0.01   0.04     0.05  -0.01   0.04     0.04  -0.06   0.04
     7   6     0.06  -0.01  -0.04     0.02  -0.00  -0.01     0.02  -0.01   0.00
     8   6    -0.06   0.14  -0.04     0.06   0.04  -0.12    -0.00   0.14  -0.15
     9   6    -0.04  -0.03  -0.03    -0.03  -0.02  -0.04     0.12   0.02   0.01
    10   6    -0.01  -0.08   0.00    -0.01  -0.03   0.00     0.02  -0.00   0.00
    11   6     0.00   0.09  -0.08     0.09  -0.08   0.09    -0.11   0.18  -0.01
    12   6     0.06  -0.05  -0.13    -0.01   0.04   0.18    -0.02   0.02   0.04
    13   6     0.00  -0.06  -0.04    -0.04   0.05   0.07    -0.01  -0.03   0.01
    14   1    -0.14  -0.12  -0.14    -0.16   0.40  -0.02    -0.02   0.03   0.02
    15   1     0.01   0.16  -0.13    -0.28  -0.28   0.06    -0.01  -0.18   0.08
    16   1    -0.02  -0.07  -0.09    -0.09   0.14  -0.04     0.03  -0.12   0.14
    17   1     0.04   0.19   0.18     0.09   0.01   0.01    -0.04  -0.14  -0.01
    18   1     0.25  -0.33   0.21     0.09  -0.08   0.08     0.01   0.11  -0.07
    19   1    -0.10  -0.10  -0.29    -0.02  -0.03  -0.03     0.11  -0.00   0.22
    20   1     0.07  -0.05  -0.12    -0.03   0.00  -0.02    -0.12   0.05   0.11
    21   1     0.04  -0.08   0.03    -0.03   0.00  -0.00     0.01   0.08  -0.06
    22   1     0.06   0.01  -0.03     0.06   0.01  -0.10     0.08   0.05  -0.11
    23   1     0.01   0.02  -0.06    -0.08   0.07  -0.12    -0.02   0.12  -0.16
    24   1    -0.06  -0.11  -0.04    -0.33  -0.05  -0.05    -0.28   0.02   0.01
    25   1    -0.07  -0.12  -0.05     0.05  -0.03   0.23     0.20  -0.07   0.35
    26   1    -0.02  -0.10  -0.01     0.01  -0.05   0.06    -0.06  -0.27   0.06
    27   1    -0.02  -0.10  -0.00    -0.05   0.04   0.01    -0.14  -0.02   0.00
    28   1    -0.02  -0.06  -0.01     0.01  -0.06   0.01    -0.13   0.23  -0.05
    29   1    -0.15   0.06  -0.05    -0.01  -0.11   0.08    -0.29   0.15   0.04
    30   1     0.00  -0.08  -0.05    -0.06   0.07   0.20     0.01  -0.04   0.11
    31   1     0.05  -0.09  -0.17    -0.04   0.05   0.06    -0.00   0.01   0.11
    32   1     0.11  -0.04  -0.23     0.09  -0.01  -0.14     0.01  -0.00  -0.02
    33   1     0.08   0.11   0.17     0.11  -0.01   0.19     0.01   0.03   0.07
                     22                     23                     24
                      A                      A                      A
 Frequencies --    759.0686               787.8250               810.7031
 Red. masses --      2.0673                 1.6996                 1.4949
 Frc consts  --      0.7018                 0.6215                 0.5789
 IR Inten    --      0.3683                 3.3077                 0.8761
  Atom  AN      X      Y      Z        X      Y      Z        X      Y      Z
     1   8     0.05  -0.02   0.06     0.04  -0.00   0.03    -0.00   0.01  -0.00
     2   6     0.05  -0.04   0.03     0.00  -0.01   0.05    -0.01  -0.01   0.00
     3   6    -0.02   0.11  -0.01     0.04   0.11  -0.00     0.03  -0.00   0.02
     4   6    -0.05   0.07   0.00    -0.00   0.02  -0.00    -0.01   0.08  -0.01
     5   6     0.01  -0.03  -0.09     0.01  -0.02   0.02    -0.03   0.05   0.10
     6   6     0.04  -0.09   0.04    -0.02   0.05  -0.01    -0.03  -0.06  -0.04
     7   6     0.02  -0.02   0.00    -0.01   0.02  -0.00    -0.01  -0.03  -0.02
     8   6    -0.04   0.07  -0.02     0.02  -0.05  -0.04     0.03  -0.01   0.03
     9   6     0.00   0.01   0.05     0.08   0.01  -0.00    -0.00  -0.00  -0.05
    10   6     0.01  -0.01   0.01     0.02   0.03  -0.01     0.00  -0.03  -0.02
    11   6    -0.08  -0.08  -0.04    -0.10  -0.09  -0.02     0.01  -0.01   0.01
    12   6     0.00  -0.06  -0.06    -0.07  -0.04  -0.02     0.01  -0.03  -0.00
    13   6     0.01   0.01   0.07    -0.03  -0.01  -0.02    -0.01  -0.01  -0.09
    14   1    -0.10   0.05  -0.16     0.05   0.11   0.01     0.08  -0.04   0.08
    15   1     0.11   0.17  -0.05     0.00   0.13  -0.02     0.05  -0.04   0.06
    16   1    -0.14   0.04  -0.07    -0.08  -0.01  -0.05     0.02   0.09  -0.01
    17   1    -0.03  -0.02  -0.09     0.02  -0.09   0.06    -0.12   0.09   0.09
    18   1     0.03   0.22  -0.17    -0.05  -0.12   0.12     0.17   0.24  -0.31
    19   1     0.07   0.03   0.38    -0.01  -0.02  -0.22    -0.01   0.08   0.37
    20   1    -0.22   0.10   0.21     0.13  -0.06  -0.15    -0.12   0.11   0.29
    21   1     0.07   0.14  -0.14    -0.08  -0.08   0.10     0.33   0.13  -0.24
    22   1     0.12   0.11  -0.15    -0.06  -0.08   0.06    -0.02   0.14   0.14
    23   1    -0.03   0.20   0.00    -0.01  -0.09  -0.05     0.02  -0.11   0.01
    24   1     0.23  -0.10   0.03    -0.21   0.14   0.01    -0.19   0.12  -0.03
    25   1    -0.07   0.05  -0.21     0.15  -0.10   0.30     0.04  -0.07   0.16
    26   1    -0.01   0.06  -0.09    -0.03  -0.22   0.11     0.01  -0.14   0.11
    27   1     0.04  -0.20  -0.02    -0.12   0.16   0.02    -0.05   0.18   0.02
    28   1     0.01   0.06  -0.09    -0.08   0.15   0.03    -0.01  -0.08   0.09
    29   1    -0.23  -0.11  -0.01    -0.15  -0.11  -0.04     0.01  -0.00   0.02
    30   1     0.07   0.02  -0.24     0.28  -0.11  -0.24     0.07  -0.10   0.02
    31   1     0.03  -0.00   0.03     0.02   0.26   0.23     0.02   0.02   0.04
    32   1    -0.02   0.00   0.11     0.05   0.16  -0.17     0.03  -0.00  -0.16
    33   1    -0.04   0.01   0.03     0.15  -0.08   0.12     0.05  -0.05  -0.05
                     25                     26                     27
                      A                      A                      A
 Frequencies --    830.7049               851.0222               864.2433
 Red. masses --      1.4010                 2.2110                 2.0116
 Frc consts  --      0.5696                 0.9434                 0.8853
 IR Inten    --      8.2245                 0.7717                 2.9682
  Atom  AN      X      Y      Z        X      Y      Z        X      Y      Z
     1   8    -0.01   0.00  -0.02     0.01  -0.01   0.00     0.03   0.01   0.02
     2   6    -0.01   0.04   0.00    -0.00   0.01   0.02    -0.02  -0.05   0.04
     3   6     0.02  -0.03   0.03    -0.05   0.01  -0.04     0.03   0.02  -0.06
     4   6     0.01  -0.04   0.01     0.06  -0.13  -0.04     0.01   0.02  -0.05
     5   6     0.03   0.04  -0.02     0.05   0.06  -0.04    -0.01  -0.01   0.11
     6   6    -0.00  -0.01  -0.01    -0.00  -0.02  -0.02    -0.03   0.01  -0.04
     7   6    -0.01  -0.01   0.01    -0.02  -0.02   0.02    -0.03  -0.00  -0.02
     8   6     0.05   0.01  -0.05     0.01   0.00   0.09     0.04  -0.05  -0.08
     9   6    -0.04  -0.00   0.02    -0.02  -0.00  -0.06     0.01   0.00   0.04
    10   6    -0.02  -0.01   0.02     0.01  -0.04  -0.03    -0.00   0.03   0.03
    11   6     0.04   0.02  -0.02     0.00  -0.00  -0.06    -0.09   0.03  -0.10
    12   6    -0.08   0.00   0.03    -0.05   0.11  -0.01    -0.02   0.10   0.09
    13   6    -0.08  -0.04   0.02     0.04  -0.05   0.18     0.06  -0.07   0.03
    14   1     0.05  -0.07   0.05    -0.06   0.01  -0.05     0.11   0.12   0.11
    15   1     0.00   0.01  -0.00    -0.18   0.15  -0.16    -0.17  -0.04  -0.02
    16   1     0.10  -0.04  -0.04     0.11  -0.18  -0.25    -0.04  -0.02  -0.15
    17   1     0.00   0.02  -0.01     0.08   0.22  -0.12    -0.00  -0.09   0.15
    18   1     0.04   0.03  -0.05     0.02   0.08  -0.09     0.12   0.01  -0.09
    19   1    -0.04   0.02   0.05    -0.07   0.03   0.10     0.01   0.02  -0.00
    20   1    -0.06   0.02   0.08    -0.12   0.04   0.13     0.08   0.01   0.05
    21   1     0.04   0.03  -0.04     0.05   0.06  -0.06     0.17  -0.01  -0.06
    22   1    -0.00   0.04   0.01     0.01   0.06   0.00    -0.12   0.01   0.22
    23   1     0.08   0.04  -0.04     0.01  -0.00   0.09     0.21  -0.19  -0.09
    24   1     0.14  -0.17  -0.01    -0.16   0.23  -0.03     0.13  -0.19   0.01
    25   1    -0.06   0.16  -0.18     0.00  -0.15   0.13     0.01   0.16  -0.11
    26   1     0.02   0.23  -0.12     0.03  -0.21   0.17    -0.01   0.17  -0.13
    27   1     0.11  -0.20  -0.02    -0.07   0.30   0.03     0.06  -0.23  -0.02
    28   1     0.08  -0.08  -0.07    -0.02  -0.14   0.16     0.04   0.08  -0.12
    29   1     0.13   0.05  -0.00     0.05  -0.03  -0.21    -0.18  -0.06  -0.33
    30   1     0.27  -0.18  -0.03    -0.04   0.18  -0.12    -0.20   0.17   0.14
    31   1    -0.02   0.38   0.13    -0.05   0.15  -0.02    -0.06  -0.16   0.07
    32   1     0.09   0.26  -0.30     0.01   0.04   0.22     0.04  -0.24   0.09
    33   1     0.27  -0.12   0.34     0.00   0.01   0.19    -0.03  -0.10  -0.08
                     28                     29                     30
                      A                      A                      A
 Frequencies --    888.1880               941.3599               951.7785
 Red. masses --      2.1341                 2.1146                 1.8529
 Frc consts  --      0.9919                 1.1041                 0.9889
 IR Inten    --      1.3356                 4.0920                 1.2584
  Atom  AN      X      Y      Z        X      Y      Z        X      Y      Z
     1   8     0.00   0.02   0.02     0.00   0.01  -0.02    -0.02  -0.00  -0.00
     2   6     0.07  -0.03  -0.07    -0.06  -0.02   0.03     0.06   0.01  -0.06
     3   6    -0.04  -0.01   0.12     0.14   0.00  -0.01    -0.07   0.02   0.08
     4   6    -0.05   0.09  -0.01    -0.05   0.04  -0.06     0.03  -0.04   0.01
     5   6    -0.05  -0.01  -0.05    -0.11   0.01  -0.02     0.00   0.05   0.02
     6   6     0.01  -0.00   0.05    -0.02  -0.02   0.08     0.01   0.01  -0.00
     7   6     0.06   0.01  -0.01     0.10  -0.01  -0.03    -0.02  -0.02  -0.01
     8   6     0.03  -0.02   0.06    -0.10  -0.03   0.02    -0.11  -0.04  -0.03
     9   6    -0.03  -0.01  -0.03     0.02  -0.03   0.03     0.04  -0.05   0.03
    10   6    -0.01  -0.02  -0.02     0.02   0.06  -0.00     0.04   0.10   0.03
    11   6    -0.02   0.08  -0.12     0.07  -0.01  -0.02     0.07  -0.06   0.02
    12   6    -0.06   0.03   0.09     0.04   0.06  -0.02    -0.05   0.06   0.02
    13   6     0.05  -0.09  -0.03    -0.05  -0.07   0.06     0.04  -0.03  -0.05
    14   1    -0.13  -0.27  -0.16     0.31   0.03   0.28    -0.18  -0.14  -0.19
    15   1     0.42   0.05   0.10    -0.03  -0.16   0.11     0.19   0.16  -0.02
    16   1    -0.04   0.08  -0.05    -0.07  -0.01  -0.24     0.08  -0.04  -0.03
    17   1    -0.05   0.02  -0.07    -0.14  -0.00  -0.01     0.10   0.00   0.03
    18   1    -0.13  -0.02   0.11    -0.15   0.01   0.10     0.19  -0.04  -0.03
    19   1     0.04  -0.03  -0.02    -0.09  -0.00   0.10    -0.10   0.02   0.01
    20   1     0.02  -0.03  -0.13    -0.07   0.00  -0.07    -0.05   0.04   0.12
    21   1    -0.15  -0.02   0.08    -0.10   0.05  -0.02     0.14   0.04  -0.10
    22   1     0.12  -0.04  -0.20     0.23   0.02  -0.32    -0.03   0.06   0.09
    23   1     0.16  -0.02   0.07    -0.08  -0.01   0.02    -0.31  -0.05  -0.05
    24   1     0.01   0.14  -0.00     0.03  -0.00   0.03    -0.08  -0.24  -0.00
    25   1    -0.03  -0.02  -0.02    -0.03  -0.17  -0.00     0.01  -0.16   0.06
    26   1     0.04   0.00   0.08    -0.04  -0.10  -0.00    -0.09  -0.07  -0.11
    27   1     0.01   0.19   0.01    -0.07   0.03  -0.01    -0.09  -0.17  -0.02
[...]
 055930,-0.00021744,0.00030724,-0.00000182,-0.00011867,-0.00006751,-0.0
 0001794,-0.00004512,-0.00524537,-0.00366483,0.00068966,0.01921725,-0.0
 2212718,-0.00411397,0.12695588,-0.19840797,-0.03225251,-0.00041514,0.0
 0014063,0.00035999,0.00010120,-0.00001596,0.00004026,0.00005277,-0.000
 02126,0.00003234,0.00002455,0.00000094,-0.00003065,-0.00001309,0.00000
 587,0.00000583,-0.00002653,-0.00011924,-0.00014570,-0.00016078,-0.0005
 0818,0.00006547,-0.00004672,0.00007957,-0.00003522,-0.00008676,-0.0000
 2456,0.00003706,0.00005325,-0.00000118,-0.00000886,0.00000446,0.000015
 08,-0.00000562,-0.00004393,-0.00001219,0.00005819,-0.00012410,0.000296
 14,0.00008826,-0.00012276,0.00086596,-0.00060144,0.00032818,0.00118520
 ,0.00052714,-0.00261639,0.00309597,-0.00021420,-0.00202203,0.00266635,
 0.00134614,-0.13736568,0.21707234,0.00009926,-0.00002512,0.00000351,-0
 .00039270,0.00000385,0.00005790,0.00009235,-0.00011126,-0.00003048,0.0
 0008438,0.00009891,-0.00009569,-0.00014915,0.00022647,0.00037280,-0.00
 002257,-0.00002244,0.00002967,0.00002684,0.00001927,0.00001704,0.00058
 756,0.00119690,0.00002005,-0.00296730,0.00372517,-0.00057587,0.0266841
 2,-0.03255836,-0.05644662,0.00053028,0.00010645,-0.00006370,-0.0000147
 6,-0.00001265,0.00012609,0.00003133,0.00000209,-0.00003764,-0.00001658
 ,-0.00002240,0.00000476,-0.00001556,-0.00003646,-0.00000317,0.00000293
 ,0.00002117,0.00006158,-0.00001516,0.00001324,-0.00001362,0.00000801,-
 0.00000391,0.00000393,0.00001028,-0.00000159,-0.00001254,-0.00002837,-
 0.00000167,-0.00001215,-0.00000684,-0.00001823,-0.00000214,0.00000436,
 0.00000337,-0.00000312,0.00037616,-0.00027536,0.00019252,0.00018043,-0
 .00030298,-0.00005690,-0.00052660,0.00019871,0.00030602,0.02011535,-0.
 02432614,-0.00405155,-0.01395019,0.01804780,0.00419215,-0.03033898,0.0
 3437208,0.05589328,0.00202276,-0.00194387,0.00028125,0.01110753,0.0177
 1084,-0.00270578,-0.00203676,0.00261273,0.00031867,-0.00024228,0.00075
 886,-0.00012904,-0.00027222,0.00117969,0.00220072,0.00013684,-0.000715
 90,-0.00000357,-0.00007324,-0.00003431,-0.00008243,-0.00818607,-0.0115
 8863,0.00162320,-0.00024537,-0.00087792,-0.00025031,-0.00000712,-0.000
 25326,0.00087151,-0.14405996,-0.12923794,0.01949190,-0.01232900,-0.016
 11260,0.00306959,-0.00102083,0.00031791,-0.00402161,0.00016892,0.00042
 957,-0.00000374,0.00037811,0.00063216,0.00000878,0.00003509,-0.0000386
 3,0.00003261,-0.00012845,-0.00025255,0.00019542,-0.00003089,0.00001726
 ,-0.00003614,-0.00021704,0.00001188,0.00009405,0.00004469,0.00002851,0
 .00003170,0.00001455,0.00001745,0.00000123,-0.00001793,0.00002074,0.00
 004786,0.00085225,0.00041268,-0.00009202,0.00002350,0.00007364,0.00012
 379,0.00016315,0.00015115,-0.00001617,-0.00013664,0.00114792,-0.000544
 72,0.00000237,0.00006927,0.00001102,0.00032942,0.00007823,-0.00046878,
 0.15377566,0.00041339,0.00587330,-0.00074697,-0.02066999,-0.02667002,0
 .00346850,0.00360666,-0.00289156,0.00017028,0.00105544,0.00041251,-0.0
 0019136,0.00074531,0.00057368,-0.00072594,0.00012838,0.00022870,-0.000
 04002,-0.00003553,-0.00000525,0.00000811,0.00201351,0.00327266,0.00040
 546,0.00003664,-0.00003102,0.00051856,0.00083175,-0.00126237,-0.000102
 61,-0.12552977,-0.21696847,0.02713899,0.00081839,0.00058273,-0.0003822
 2,0.00072292,0.00093345,0.00022817,-0.00024180,-0.00064865,-0.00006247
 ,-0.00049821,-0.00106055,-0.00001828,-0.00006842,0.00009399,0.00002137
 ,0.00000398,-0.00001068,-0.00004105,-0.00002808,-0.00000269,0.00001271
 ,0.00007459,0.00001738,-0.00003182,0.00000078,0.00001367,-0.00000098,0
 .00000187,-0.00000513,-0.00000262,-0.00000572,-0.00000040,0.00001680,-
 0.00008071,0.00037966,0.00055347,0.00005148,-0.00003552,-0.00005288,-0
 .00018470,0.00007209,0.00000448,0.00109117,-0.00121731,-0.00102328,-0.
 00008086,0.00001859,0.00005948,0.00016419,0.00006414,-0.00023626,0.135
 89545,0.23763032,-0.00060177,-0.00011630,-0.00102552,0.00090520,-0.001
 04423,-0.00040664,0.00031878,-0.00020457,0.00193743,-0.00015342,-0.000
 04188,-0.00076111,0.00310159,-0.00250352,-0.00441829,-0.00013609,0.001
 71306,0.00008977,0.00011672,0.00002002,0.00013781,0.01624318,0.0237565
 4,-0.00447056,-0.00047998,0.00053472,0.00066879,0.00023391,-0.00028298
 ,0.00026167,0.01882393,0.02737711,-0.05330692,-0.01495743,-0.02048976,
 0.00408473,-0.00245408,0.00056078,-0.00401926,0.00008228,0.00038688,-0
 .00003394,-0.00012755,-0.00028434,-0.00001127,0.00008055,0.00001226,0.
 00016219,0.00001296,0.00040662,-0.00010703,0.00006472,-0.00012570,0.00
 001734,0.00058146,0.00007485,-0.00027186,-0.00005434,-0.00002578,-0.00
 000589,-0.00001521,-0.00000359,0.00001288,0.00002081,-0.00003222,-0.00
 007536,-0.00076213,0.00023308,0.00100749,0.00004972,-0.00011510,-0.000
 02162,-0.00017776,0.00004186,-0.00000606,0.00018944,-0.00050697,0.0002
 4282,-0.00007607,-0.00013235,-0.00027343,-0.00023574,-0.00004573,0.000
 04061,-0.02076183,-0.02806443,0.05869748,-0.00143461,0.00162031,0.0009
 3468,-0.00124253,-0.00459180,-0.00428127,-0.00005571,0.00051421,0.0009
 4882,-0.00238913,-0.00266637,-0.00017704,0.00000198,-0.00019380,-0.000
 14424,0.00001883,0.00000822,0.00000922,0.00000025,0.00001803,0.0000039
 7,0.00020027,-0.00034425,0.00150579,0.00039806,0.00028832,0.00036337,0
 .00023391,0.00001083,-0.00041705,-0.01299500,0.01990309,-0.00509108,-0
 .11029229,0.11420263,-0.01519782,0.00995215,-0.02000783,0.00432366,0.0
 0011395,0.00015821,-0.00014462,0.00011451,-0.00015273,-0.00005743,0.00
 043675,-0.00059223,0.00091589,0.00000479,0.00000236,0.00010516,0.00000
 893,0.00000265,0.00000793,0.00005410,0.00001128,-0.00003266,-0.0000088
 6,0.00000299,-0.00000170,-0.00000474,-0.00001052,-0.00000084,0.0000019
 3,-0.00000178,0.00000088,-0.00005201,0.00003451,0.00005919,0.00010468,
 0.00019570,0.00079394,0.00018669,-0.00024814,0.00011289,-0.00034966,-0
 .00039256,0.00003140,-0.00007355,-0.00000638,0.00019657,-0.00004152,-0
 .00001199,0.00012423,0.00039938,-0.00015357,0.00054922,0.12410042,-0.0
 0035940,0.00023558,0.00050910,-0.00017004,-0.00002905,-0.00141598,-0.0
 0040797,0.00072286,-0.00015588,-0.00304283,-0.00244191,-0.00079772,-0.
 00000935,-0.00017682,-0.00033358,0.00012448,-0.00004913,0.00006581,-0.
 00007534,0.00000998,-0.00002754,0.00054368,-0.00037799,0.00012615,0.00
 108110,-0.00008302,-0.00041924,-0.00002575,0.00023203,-0.00029452,-0.0
 0268126,0.00502467,-0.00053516,0.11316586,-0.24415946,0.02804846,0.010
 04863,-0.01804022,0.00290740,-0.00004151,0.00016662,0.00000544,0.00006
 864,-0.00001221,0.00003544,0.00045970,-0.00061195,0.00111293,0.0000259
 9,0.00008571,0.00010595,-0.00008176,0.00000057,0.00000203,0.00004171,0
 .00006286,-0.00004019,0.00002719,0.00002609,0.00004892,0.00000583,0.00
 001845,-0.00001579,-0.00001308,0.00000762,0.00003885,-0.00012531,0.000
 08234,0.00022301,-0.00051017,-0.00004775,-0.00084220,-0.00030972,0.000
 01588,-0.00024499,-0.00002958,-0.00001845,0.00007658,-0.00006658,-0.00
 005092,0.00002146,0.00001444,0.00001169,-0.00002117,0.00036478,0.00058
 611,0.00040644,-0.12075335,0.26405786,-0.00219370,0.00158996,0.0012199
 4,-0.00106609,-0.00395794,-0.00480965,0.00041372,-0.00038546,0.0006909
 6,0.00111221,0.00139581,-0.00029320,0.00004117,0.00029308,0.00014511,-
 0.00008962,0.00010684,-0.00006135,0.00006897,0.00000081,0.00002580,0.0
 0035692,0.00057838,0.00156201,-0.00022106,-0.00018966,-0.00123854,0.00
 023050,-0.00025541,-0.00009881,-0.01470719,0.02389218,-0.00471765,-0.0
 1426729,0.02693764,-0.05204076,-0.00264003,0.00569180,-0.00157741,0.00
 014705,0.00030421,0.00008226,-0.00002051,-0.00005944,0.00003881,-0.000
 04019,0.00027700,-0.00049544,-0.00004735,-0.00011557,0.00003526,0.0001
 1319,-0.00001910,0.00000423,-0.00001248,-0.00006398,0.00002059,-0.0000
 2819,-0.00003329,-0.00004661,-0.00000211,-0.00002814,0.00002225,-0.000
 00627,-0.00001106,-0.00001378,0.00004374,-0.00023021,0.00033614,0.0013
 8667,-0.00052405,-0.00137473,0.00023894,0.00004090,0.00037171,-0.00026
 249,-0.00023433,0.00004236,0.00003697,0.00015646,0.00019200,-0.0000273
 6,0.00001277,0.00005664,0.00059222,-0.00043416,0.00107688,0.01621033,-
 0.02931957,0.05587319,0.00014423,-0.00037759,0.00020694,0.00165038,0.0
 0014428,-0.00090460,-0.00014310,0.00016222,0.00027952,-0.00133765,-0.0
 0042232,-0.00052251,-0.00018235,-0.00035731,-0.00000665,-0.00005050,0.
 00018230,0.00000963,0.00003522,-0.00006346,-0.00000867,-0.00393857,-0.
 00005471,-0.00331522,-0.00068118,0.00025531,-0.00002438,0.00010674,-0.
 00005088,0.00004819,0.01183318,-0.00354599,-0.02107874,-0.11372218,0.0
 2554146,0.11086843,-0.01208054,0.00319871,0.01548977,0.00001475,-0.000
 02553,-0.00016240,0.00009199,-0.00003148,-0.00003975,0.00020749,-0.000
 15320,0.00032051,0.00003654,0.00004484,0.00009473,0.00009290,-0.000079
 99,-0.00003470,0.00007347,0.00003603,-0.00004533,-0.00001254,0.0000291
 0,0.00003396,0.00000233,-0.00000554,0.00003578,-0.00000039,0.00000926,
 0.00001078,0.00075639,-0.00012324,-0.00147945,0.00040107,-0.00014891,0
 .00021553,0.00017623,-0.00003787,0.00012223,-0.00005007,-0.00001928,0.
 00000849,0.00004382,0.00008253,0.00002433,-0.00000934,-0.00002864,0.00
 001065,0.00064441,-0.00012461,0.00097091,-0.00840053,0.00361231,0.0148
 4110,0.12482095,-0.00053658,0.00009168,-0.00003119,0.00076601,0.000050
 75,0.00113693,0.00001125,0.00003036,-0.00000881,-0.00181345,-0.0007174
 7,-0.00022707,0.00005252,-0.00014761,-0.00043784,-0.00004652,0.0000818
 9,-0.00001836,0.00001523,-0.00003916,-0.00002872,-0.00019739,0.0000689
 1,-0.00021646,0.00031368,0.00019546,0.00002097,-0.00005260,0.00014621,
 -0.00003069,0.00153634,-0.00040421,-0.00123333,0.02571285,-0.05925572,
 -0.03961135,-0.01405339,0.00311039,0.02059249,0.00014892,-0.00036684,0
 .00007711,0.00009778,0.00005418,-0.00008631,0.00030767,-0.00034600,0.0
 0037732,0.00009087,0.00007253,0.00004756,0.00000989,-0.00008173,0.0000
 0544,0.00003795,0.00004846,-0.00004623,0.00001412,0.00002963,0.0000455
 9,0.00000519,0.00001572,0.00001879,0.00000503,0.00000516,0.00000268,-0
 .00000002,0.00014321,-0.00008579,-0.00047590,-0.00003504,-0.00003963,-
 0.00017572,-0.00000031,-0.00018526,0.00011364,0.00009457,-0.00000878,-
 0.00003509,-0.00003646,-0.00005367,0.00001330,-0.00001378,-0.00001249,
 0.00017748,-0.00007021,-0.00009435,0.01450129,-0.00544740,-0.02553954,
 -0.02440129,0.06337638,-0.00131813,0.00021715,0.00024351,0.00225537,-0
 .00134748,-0.00080476,0.00026268,-0.00004009,-0.00049341,0.00054389,0.
 00033530,0.00022418,-0.00029852,-0.00060021,0.00051184,-0.00001731,0.0
 0010411,0.00007962,-0.00001117,-0.00003074,0.00001599,-0.00494354,-0.0
 0051678,-0.00272786,-0.00059517,0.00045203,0.00041551,0.00008867,0.000
 03490,-0.00006732,0.01044254,-0.00317082,-0.02134481,0.11093513,-0.038
 98483,-0.23344755,0.00151115,-0.00150199,-0.00265005,0.00003367,0.0003
 7426,0.00024104,-0.00014286,0.00011103,0.00017751,-0.00012624,0.000181
 92,-0.00014660,-0.00001866,0.00004253,0.00001466,-0.00001264,-0.000006
 90,-0.00001774,0.00006201,0.00003638,-0.00002023,-0.00001137,0.0000263
 6,0.00003274,-0.00000818,0.00000723,-0.00000446,0.00002344,0.00001164,
 -0.00000919,0.00092977,-0.00006522,-0.00159835,0.00007210,0.00001176,0
 .00015538,0.00008165,-0.00004228,0.00000716,-0.00001957,0.00001369,0.0
 0002491,-0.00000095,0.00003115,0.00001064,-0.00000068,-0.00007564,0.00
 000994,-0.00015256,-0.00038288,0.00052261,-0.00161324,0.00001425,0.004
 19548,-0.11704630,0.04391772,0.25434874,-0.00028481,-0.00015637,-0.000
 00253,0.00101662,0.00031596,0.00021936,0.00050300,0.00180985,-0.002628
 18,-0.01063675,0.00433053,0.00182376,-0.00012970,0.00030271,0.00073485
 ,-0.00028684,0.00056472,-0.00009810,0.00035645,-0.00027831,-0.00003650
 ,-0.00054708,-0.00011476,0.00003456,-0.00058187,0.00032331,-0.00063711
 ,0.00018936,-0.00013996,0.00031336,-0.00055324,-0.00110368,0.00089247,
 -0.01561362,0.00599877,0.00570291,-0.25866941,0.08347799,0.05600515,0.
 00022617,-0.00013370,0.00002608,-0.00088235,0.00004939,0.00020680,0.00
 037552,0.00031774,-0.00028655,0.00012855,-0.00005303,0.00008057,0.0005
 8820,-0.00051049,0.00021365,-0.00001670,-0.00002524,-0.00006746,-0.000
 00347,0.00002921,0.00003677,0.00001562,0.00001731,0.00019487,-0.000009
 04,-0.00000304,-0.00005003,0.00015967,-0.00005736,-0.00009637,0.000385
 16,-0.00050615,0.00018457,0.00017690,-0.00002369,0.00008884,0.00000802
 ,0.00007601,-0.00006940,0.00008272,0.00014109,0.00001698,0.00001368,-0
 .00001017,-0.00003352,-0.00033950,-0.00000898,-0.00047895,0.00175251,0
 .00009042,-0.00005233,-0.00174251,-0.00222839,-0.00045035,0.28024416,0
 .00030206,0.00062156,-0.00002443,-0.00008432,-0.00152686,0.00012172,0.
 00059922,-0.00161854,0.00396199,0.01720855,-0.00665118,-0.00558945,-0.
 00050561,0.00073750,-0.00088166,0.00021181,0.00010327,0.00002842,-0.00
 025198,0.00002822,0.00007148,-0.00001090,0.00017259,0.00018677,-0.0003
 2954,-0.00008154,-0.00034298,0.00004368,-0.00005865,0.00013144,-0.0008
 8991,-0.00089910,0.00076951,-0.02366485,0.00748663,0.00774072,0.084474
 00,-0.08250405,-0.02479648,-0.00055469,0.00019413,0.00016235,0.0013779
 8,0.00003107,0.00004309,-0.00036735,0.00005716,-0.00052196,-0.00005088
 ,-0.00009458,-0.00016815,-0.00015173,0.00038226,-0.00009136,-0.0000135
 7,-0.00021113,0.00011347,-0.00001202,-0.00003474,-0.00007985,-0.000002
 06,-0.00001637,-0.00009326,0.00000081,0.00000485,0.00005032,0.00007964
 ,-0.00003546,-0.00006658,0.00004894,-0.00028951,-0.00007991,0.00006911
 ,-0.00001012,0.00005046,-0.00000291,0.00001162,-0.00004351,0.00002665,
 0.00004778,-0.00000829,-0.00000027,-0.00000040,-0.00001747,-0.00033036
 ,0.00004455,-0.00044560,-0.00005907,0.00174630,-0.00003538,-0.00327141
 ,-0.00239649,0.00072232,-0.09147050,0.09209289,-0.00017991,-0.00043535
 ,0.00002465,0.00048393,0.00090985,-0.00004303,-0.00115039,0.00294279,-
 0.00441546,-0.02537660,0.00970535,0.00660798,-0.00024893,-0.00032064,0
 .00138379,-0.00006178,0.00024621,-0.00038306,0.00009716,-0.00017915,-0
 .00008388,-0.00005791,-0.00028671,-0.00000047,-0.00012573,-0.00023835,
 -0.00015084,0.00002266,-0.00006432,-0.00000866,-0.00011139,-0.00002179
 ,-0.00034877,0.00558854,-0.00100131,-0.00320953,0.05661728,-0.02567419
 ,-0.06538853,-0.00000137,0.00023277,0.00014398,-0.00171769,0.00038771,
 0.00038290,0.00072327,-0.00043274,0.00072668,0.00020203,0.00011175,0.0
 0044428,0.00036130,-0.00023090,-0.00082427,0.00002823,0.00002312,-0.00
 002097,0.00001347,0.00003258,0.00003247,0.00001062,0.00000932,0.000111
 91,-0.00003094,0.00000677,0.00003127,0.00002015,0.00000662,0.00003934,
 -0.00006777,-0.00023882,0.00003610,0.00000747,-0.00004564,-0.00003358,
 0.00002238,0.00001003,-0.00002624,0.00001264,0.00001649,-0.00000819,-0
 .00000825,0.00001224,0.00000776,0.00005672,-0.00009112,0.00000993,0.00
 010772,0.00004795,0.00097762,0.00120294,0.00150691,0.00027048,-0.06175
 725,0.02353160,0.06986318,-0.00011225,0.00042064,0.00005962,0.00010457
 ,-0.00116407,-0.00005028,0.00090812,-0.00088346,-0.00060128,-0.0017528
 7,-0.00701379,-0.00958106,-0.00078618,0.00155882,-0.00126322,-0.000219
 34,0.00034075,-0.00007410,0.00020926,-0.00012869,-0.00001864,-0.000084
 70,0.00027630,0.00042892,-0.00031876,0.00019881,-0.00024653,0.00006831
 ,-0.00006321,0.00016755,-0.00181482,-0.00310362,0.00115794,-0.00476422
 ,-0.01255158,-0.01601132,-0.05290067,-0.01402111,-0.02237286,-0.000278
 49,0.00037940,0.00034360,0.00016942,0.00007588,0.00020566,0.00055203,0
 .00006301,0.00061458,0.00016822,-0.00035328,-0.00063416,0.00028308,-0.
 00023374,-0.00008955,0.00005473,-0.00002135,-0.00001230,-0.00000858,0.
 00001298,0.00002375,-0.00000103,0.00001315,0.00010731,0.00000782,-0.00
 000961,-0.00003591,0.00008980,0.00000901,-0.00001663,0.00019135,-0.000
 15533,0.00019884,0.00007326,-0.00001005,0.00002176,0.00001614,0.000069
 37,-0.00003223,0.00004272,0.00006329,-0.00000284,0.00001525,-0.0000068
 0,-0.00002145,-0.00075532,0.00005508,-0.00087301,-0.00074395,-0.000971
 76,-0.00014945,0.00121934,0.00008533,-0.00045463,0.00407458,0.01758150
 ,0.02531743,0.05629319,-0.00026756,0.00034297,0.00008067,0.00040488,-0
 .00084223,-0.00001630,-0.00085738,0.00090237,0.00005960,0.00211348,0.0
 1177600,0.01696902,0.00227819,-0.00230276,0.00275231,0.00028100,-0.000
 07548,-0.00003526,-0.00014812,0.00001450,-0.00000662,0.00014850,-0.000
 19438,0.00044674,0.00022941,0.00000952,0.00021385,-0.00011922,0.000036
 79,-0.00005088,-0.00121059,-0.00289107,0.00180087,-0.00327453,-0.01290
 127,-0.01791923,-0.01489901,-0.13582109,-0.12336521,-0.00013505,0.0001
 0254,-0.00026809,-0.00025726,0.00009211,0.00002958,-0.00040860,0.00108
 527,-0.00060263,0.00003930,0.00061103,0.00120406,-0.00019773,0.0000799
 8,0.00000177,-0.00001862,0.00002958,-0.00001579,0.00001766,0.00000887,
 0.00001337,-0.00000293,0.00002239,-0.00006331,-0.00002179,0.00002015,0
 .00003733,0.00000054,0.00009027,-0.00008679,-0.00021271,0.00011941,-0.
 00000561,-0.00000233,-0.00006205,-0.00009556,0.00002319,0.00008072,-0.
 00002395,-0.00001873,-0.00004840,-0.00001671,0.00003462,-0.00000829,-0
 .00002951,-0.00072223,0.00008231,-0.00096482,-0.00128825,-0.00154693,0
 .00015844,0.00002492,0.00174296,0.00012014,-0.00102118,-0.00733366,-0.
 01047903,0.01948814,0.14677789,-0.00006345,0.00007267,-0.00000630,0.00
 005125,-0.00035387,-0.00005626,0.00133533,-0.00065199,0.00073419,-0.00
 169903,-0.01504194,-0.02197314,-0.00274283,0.00482729,-0.00217740,-0.0
 0047753,-0.00012158,0.00025575,0.00019014,0.00007559,-0.00000464,0.000
 55194,0.00068502,0.00025769,-0.00005009,-0.00004583,0.00010796,0.00007
 177,-0.00000064,-0.00004148,0.00048807,0.00108442,0.00022784,0.0023710
 1,0.00573802,0.00702845,-0.02373327,-0.12274084,-0.21720457,-0.0007881
 3,0.00040959,0.00048695,0.00014743,0.00014997,0.00023791,0.00067466,0.
 00016588,0.00074801,-0.00011973,-0.00083875,-0.00171337,0.00004372,0.0
 0000345,0.00003524,0.00006578,0.00007822,-0.00001866,-0.00002743,-0.00
 001254,0.00000258,-0.00000699,-0.00003636,0.00002455,0.00006500,-0.000
 03939,-0.00009738,-0.00006624,-0.00004200,0.00010086,-0.00001211,-0.00
 000272,-0.00007822,-0.00002351,0.00002541,0.00000516,-0.00002842,-0.00
 003277,0.00002629,-0.00001703,-0.00000284,0.00000651,-0.00000875,-0.00
 004837,0.00000891,0.00021648,0.00002495,0.00024431,-0.00014588,0.00066
 736,-0.00020130,-0.00012572,0.00024636,0.00183037,-0.00003093,-0.00439
 932,-0.00614885,0.02389449,0.13015755,0.23735205\\0.00008951,-0.000010
 52,-0.00000055,-0.00005271,0.00000282,0.00003272,0.00003101,-0.0000755
 5,0.00005708,-0.00000525,0.00002821,-0.00005329,0.00002043,-0.00000870
 ,0.00002892,-0.00000459,0.00001606,-0.00002149,0.00000816,0.00002093,0
 .00001706,0.00001086,0.00002022,0.00005548,-0.00001527,-0.00000754,-0.
 00000857,0.00000489,0.00000023,0.00001058,0.00002344,0.00001118,-0.000
 10251,-0.00003675,-0.00001133,0.00008375,0.00001296,0.00001626,-0.0000
 2822,-0.00001800,0.00002238,-0.00001442,-0.00000802,0.00000517,-0.0000
 1726,0.00000273,0.00000261,-0.00000229,-0.00000235,0.00000743,0.000010
 39,-0.00000198,0.00002963,-0.00000844,0.00001129,0.00000484,-0.0000104
 8,-0.00000590,-0.00001731,0.00000265,-0.00000151,-0.00000317,-0.000004
 11,-0.00000025,-0.00000123,-0.00000169,0.00000642,-0.00001159,-0.00000
 918,0.00000067,-0.00000721,-0.00001251,-0.00000064,-0.00001860,-0.0000
 1659,-0.00001506,-0.00000177,0.00000592,-0.00000403,-0.00000101,-0.000
 00030,-0.00000264,-0.00000560,-0.00000031,-0.00001642,-0.00000899,0.00
 000536,-0.00002303,0.00000435,-0.00001036,-0.00000002,0.00000118,0.000
 00160,0.00000487,-0.00001430,0.00001656,-0.00001282,0.00001094,-0.0000
 0549\\\@


 THE SCIENTIFIC THEORIST IS NOT TO BE ENVIED. FOR NATURE, OR MORE
 PRECISELY EXPERIMENT, IS AN INEXORABLE AND NOT VERY FRIENDLY JUDGE OF HIS
 WORK.  IT NEVER SAYS "YES" TO A THEORY. IN THE MOST FAVORABLE CASES
 IT SAYS "MAYBE", AND IN THE GREAT MAJORITY OF CASES SIMPLY "NO"...
 PROBABLY EVERY THEORY WILL SOME DAY EXPERIENCE ITS "NO" - MOST
 THEORIES, SOON AFTER CONCEPTION.  -- A.EINSTEIN, NOV 11, 1922.
 Job cpu time:       0 days  0 hours  4 minutes  1.9 seconds.
 Elapsed time:       0 days  0 hours  4 minutes  8.4 seconds.
 File lengths (MBytes):  RWF=    219 Int=      0 D2E=      0 Chk=     16 Scr=      1
 Normal termination of Gaussian 16 at Sat Feb 24 03:30:14 2024.
