 Entering Gaussian System, Link 0=g16
 Input=/Volumes/SSD-PMU3/b3lyp_6-31gd_freq/DIUWPHAKGSHMIN-KQJSWNCZSA-N_calculating/gaussianinput0.gjf
 Output=/Volumes/SSD-PMU3/b3lyp_6-31gd_freq/DIUWPHAKGSHMIN-KQJSWNCZSA-N_calculating/gaussianinput0.log
 Initial command:
 /Applications/g16/l1.exe "/Users/macmini_m1_2022/PycharmProjects/sphere_model/sphere_model_lib/Gau-86001.inp" -scrdir="/Users/macmini_m1_2022/PycharmProjects/sphere_model/sphere_model_lib/"
 Entering Link 1 = /Applications/g16/l1.exe PID=     86002.
  
 Copyright (c) 1988,1990,1992,1993,1995,1998,2003,2009,2016,
            Gaussian, Inc.  All Rights Reserved.
  
 This is part of the Gaussian(R) 16 program.  It is based on
 the Gaussian(R) 09 system (copyright 2009, Gaussian, Inc.),
 the Gaussian(R) 03 system (copyright 2003, Gaussian, Inc.),
 the Gaussian(R) 98 system (copyright 1998, Gaussian, Inc.),
 the Gaussian(R) 94 system (copyright 1995, Gaussian, Inc.),
 the Gaussian 92(TM) system (copyright 1992, Gaussian, Inc.),
 the Gaussian 90(TM) system (copyright 1990, Gaussian, Inc.),
 the Gaussian 88(TM) system (copyright 1988, Gaussian, Inc.),
 the Gaussian 86(TM) system (copyright 1986, Carnegie Mellon
 University), and the Gaussian 82(TM) system (copyright 1983,
 Carnegie Mellon University). Gaussian is a federally registered
 trademark of Gaussian, Inc.
  
 This software contains proprietary and confidential information,
 including trade secrets, belonging to Gaussian, Inc.
  
 This software is provided under written license and may be
 used, copied, transmitted, or stored only in accord with that
 written license.
  
 The following legend is applicable only to US Government
 contracts under FAR:
  
                    RESTRICTED RIGHTS LEGEND
  
 Use, reproduction and disclosure by the US Government is
 subject to restrictions as set forth in subparagraphs (a)
 and (c) of the Commercial Computer Software - Restricted
 Rights clause in FAR 52.227-19.
  
 Gaussian, Inc.
 340 Quinnipiac St., Bldg. 40, Wallingford CT 06492
  
  
 ---------------------------------------------------------------
 Warning -- This program may not be used in any manner that
 competes with the business of Gaussian, Inc. or will provide
 assistance to any competitor of Gaussian, Inc.  The licensee
 of this program is prohibited from giving any competitor of
 Gaussian, Inc. access to this program.  By using this program,
 the user acknowledges that Gaussian, Inc. is engaged in the
 business of creating and licensing software in the field of
 computational chemistry and represents and warrants to the
 licensee that it is not a competitor of Gaussian, Inc. and that
 it will not use this program in any manner prohibited above.
 ---------------------------------------------------------------
  

 Cite this work as:
 Gaussian 16, Revision A.03,
 M. J. Frisch, G. W. Trucks, H. B. Schlegel, G. E. Scuseria, 
 M. A. Robb, J. R. Cheeseman, G. Scalmani, V. Barone, 
 G. A. Petersson, H. Nakatsuji, X. Li, M. Caricato, A. V. Marenich, 
 J. Bloino, B. G. Janesko, R. Gomperts, B. Mennucci, H. P. Hratchian, 
 J. V. Ortiz, A. F. Izmaylov, J. L. Sonnenberg, D. Williams-Young, 
 F. Ding, F. Lipparini, F. Egidi, J. Goings, B. Peng, A. Petrone, 
 T. Henderson, D. Ranasinghe, V. G. Zakrzewski, J. Gao, N. Rega, 
 G. Zheng, W. Liang, M. Hada, M. Ehara, K. Toyota, R. Fukuda, 
 J. Hasegawa, M. Ishida, T. Nakajima, Y. Honda, O. Kitao, H. Nakai, 
 T. Vreven, K. Throssell, J. A. Montgomery, Jr., J. E. Peralta, 
 F. Ogliaro, M. J. Bearpark, J. J. Heyd, E. N. Brothers, K. N. Kudin, 
 V. N. Staroverov, T. A. Keith, R. Kobayashi, J. Normand, 
 K. Raghavachari, A. P. Rendell, J. C. Burant, S. S. Iyengar, 
 J. Tomasi, M. Cossi, J. M. Millam, M. Klene, C. Adamo, R. Cammi, 
 J. W. Ochterski, R. L. Martin, K. Morokuma, O. Farkas, 
 J. B. Foresman, and D. J. Fox, Gaussian, Inc., Wallingford CT, 2016.
 
 ******************************************
 Gaussian 16:  EM64M-G16RevA.03 25-Dec-2016
                24-Feb-2024 
 ******************************************
 %nprocshared=10
 Will use up to   10 processors via shared memory.
 %mem=12GB
 %chk= 0.chk
 ---------------------
 # freq b3lyp/6-31g(d)
 ---------------------
 1/10=4,30=1,38=1/1,3;
 2/12=2,17=6,18=5,40=1/2;
 3/5=1,6=6,7=1,11=2,25=1,30=1,71=2,74=-5,140=1/1,2,3;
 4//1;
 5/5=2,38=5,98=1/2;
 8/6=4,10=90,11=11/1;
 11/6=1,8=1,9=11,15=111,16=1/1,2,10;
 10/6=1/2;
 6/7=2,8=2,9=2,10=2,28=1/1;
 7/8=1,10=1,25=1/1,2,3,16;
 1/10=4,30=1/3;
 99//99;
 ---------
 good luck
 ---------
 Symbolic Z-matrix:
 Charge =  0 Multiplicity = 1
 O                     1.20727   0.        0. 
 C                     0.        0.        0. 
 C                    -1.00619  -1.16127   0.00453 
 C                    -1.83744  -0.7975    1.26872 
 C                    -1.81339   0.79973   1.27848 
 C                    -1.00682   1.16      0.00453 
 C                    -1.84241   0.78857  -1.24153 
 C                    -3.39968   0.74446  -1.11256 
 C                    -4.04435   1.44759   0.09248 
 C                    -3.14951   1.55047   1.35718 
 C                    -1.80649  -0.79016  -1.26609 
 C                    -3.35673  -0.82863  -1.17027 
 C                    -3.92211  -1.67853  -0.03241 
 C                    -3.21596  -1.48695   1.33441 
 H                    -0.56548  -2.15987   0.01414 
 H                    -1.27296  -1.12443   2.14933 
 H                    -1.22506   1.10725   2.15161 
 H                    -0.56894   2.16002   0.00784 
 H                    -1.47031   1.29136  -2.13859 
 H                    -3.87496   1.12956  -2.02096 
 H                    -4.98634   0.93823   0.33099 
 H                    -4.33159   2.46063  -0.21339 
 H                    -3.70254   1.22779   2.24699 
 H                    -2.90429   2.60505   1.53533 
 H                    -1.37489  -1.25518  -2.15747 
 H                    -3.80225  -1.17904  -2.10826 
 H                    -5.00101  -1.50505   0.06889 
 H                    -3.81994  -2.72753  -0.34062 
 H                    -3.08012  -2.4716    1.7972 
 H                    -3.85939  -0.93007   2.02427 
 

 GradGradGradGradGradGradGradGradGradGradGradGradGradGradGradGradGradGrad
 Berny optimization.
 Initialization pass.
 Trust Radius=3.00D-01 FncErr=1.00D-07 GrdErr=1.00D-07 EigMax=2.50D+02 EigMin=1.00D-04
 Number of steps in this run=      2 maximum allowed number of steps=      2.
 GradGradGradGradGradGradGradGradGradGradGradGradGradGradGradGradGradGrad

                          Input orientation:                          
 ---------------------------------------------------------------------
 Center     Atomic      Atomic             Coordinates (Angstroms)
 Number     Number       Type             X           Y           Z
 ---------------------------------------------------------------------
      1          8           0        1.207269    0.000000    0.000000
      2          6           0        0.000000    0.000000    0.000000
      3          6           0       -1.006190   -1.161268    0.004532
      4          6           0       -1.837438   -0.797500    1.268722
      5          6           0       -1.813393    0.799728    1.278478
      6          6           0       -1.006815    1.159998    0.004532
      7          6           0       -1.842409    0.788567   -1.241532
      8          6           0       -3.399681    0.744459   -1.112557
      9          6           0       -4.044348    1.447591    0.092483
     10          6           0       -3.149511    1.550470    1.357180
     11          6           0       -1.806493   -0.790162   -1.266091
     12          6           0       -3.356730   -0.828632   -1.170272
     13          6           0       -3.922108   -1.678532   -0.032411
     14          6           0       -3.215958   -1.486946    1.334412
     15          1           0       -0.565483   -2.159867    0.014140
     16          1           0       -1.272964   -1.124432    2.149332
     17          1           0       -1.225060    1.107254    2.151610
     18          1           0       -0.568943    2.160018    0.007839
     19          1           0       -1.470307    1.291364   -2.138586
     20          1           0       -3.874961    1.129560   -2.020960
     21          1           0       -4.986335    0.938226    0.330994
     22          1           0       -4.331587    2.460626   -0.213387
     23          1           0       -3.702544    1.227792    2.246990
     24          1           0       -2.904288    2.605053    1.535330
     25          1           0       -1.374892   -1.255184   -2.157474
     26          1           0       -3.802254   -1.179037   -2.108258
     27          1           0       -5.001007   -1.505054    0.068890
     28          1           0       -3.819936   -2.727532   -0.340615
     29          1           0       -3.080119   -2.471604    1.797199
     30          1           0       -3.859390   -0.930072    2.024266
 ---------------------------------------------------------------------
                    Distance matrix (angstroms):
                    1          2          3          4          5
     1  O    0.000000
     2  C    1.207269   0.000000
     3  C    2.499593   1.536549   0.000000
     4  C    3.393509   2.371042   1.556109   0.000000
     5  C    3.376162   2.358488   2.473867   1.597439   0.000000
     6  C    2.499557   1.535999   2.321266   2.473845   1.550258
     7  C    3.385820   2.357480   2.460446   2.969345   2.520202
     8  C    4.797498   3.653742   3.257067   3.238631   2.869915
     9  C    5.448262   4.296606   4.005532   3.360718   2.608346
    10  C    4.819484   3.763684   3.711739   2.691157   1.534607
    11  C    3.363050   2.343237   1.546831   2.535013   3.000438
    12  C    4.783958   3.650179   2.648745   2.873658   3.321118
    13  C    5.397132   4.266316   2.961673   2.610558   3.508117
    14  C    4.853514   3.786033   2.599562   1.542715   2.683132
    15  H    2.794258   2.232711   1.091565   2.246751   3.451816
    16  H    3.469226   2.739418   2.161641   1.095897   2.180101
    17  H    3.430985   2.712233   3.131140   2.186912   1.096844
    18  H    2.796546   2.233704   3.349946   3.456272   2.239100
    19  H    3.662046   2.898788   3.289949   4.013463   3.469256
    20  H    5.584733   4.513924   4.192894   4.322854   3.904503
    21  H    6.273002   5.084620   4.511763   3.715862   3.314283
    22  H    6.064581   4.986267   4.921775   4.362661   3.365345
    23  H    5.537391   4.501696   4.243413   2.921889   2.165674
    24  H    5.103767   4.192664   4.486791   3.575838   2.124905
    25  H    3.591342   2.849651   2.195229   3.487441   4.027495
    26  H    5.561493   4.504666   3.504593   3.925566   4.397847
    27  H    6.388476   5.223026   4.010099   3.456646   4.115338
    28  H    5.729593   4.706098   3.238746   3.200826   4.369123
    29  H    5.265021   4.338880   3.038391   2.150853   3.546164
    30  H    5.534774   4.456184   3.503359   2.162571   2.781099
                    6          7          8          9         10
     6  C    0.000000
     7  C    1.545592   0.000000
     8  C    2.673269   1.563226   0.000000
     9  C    3.052385   2.657526   1.536916   0.000000
    10  C    2.563839   3.007044   2.609950   1.552667   0.000000
    11  C    2.461116   1.579328   2.217404   3.444018   3.763483
    12  C    3.294983   2.216659   1.574735   2.692315   3.477223
    13  C    4.069097   3.445823   2.703799   3.131004   3.599211
    14  C    3.695295   3.701362   3.316712   3.292435   3.038228
    15  H    3.349085   3.449712   4.211560   5.012224   4.716732
    16  H    3.144777   3.934691   4.319213   4.304242   3.362147
    17  H    2.158786   3.463538   3.938957   3.507737   2.128631
    18  H    1.091688   2.250227   3.357406   3.548684   2.975164
    19  H    2.196597   1.093604   2.252626   3.409951   3.886804
    20  H    3.511382   2.203418   1.095167   2.143940   3.480700
    21  H    3.999042   3.518452   2.153800   1.097123   2.191306
    22  H    3.576763   3.169995   2.149927   1.096496   2.166188
    23  H    3.507160   3.977789   3.407623   2.192497   1.096234
    24  H    2.834066   3.483988   3.273917   2.172847   1.097277
    25  H    3.262339   2.287890   3.031533   4.415121   4.834642
    26  H    4.213009   2.909239   2.203026   3.435265   4.459321
    27  H    4.802105   4.117602   3.003393   3.103847   3.797888
    28  H    4.810994   4.133427   3.581512   4.203521   4.651159
    29  H    4.549811   4.625422   4.348777   4.381311   4.046667
    30  H    4.072457   4.205635   3.585393   3.069084   2.664962
                   11         12         13         14         15
    11  C    0.000000
    12  C    1.553672   0.000000
    13  C    2.605186   1.528630   0.000000
    14  C    3.038867   2.593576   1.550341   0.000000
    15  H    2.248375   3.311507   3.391280   3.036603   0.000000
    16  H    3.472968   3.930566   3.476348   2.137928   2.476227
    17  H    3.952079   4.396200   4.450238   3.370662   3.959533
    18  H    3.443543   4.253438   5.097039   4.697535   4.319891
    19  H    2.281889   2.998434   4.389486   4.777868   4.167005
    20  H    2.921253   2.196986   3.441211   4.305683   5.090639
    21  H    3.955932   2.833937   2.848169   3.165840   5.407634
    22  H    4.248754   3.561628   4.163298   4.384477   5.965255
    23  H    4.473129   4.003267   3.700081   2.905059   5.128645
    24  H    4.536584   4.394904   4.673636   4.108766   5.521638
    25  H    1.094115   2.254816   3.344163   3.954302   2.487871
    26  H    2.200802   1.095944   2.138458   3.505785   3.992905
    27  H    3.535274   2.167191   1.097442   2.188212   4.483933
    28  H    2.943444   2.123373   1.098103   2.170152   3.322583
    29  H    3.719290   3.403198   2.164574   1.096438   3.098366
    30  H    3.880774   3.235434   2.189531   1.095451   4.050040
                   16         17         18         19         20
    16  H    0.000000
    17  H    2.232201   0.000000
    18  H    3.983623   2.476804   0.000000
    19  H    4.925572   4.301142   2.484785   0.000000
    20  H    5.407606   4.942956   4.013430   2.412960   0.000000
    21  H    4.620610   4.182153   4.594623   4.311147   2.608342
    22  H    5.271646   4.132231   3.781110   3.641495   2.290756
    23  H    3.383098   2.482248   3.962612   4.921402   4.272561
    24  H    4.116707   2.333026   2.825796   4.156891   3.970703
    25  H    4.309996   4.916479   4.123316   2.548405   3.457743
    26  H    4.952511   5.478643   5.107001   3.397319   2.311391
    27  H    4.286189   5.041790   5.751493   5.015850   3.546356
    28  H    3.905999   5.258341   5.880350   4.990489   4.207582
    29  H    2.281377   4.046613   5.564147   5.678189   5.308342
    30  H    2.596732   3.332658   4.943852   5.288840   4.539403
                   21         22         23         24         25
    21  H    0.000000
    22  H    1.744347   0.000000
    23  H    2.324437   2.822947   0.000000
    24  H    2.926373   2.261869   1.743709   0.000000
    25  H    4.903676   5.131156   5.566187   5.556733   0.000000
    26  H    3.440175   4.137376   4.977043   5.329298   2.429055
    27  H    2.457342   4.031677   3.728079   4.841452   4.262375
    28  H    3.905039   5.214878   4.728009   5.726608   3.383345
    29  H    4.172572   5.471336   3.778261   5.086447   4.475144
    30  H    2.761831   4.089853   2.174991   3.694372   4.874975
                   26         27         28         29         30
    26  H    0.000000
    27  H    2.506645   0.000000
    28  H    2.350045   1.748449   0.000000
    29  H    4.176698   2.758819   2.276637   0.000000
    30  H    4.140411   2.336106   2.970704   1.742166   0.000000
 Stoichiometry    C13H16O
 Framework group  C1[X(C13H16O)]
 Deg. of freedom    84
 Full point group                 C1      NOp   1
 Largest Abelian subgroup         C1      NOp   1
 Largest concise Abelian subgroup C1      NOp   1
                         Standard orientation:                         
 ---------------------------------------------------------------------
 Center     Atomic      Atomic             Coordinates (Angstroms)
 Number     Number       Type             X           Y           Z
 ---------------------------------------------------------------------
      1          8           0        3.350312   -0.064475    0.008879
      2          6           0        2.143635   -0.037756   -0.017865
      3          6           0        1.108689   -1.163456    0.132697
      4          6           0        0.263340   -0.601346    1.312059
      5          6           0        0.327304    0.979382    1.090665
      6          6           0        1.166361    1.132556   -0.203871
      7          6           0        0.345153    0.602392   -1.401117
      8          6           0       -1.214875    0.611991   -1.301640
      9          6           0       -1.864105    1.497037   -0.225858
     10          6           0       -0.990776    1.762971    1.030069
     11          6           0        0.341862   -0.963519   -1.195719
     12          6           0       -1.210373   -0.953323   -1.129701
     13          6           0       -1.818099   -1.615931    0.106555
     14          6           0       -1.133047   -1.243223    1.446462
     15          1           0        1.523921   -2.159541    0.296748
     16          1           0        0.802857   -0.809108    2.243052
     17          1           0        0.906742    1.397557    1.922800
     18          1           0        1.629071    2.112481   -0.335890
     19          1           0        0.746478    0.960985   -2.353126
     20          1           0       -1.663261    0.871271   -2.266582
     21          1           0       -2.822883    1.048760    0.063058
     22          1           0       -2.120040    2.460906   -0.681660
     23          1           0       -1.568284    1.585488    1.944789
     24          1           0       -0.722520    2.826563    1.058823
     25          1           0        0.778244   -1.562703   -2.000479
     26          1           0       -1.646935   -1.426505   -2.016608
     27          1           0       -2.894007   -1.405728    0.157708
     28          1           0       -1.736558   -2.700609   -0.043961
     29          1           0       -1.030659   -2.152847    2.050016
     30          1           0       -1.775080   -0.577816    2.033862
 ---------------------------------------------------------------------
 Rotational constants (GHZ):           1.1617532           0.7767528           0.7208925
 Standard basis: 6-31G(d) (6D, 7F)
 There are   242 symmetry adapted cartesian basis functions of A   symmetry.
 There are   242 symmetry adapted basis functions of A   symmetry.
   242 basis functions,   456 primitive gaussians,   242 cartesian basis functions
    51 alpha electrons       51 beta electrons
       nuclear repulsion energy       973.6986061220 Hartrees.
 NAtoms=   30 NActive=   30 NUniq=   30 SFac= 1.00D+00 NAtFMM=   60 NAOKFM=F Big=F
 Integral buffers will be    131072 words long.
 Raffenetti 2 integral format.
 Two-electron integral symmetry is turned on.
 One-electron integrals computed using PRISM.
 NBasis=   242 RedAO= T EigKep=  5.87D-04  NBF=   242
 NBsUse=   242 1.00D-06 EigRej= -1.00D+00 NBFU=   242
 ExpMin= 1.61D-01 ExpMax= 5.48D+03 ExpMxC= 8.25D+02 IAcc=3 IRadAn=         5 AccDes= 0.00D+00
 Harris functional with IExCor=  402 and IRadAn=       5 diagonalized for initial guess.
 HarFok:  IExCor=  402 AccDes= 0.00D+00 IRadAn=         5 IDoV= 1 UseB2=F ITyADJ=14
 ICtDFT=  3500011 ScaDFX=  1.000000  1.000000  1.000000  1.000000
 FoFCou: FMM=F IPFlag=           0 FMFlag=      100000 FMFlg1=           0
         NFxFlg=           0 DoJE=T BraDBF=F KetDBF=T FulRan=T
         wScrn=  0.000000 ICntrl=       500 IOpCl=  0 I1Cent=   200000004 NGrid=           0
         NMat0=    1 NMatS0=      1 NMatT0=    0 NMatD0=    1 NMtDS0=    0 NMtDT0=    0
 Petite list used in FoFCou.
 Requested convergence on RMS density matrix=1.00D-08 within 128 cycles.
 Requested convergence on MAX density matrix=1.00D-06.
 Requested convergence on             energy=1.00D-06.
 No special actions if energy rises.
 Integral accuracy reduced to 1.0D-05 until final iterations.
 Initial convergence to 1.0D-05 achieved.  Increase integral accuracy.
 SCF Done:  E(RB3LYP) =  -580.197306278     A.U. after   14 cycles
            NFock= 14  Conv=0.33D-08     -V/T= 2.0095
 DoSCS=F DFT=T ScalE2(SS,OS)=  1.000000  1.000000
 Range of M.O.s used for correlation:     1   242
 NBasis=   242 NAE=    51 NBE=    51 NFC=     0 NFV=     0
 NROrb=    242 NOA=    51 NOB=    51 NVA=   191 NVB=   191
 Symmetrizing basis deriv contribution to polar:
 IMax=3 JMax=2 DiffMx= 0.00D+00
 G2DrvN: will do    31 centers at a time, making    1 passes.
 Calling FoFCou, ICntrl=  3107 FMM=F I1Cent=   0 AccDes= 0.00D+00.
 End of G2Drv F.D. properties file   721 does not exist.
 End of G2Drv F.D. properties file   722 does not exist.
 End of G2Drv F.D. properties file   788 does not exist.
          IDoAtm=111111111111111111111111111111
          Differentiating once with respect to electric field.
                with respect to dipole field.
          Differentiating once with respect to nuclear coordinates.
 Keep R1 ints in memory in canonical form, NReq=442997321.
          There are    93 degrees of freedom in the 1st order CPHF.  IDoFFX=6 NUNeed=     3.
     90 vectors produced by pass  0 Test12= 1.05D-14 1.08D-09 XBig12= 9.32D+01 3.23D+00.
 AX will form    90 AO Fock derivatives at one time.
     90 vectors produced by pass  1 Test12= 1.05D-14 1.08D-09 XBig12= 1.21D+01 8.00D-01.
     90 vectors produced by pass  2 Test12= 1.05D-14 1.08D-09 XBig12= 1.77D-01 4.94D-02.
     90 vectors produced by pass  3 Test12= 1.05D-14 1.08D-09 XBig12= 1.24D-03 4.40D-03.
     90 vectors produced by pass  4 Test12= 1.05D-14 1.08D-09 XBig12= 2.10D-06 1.99D-04.
     55 vectors produced by pass  5 Test12= 1.05D-14 1.08D-09 XBig12= 1.24D-09 3.92D-06.
      5 vectors produced by pass  6 Test12= 1.05D-14 1.08D-09 XBig12= 7.18D-13 1.04D-07.
      1 vectors produced by pass  7 Test12= 1.05D-14 1.08D-09 XBig12= 5.46D-16 3.45D-09.
 InvSVY:  IOpt=1 It=  1 EMax= 1.42D-14
 Solved reduced A of dimension   511 with    93 vectors.
 Isotropic polarizability for W=    0.000000      118.08 Bohr**3.
 End of Minotr F.D. properties file   721 does not exist.
 End of Minotr F.D. properties file   722 does not exist.
 End of Minotr F.D. properties file   788 does not exist.

 **********************************************************************

            Population analysis using the SCF density.

 **********************************************************************

 Orbital symmetries:
       Occupied  (A) (A) (A) (A) (A) (A) (A) (A) (A) (A) (A) (A)
                 (A) (A) (A) (A) (A) (A) (A) (A) (A) (A) (A) (A)
                 (A) (A) (A) (A) (A) (A) (A) (A) (A) (A) (A) (A)
                 (A) (A) (A) (A) (A) (A) (A) (A) (A) (A) (A) (A)
                 (A) (A) (A)
       Virtual   (A) (A) (A) (A) (A) (A) (A) (A) (A) (A) (A) (A)
                 (A) (A) (A) (A) (A) (A) (A) (A) (A) (A) (A) (A)
                 (A) (A) (A) (A) (A) (A) (A) (A) (A) (A) (A) (A)
                 (A) (A) (A) (A) (A) (A) (A) (A) (A) (A) (A) (A)
                 (A) (A) (A) (A) (A) (A) (A) (A) (A) (A) (A) (A)
                 (A) (A) (A) (A) (A) (A) (A) (A) (A) (A) (A) (A)
                 (A) (A) (A) (A) (A) (A) (A) (A) (A) (A) (A) (A)
                 (A) (A) (A) (A) (A) (A) (A) (A) (A) (A) (A) (A)
                 (A) (A) (A) (A) (A) (A) (A) (A) (A) (A) (A) (A)
                 (A) (A) (A) (A) (A) (A) (A) (A) (A) (A) (A) (A)
                 (A) (A) (A) (A) (A) (A) (A) (A) (A) (A) (A) (A)
                 (A) (A) (A) (A) (A) (A) (A) (A) (A) (A) (A) (A)
                 (A) (A) (A) (A) (A) (A) (A) (A) (A) (A) (A) (A)
                 (A) (A) (A) (A) (A) (A) (A) (A) (A) (A) (A) (A)
                 (A) (A) (A) (A) (A) (A) (A) (A) (A) (A) (A) (A)
                 (A) (A) (A) (A) (A) (A) (A) (A) (A) (A) (A)
 The electronic state is 1-A.
 Alpha  occ. eigenvalues --  -19.13722 -10.26392 -10.19581 -10.19496 -10.18875
 Alpha  occ. eigenvalues --  -10.18795 -10.18761 -10.18699 -10.18684 -10.18542
 Alpha  occ. eigenvalues --  -10.18432 -10.18377 -10.18320 -10.18287  -1.03533
 Alpha  occ. eigenvalues --   -0.89272  -0.80776  -0.78675  -0.78369  -0.71327
 Alpha  occ. eigenvalues --   -0.68207  -0.67300  -0.65349  -0.57522  -0.55658
 Alpha  occ. eigenvalues --   -0.55189  -0.53157  -0.52285  -0.47850  -0.46741
 Alpha  occ. eigenvalues --   -0.45584  -0.45116  -0.44287  -0.42902  -0.42593
 Alpha  occ. eigenvalues --   -0.39650  -0.39278  -0.39160  -0.37267  -0.36566
 Alpha  occ. eigenvalues --   -0.35245  -0.35023  -0.33819  -0.33236  -0.32745
 Alpha  occ. eigenvalues --   -0.32170  -0.30222  -0.29176  -0.27830  -0.26914
 Alpha  occ. eigenvalues --   -0.22195
 Alpha virt. eigenvalues --   -0.00488   0.05385   0.07949   0.10506   0.11109
 Alpha virt. eigenvalues --    0.11504   0.12382   0.12869   0.14834   0.15462
 Alpha virt. eigenvalues --    0.16070   0.16564   0.16600   0.17836   0.18228
 Alpha virt. eigenvalues --    0.18920   0.19339   0.19660   0.21053   0.21605
 Alpha virt. eigenvalues --    0.22119   0.22914   0.23907   0.24473   0.25477
 Alpha virt. eigenvalues --    0.26135   0.26758   0.27704   0.29871   0.31340
 Alpha virt. eigenvalues --    0.32025   0.34689   0.37667   0.40807   0.47253
 Alpha virt. eigenvalues --    0.47774   0.51498   0.53097   0.55128   0.55924
 Alpha virt. eigenvalues --    0.56307   0.56936   0.58769   0.59424   0.60421
 Alpha virt. eigenvalues --    0.60937   0.62617   0.63197   0.63523   0.65392
 Alpha virt. eigenvalues --    0.66134   0.67172   0.68474   0.69297   0.71481
 Alpha virt. eigenvalues --    0.71717   0.72192   0.74318   0.75383   0.76288
 Alpha virt. eigenvalues --    0.77771   0.79337   0.80888   0.81409   0.82479
 Alpha virt. eigenvalues --    0.83024   0.84067   0.85059   0.85752   0.86165
 Alpha virt. eigenvalues --    0.86517   0.87190   0.89158   0.89709   0.90319
 Alpha virt. eigenvalues --    0.90729   0.91780   0.91988   0.93266   0.93729
 Alpha virt. eigenvalues --    0.94258   0.96208   0.98015   0.98718   0.99512
 Alpha virt. eigenvalues --    0.99655   1.03880   1.09929   1.13452   1.15514
 Alpha virt. eigenvalues --    1.20183   1.22321   1.22926   1.26000   1.28239
 Alpha virt. eigenvalues --    1.31970   1.34205   1.38944   1.40301   1.43082
 Alpha virt. eigenvalues --    1.48139   1.49790   1.53517   1.54001   1.56282
 Alpha virt. eigenvalues --    1.61969   1.64210   1.65230   1.68226   1.69796
 Alpha virt. eigenvalues --    1.70569   1.73323   1.73904   1.74745   1.75109
 Alpha virt. eigenvalues --    1.78278   1.79665   1.80531   1.82122   1.83914
 Alpha virt. eigenvalues --    1.84584   1.87464   1.88277   1.90491   1.93553
 Alpha virt. eigenvalues --    1.95367   1.95836   1.96390   1.98340   1.98956
 Alpha virt. eigenvalues --    2.02247   2.04876   2.06964   2.08510   2.10026
 Alpha virt. eigenvalues --    2.11368   2.14510   2.15272   2.16947   2.18312
 Alpha virt. eigenvalues --    2.19077   2.20528   2.22890   2.23780   2.24591
 Alpha virt. eigenvalues --    2.30436   2.31884   2.36766   2.38104   2.40290
 Alpha virt. eigenvalues --    2.40738   2.43685   2.46889   2.48339   2.51239
 Alpha virt. eigenvalues --    2.52253   2.54198   2.54926   2.55934   2.59992
 Alpha virt. eigenvalues --    2.62138   2.63739   2.67330   2.68199   2.68646
 Alpha virt. eigenvalues --    2.69915   2.73530   2.74360   2.77206   2.78038
 Alpha virt. eigenvalues --    2.82180   2.83230   2.88238   2.91782   3.02824
 Alpha virt. eigenvalues --    3.05598   3.10125   4.04101   4.13324   4.22148
 Alpha virt. eigenvalues --    4.27943   4.29875   4.44370   4.50007   4.56569
 Alpha virt. eigenvalues --    4.58605   4.65265   4.83345   4.85709   4.91883
 Alpha virt. eigenvalues --    5.21702
          Condensed to atoms (all electrons):
               1          2          3          4          5          6
     1  O    7.965628   0.597240  -0.063365   0.001018   0.000935  -0.063058
     2  C    0.597240   4.619547   0.306749  -0.054870  -0.056009   0.309107
     3  C   -0.063365   0.306749   5.272727   0.362553  -0.045641  -0.162582
     4  C    0.001018  -0.054870   0.362553   5.033720   0.337923  -0.047238
     5  C    0.000935  -0.056009  -0.045641   0.337923   5.035929   0.362108
     6  C   -0.063058   0.309107  -0.162582  -0.047238   0.362108   5.268062
     7  C    0.001602  -0.057081  -0.045930  -0.021821  -0.024987   0.338951
     8  C   -0.000050   0.003064  -0.003614   0.003027  -0.012733  -0.021965
     9  C   -0.000001   0.000087   0.001909  -0.004169  -0.038550  -0.021268
    10  C   -0.000043   0.003494   0.000110  -0.035298   0.378366  -0.033403
    11  C    0.001405  -0.057449   0.337807  -0.020223  -0.021538  -0.046704
    12  C   -0.000048   0.003498  -0.025235  -0.012987   0.004942  -0.002786
    13  C   -0.000000   0.000017  -0.020998  -0.039770  -0.002786   0.001799
    14  C   -0.000047   0.002968  -0.032006   0.373236  -0.035864  -0.000052
    15  H    0.000756  -0.028201   0.352609  -0.035179   0.006112   0.006518
    16  H    0.000567   0.001389  -0.044561   0.367665  -0.034907   0.003683
    17  H    0.000617   0.001472   0.003433  -0.034997   0.366317  -0.046297
    18  H    0.000650  -0.028503   0.006497   0.006320  -0.035296   0.351964
    19  H    0.000304   0.001816   0.004798  -0.000207   0.004890  -0.040338
    20  H    0.000000  -0.000072  -0.000431   0.000038  -0.000032   0.003980
    21  H    0.000000   0.000011  -0.000075   0.000851   0.001283   0.000309
    22  H    0.000000   0.000002  -0.000015  -0.000068   0.002356   0.001119
    23  H    0.000000  -0.000100   0.000175  -0.006433  -0.033966   0.004332
    24  H   -0.000000   0.000005  -0.000125   0.005003  -0.033313  -0.004468
    25  H    0.000360   0.001886  -0.041547   0.004918  -0.000211   0.004703
    26  H    0.000000  -0.000079   0.004244  -0.000021   0.000009  -0.000431
    27  H    0.000000   0.000008   0.000298   0.003530   0.000189  -0.000028
    28  H    0.000000   0.000016   0.002676  -0.000215  -0.000112  -0.000013
    29  H    0.000000  -0.000065  -0.001635  -0.030743   0.004822  -0.000099
    30  H    0.000000  -0.000063   0.003856  -0.035961  -0.011657   0.000331
               7          8          9         10         11         12
     1  O    0.001602  -0.000050  -0.000001  -0.000043   0.001405  -0.000048
     2  C   -0.057081   0.003064   0.000087   0.003494  -0.057449   0.003498
     3  C   -0.045930  -0.003614   0.001909   0.000110   0.337807  -0.025235
     4  C   -0.021821   0.003027  -0.004169  -0.035298  -0.020223  -0.012987
     5  C   -0.024987  -0.012733  -0.038550   0.378366  -0.021538   0.004942
     6  C    0.338951  -0.021965  -0.021268  -0.033403  -0.046704  -0.002786
     7  C    5.112180   0.355372  -0.024511  -0.024000   0.365168  -0.136329
     8  C    0.355372   5.011102   0.364216  -0.038118  -0.137975   0.372087
     9  C   -0.024511   0.364216   5.047848   0.352112   0.002079  -0.031050
    10  C   -0.024000  -0.038118   0.352112   5.042614   0.002733  -0.002286
    11  C    0.365168  -0.137975   0.002079   0.002733   5.115546   0.355330
    12  C   -0.136329   0.372087  -0.031050  -0.002286   0.355330   5.005340
    13  C    0.001838  -0.032069  -0.009420   0.002445  -0.025591   0.370460
    14  C    0.003215  -0.003828   0.001718  -0.008525  -0.026026  -0.038178
    15  H    0.005892  -0.000288   0.000005  -0.000069  -0.031943   0.001177
    16  H    0.000033  -0.000047  -0.000136   0.003439   0.005673   0.000017
    17  H    0.005949   0.000070   0.005483  -0.042681   0.000019  -0.000034
    18  H   -0.032310   0.001566  -0.000066  -0.000727   0.005986  -0.000307
    19  H    0.358047  -0.034685   0.003594   0.000052  -0.030837   0.010143
    20  H   -0.032443   0.358276  -0.041918   0.005439   0.009142  -0.034772
    21  H    0.003933  -0.033444   0.366755  -0.032789   0.000242  -0.012404
    22  H   -0.000803  -0.028560   0.368615  -0.034698  -0.000214   0.004695
    23  H    0.000516   0.002376  -0.033050   0.366958  -0.000113   0.000508
    24  H    0.000710   0.001275  -0.035240   0.369987   0.000008  -0.000147
    25  H   -0.031329   0.010842  -0.000404  -0.000033   0.357812  -0.034782
    26  H    0.008894  -0.035586   0.004072  -0.000156  -0.033600   0.358026
    27  H   -0.000083  -0.006438   0.001112  -0.000175   0.004701  -0.031447
    28  H   -0.000125   0.004986   0.000104  -0.000036  -0.004115  -0.031680
    29  H   -0.000033  -0.000029  -0.000012   0.000120   0.000509   0.003115
    30  H   -0.000115   0.001429  -0.001070   0.003687   0.000435  -0.000236
              13         14         15         16         17         18
     1  O   -0.000000  -0.000047   0.000756   0.000567   0.000617   0.000650
     2  C    0.000017   0.002968  -0.028201   0.001389   0.001472  -0.028503
     3  C   -0.020998  -0.032006   0.352609  -0.044561   0.003433   0.006497
     4  C   -0.039770   0.373236  -0.035179   0.367665  -0.034997   0.006320
     5  C   -0.002786  -0.035864   0.006112  -0.034907   0.366317  -0.035296
     6  C    0.001799  -0.000052   0.006518   0.003683  -0.046297   0.351964
     7  C    0.001838   0.003215   0.005892   0.000033   0.005949  -0.032310
     8  C   -0.032069  -0.003828  -0.000288  -0.000047   0.000070   0.001566
     9  C   -0.009420   0.001718   0.000005  -0.000136   0.005483  -0.000066
    10  C    0.002445  -0.008525  -0.000069   0.003439  -0.042681  -0.000727
    11  C   -0.025591  -0.026026  -0.031943   0.005673   0.000019   0.005986
    12  C    0.370460  -0.038178   0.001177   0.000017  -0.000034  -0.000307
    13  C    5.032249   0.355952   0.000012   0.005305  -0.000141   0.000002
    14  C    0.355952   5.051530   0.000501  -0.043378   0.003428  -0.000059
    15  H    0.000012   0.000501   0.597170  -0.004337  -0.000257  -0.000143
    16  H    0.005305  -0.043378  -0.004337   0.622702  -0.012796  -0.000256
    17  H   -0.000141   0.003428  -0.000257  -0.012796   0.625904  -0.004140
    18  H    0.000002  -0.000059  -0.000143  -0.000256  -0.004140   0.599928
    19  H   -0.000409  -0.000044  -0.000132   0.000012  -0.000171  -0.005907
    20  H    0.004224  -0.000162   0.000006   0.000000  -0.000001   0.000001
    21  H    0.003959  -0.000537  -0.000001   0.000001  -0.000111   0.000018
    22  H    0.000062  -0.000027  -0.000000   0.000002  -0.000174  -0.000106
    23  H   -0.000264  -0.000131  -0.000003   0.000409  -0.001364  -0.000118
    24  H   -0.000031   0.000283   0.000003  -0.000178  -0.005474   0.002566
    25  H    0.003306   0.000042  -0.005472  -0.000167   0.000013  -0.000131
    26  H   -0.041240   0.005776  -0.000013   0.000000   0.000001   0.000006
    27  H    0.365402  -0.034484   0.000014  -0.000117   0.000004  -0.000001
    28  H    0.368690  -0.036158  -0.000217  -0.000160   0.000002  -0.000000
    29  H   -0.033910   0.369391   0.001189  -0.008540  -0.000183   0.000003
    30  H   -0.031580   0.367208  -0.000127   0.001511   0.000385  -0.000008
              19         20         21         22         23         24
     1  O    0.000304   0.000000   0.000000   0.000000   0.000000  -0.000000
     2  C    0.001816  -0.000072   0.000011   0.000002  -0.000100   0.000005
     3  C    0.004798  -0.000431  -0.000075  -0.000015   0.000175  -0.000125
     4  C   -0.000207   0.000038   0.000851  -0.000068  -0.006433   0.005003
     5  C    0.004890  -0.000032   0.001283   0.002356  -0.033966  -0.033313
     6  C   -0.040338   0.003980   0.000309   0.001119   0.004332  -0.004468
     7  C    0.358047  -0.032443   0.003933  -0.000803   0.000516   0.000710
     8  C   -0.034685   0.358276  -0.033444  -0.028560   0.002376   0.001275
     9  C    0.003594  -0.041918   0.366755   0.368615  -0.033050  -0.035240
    10  C    0.000052   0.005439  -0.032789  -0.034698   0.366958   0.369987
    11  C   -0.030837   0.009142   0.000242  -0.000214  -0.000113   0.000008
    12  C    0.010143  -0.034772  -0.012404   0.004695   0.000508  -0.000147
    13  C   -0.000409   0.004224   0.003959   0.000062  -0.000264  -0.000031
    14  C   -0.000044  -0.000162  -0.000537  -0.000027  -0.000131   0.000283
    15  H   -0.000132   0.000006  -0.000001  -0.000000  -0.000003   0.000003
    16  H    0.000012   0.000000   0.000001   0.000002   0.000409  -0.000178
    17  H   -0.000171  -0.000001  -0.000111  -0.000174  -0.001364  -0.005474
    18  H   -0.005907   0.000001   0.000018  -0.000106  -0.000118   0.002566
    19  H    0.611984  -0.008905  -0.000136   0.000171   0.000014  -0.000043
    20  H   -0.008905   0.633281   0.001756  -0.008870  -0.000134  -0.000157
    21  H   -0.000136   0.001756   0.604707  -0.038608  -0.011157   0.004691
    22  H    0.000171  -0.008870  -0.038608   0.605327   0.004131  -0.012128
    23  H    0.000014  -0.000134  -0.011157   0.004131   0.602471  -0.038373
    24  H   -0.000043  -0.000157   0.004691  -0.012128  -0.038373   0.607718
    25  H   -0.007539  -0.000538   0.000010   0.000009  -0.000000  -0.000000
    26  H   -0.000431  -0.011808   0.000296  -0.000168   0.000005   0.000002
    27  H    0.000010   0.000250   0.002753  -0.000090  -0.000071  -0.000001
    28  H    0.000011  -0.000166  -0.000079  -0.000000   0.000001   0.000001
    29  H   -0.000000   0.000003   0.000013  -0.000001  -0.000131  -0.000003
    30  H   -0.000000  -0.000001   0.000013   0.000040   0.004374  -0.000108
              25         26         27         28         29         30
     1  O    0.000360   0.000000   0.000000   0.000000   0.000000   0.000000
     2  C    0.001886  -0.000079   0.000008   0.000016  -0.000065  -0.000063
     3  C   -0.041547   0.004244   0.000298   0.002676  -0.001635   0.003856
     4  C    0.004918  -0.000021   0.003530  -0.000215  -0.030743  -0.035961
     5  C   -0.000211   0.000009   0.000189  -0.000112   0.004822  -0.011657
     6  C    0.004703  -0.000431  -0.000028  -0.000013  -0.000099   0.000331
     7  C   -0.031329   0.008894  -0.000083  -0.000125  -0.000033  -0.000115
     8  C    0.010842  -0.035586  -0.006438   0.004986  -0.000029   0.001429
     9  C   -0.000404   0.004072   0.001112   0.000104  -0.000012  -0.001070
    10  C   -0.000033  -0.000156  -0.000175  -0.000036   0.000120   0.003687
    11  C    0.357812  -0.033600   0.004701  -0.004115   0.000509   0.000435
    12  C   -0.034782   0.358026  -0.031447  -0.031680   0.003115  -0.000236
    13  C    0.003306  -0.041240   0.365402   0.368690  -0.033910  -0.031580
    14  C    0.000042   0.005776  -0.034484  -0.036158   0.369391   0.367208
    15  H   -0.005472  -0.000013   0.000014  -0.000217   0.001189  -0.000127
    16  H   -0.000167   0.000000  -0.000117  -0.000160  -0.008540   0.001511
    17  H    0.000013   0.000001   0.000004   0.000002  -0.000183   0.000385
    18  H   -0.000131   0.000006  -0.000001  -0.000000   0.000003  -0.000008
    19  H   -0.007539  -0.000431   0.000010   0.000011  -0.000000  -0.000000
    20  H   -0.000538  -0.011808   0.000250  -0.000166   0.000003  -0.000001
    21  H    0.000010   0.000296   0.002753  -0.000079   0.000013   0.000013
    22  H    0.000009  -0.000168  -0.000090  -0.000000  -0.000001   0.000040
    23  H   -0.000000   0.000005  -0.000071   0.000001  -0.000131   0.004374
    24  H   -0.000000   0.000002  -0.000001   0.000001  -0.000003  -0.000108
    25  H    0.612822  -0.008770  -0.000130   0.000517   0.000007   0.000014
    26  H   -0.008770   0.635565  -0.001284  -0.005605  -0.000175  -0.000126
    27  H   -0.000130  -0.001284   0.606241  -0.038537   0.003349  -0.010304
    28  H    0.000517  -0.005605  -0.038537   0.609554  -0.011598   0.005100
    29  H    0.000007  -0.000175   0.003349  -0.011598   0.605480  -0.038424
    30  H    0.000014  -0.000126  -0.010304   0.005100  -0.038424   0.602488
 Mulliken charges:
               1
     1  O   -0.444470
     2  C    0.430115
     3  C   -0.172679
     4  C   -0.119600
     5  C   -0.118576
     6  C   -0.166235
     7  C   -0.130397
     8  C   -0.100260
     9  C   -0.278844
    10  C   -0.278520
    11  C   -0.128267
    12  C   -0.094631
    13  C   -0.277513
    14  C   -0.275743
    15  H    0.134421
    16  H    0.137168
    17  H    0.135725
    18  H    0.132573
    19  H    0.133937
    20  H    0.124014
    21  H    0.137743
    22  H    0.138001
    23  H    0.139137
    24  H    0.137537
    25  H    0.133794
    26  H    0.122598
    27  H    0.135327
    28  H    0.137159
    29  H    0.137581
    30  H    0.138906
 Sum of Mulliken charges =  -0.00000
 Mulliken charges with hydrogens summed into heavy atoms:
               1
     1  O   -0.444470
     2  C    0.430115
     3  C   -0.038258
     4  C    0.017568
     5  C    0.017148
     6  C   -0.033662
     7  C    0.003540
     8  C    0.023753
     9  C   -0.003099
    10  C   -0.001846
    11  C    0.005527
    12  C    0.027967
    13  C   -0.005027
    14  C    0.000744
 APT charges:
               1
     1  O   -0.681770
     2  C    0.777515
     3  C   -0.098409
     4  C    0.102791
     5  C    0.108114
     6  C   -0.100212
     7  C    0.082663
     8  C    0.092985
     9  C    0.091376
    10  C    0.098533
    11  C    0.075824
    12  C    0.100227
    13  C    0.097192
    14  C    0.092620
    15  H   -0.032349
    16  H   -0.064295
    17  H   -0.066528
    18  H   -0.033852
    19  H   -0.060433
    20  H   -0.072402
    21  H   -0.039177
    22  H   -0.052228
    23  H   -0.046558
    24  H   -0.049616
    25  H   -0.060726
    26  H   -0.074702
    27  H   -0.045734
    28  H   -0.049255
    29  H   -0.052326
    30  H   -0.039268
 Sum of APT charges =   0.00000
 APT charges with hydrogens summed into heavy atoms:
               1
     1  O   -0.681770
     2  C    0.777515
     3  C   -0.130759
     4  C    0.038496
     5  C    0.041586
     6  C   -0.134064
     7  C    0.022230
     8  C    0.020583
     9  C   -0.000029
    10  C    0.002359
    11  C    0.015097
    12  C    0.025525
    13  C    0.002203
    14  C    0.001026
 Electronic spatial extent (au):  <R**2>=           2027.6968
 Charge=             -0.0000 electrons
 Dipole moment (field-independent basis, Debye):
    X=             -3.2626    Y=              0.0823    Z=              0.0010  Tot=              3.2636
 Quadrupole moment (field-independent basis, Debye-Ang):
   XX=            -96.6763   YY=            -80.5845   ZZ=            -80.2457
   XY=              0.3023   XZ=              0.1411   YZ=             -0.0114
 Traceless Quadrupole moment (field-independent basis, Debye-Ang):
   XX=            -10.8408   YY=              5.2510   ZZ=              5.5898
   XY=              0.3023   XZ=              0.1411   YZ=             -0.0114
 Octapole moment (field-independent basis, Debye-Ang**2):
  XXX=            -46.7105  YYY=             -0.2167  ZZZ=             -1.7460  XYY=              6.3344
  XXY=              1.3050  XXZ=             -0.1991  XZZ=              5.7717  YZZ=             -0.3792
  YYZ=             -0.2024  XYZ=              0.0757
 Hexadecapole moment (field-independent basis, Debye-Ang**3):
 XXXX=          -1448.6258 YYYY=           -775.4273 ZZZZ=           -636.8510 XXXY=              3.7999
 XXXZ=             -1.8092 YYYX=             -0.8645 YYYZ=             -3.1201 ZZZX=              3.5191
 ZZZY=              0.0842 XXYY=           -338.1415 XXZZ=           -307.2007 YYZZ=           -237.8966
 XXYZ=              0.8920 YYXZ=              2.0423 ZZXY=             -0.9304
 N-N= 9.736986061220D+02 E-N=-3.293213894844D+03  KE= 5.747257361671D+02
  Exact polarizability: 127.440   0.159 117.093   0.697  -0.545 109.712
 Approx polarizability: 190.138  -0.305 171.660   0.650  -1.023 163.924
 Calling FoFJK, ICntrl=    100127 FMM=F ISym2X=0 I1Cent= 0 IOpClX= 0 NMat=1 NMatS=1 NMatT=0.
 Full mass-weighted force constant matrix:
 Low frequencies ---  -11.7239   -5.7894    0.0005    0.0007    0.0007    9.8553
 Low frequencies ---   70.7852  120.4330  184.1539
 Diagonal vibrational polarizability:
        3.7644807       4.0087071       6.0182229
 Harmonic frequencies (cm**-1), IR intensities (KM/Mole), Raman scattering
 activities (A**4/AMU), depolarization ratios for plane and unpolarized
 incident light, reduced masses (AMU), force constants (mDyne/A),
 and normal coordinates:
                      1                      2                      3
                      A                      A                      A
 Frequencies --     70.7814               120.4326               184.1502
 Red. masses --      1.9460                 7.2795                 1.7731
 Frc consts  --      0.0057                 0.0622                 0.0354
 IR Inten    --      0.0851                 2.8403                 0.1450
  Atom  AN      X      Y      Z        X      Y      Z        X      Y      Z
     1   8    -0.00  -0.04   0.01    -0.01   0.08   0.52     0.02   0.00  -0.01
     2   6    -0.00  -0.02   0.00    -0.00  -0.00  -0.03     0.02   0.00   0.01
     3   6    -0.02   0.01   0.00     0.00  -0.02  -0.18     0.02   0.00   0.01
     4   6    -0.03   0.03  -0.01     0.09  -0.02  -0.11     0.01   0.00   0.00
     5   6     0.03   0.03   0.00     0.09  -0.01  -0.11    -0.00  -0.00  -0.00
     6   6     0.02   0.00  -0.00     0.00  -0.03  -0.18     0.02   0.00   0.01
     7   6    -0.01   0.02   0.01    -0.09  -0.02  -0.11     0.02   0.00   0.01
     8   6    -0.02  -0.01   0.04    -0.09   0.00   0.02     0.02  -0.00  -0.03
     9   6    -0.05  -0.11   0.11    -0.00   0.00   0.07    -0.07  -0.14   0.04
    10   6     0.07   0.09  -0.02     0.10   0.00  -0.01     0.01   0.01  -0.05
    11   6     0.01   0.02  -0.02    -0.09  -0.01  -0.11     0.02  -0.00   0.02
    12   6     0.01  -0.02  -0.04    -0.09   0.00   0.01     0.01   0.01  -0.02
    13   6     0.06  -0.09  -0.06    -0.02   0.02   0.06    -0.10   0.15  -0.00
    14   6    -0.08   0.10  -0.05     0.11  -0.02   0.01     0.03  -0.04  -0.00
    15   1    -0.05   0.00   0.01     0.00  -0.03  -0.20     0.02   0.00   0.02
    16   1    -0.06   0.00   0.00     0.17  -0.03  -0.15    -0.00   0.01   0.01
    17   1     0.05   0.01  -0.00     0.16  -0.03  -0.16    -0.02   0.01   0.01
    18   1     0.04  -0.01  -0.01    -0.00  -0.03  -0.19     0.01   0.00   0.02
    19   1    -0.05   0.03   0.01    -0.17  -0.02  -0.14     0.04  -0.01   0.01
    20   1    -0.03   0.04   0.06    -0.16   0.01   0.05     0.04   0.03  -0.03
    21   1     0.09  -0.31   0.26     0.02  -0.00   0.15     0.07  -0.37   0.14
    22   1    -0.32  -0.16   0.15    -0.05   0.00   0.09    -0.35  -0.18   0.11
    23   1     0.14   0.29   0.07     0.17   0.02   0.04     0.04   0.16   0.00
    24   1     0.14   0.08  -0.24     0.12  -0.00  -0.04     0.04   0.01  -0.21
    25   1     0.04   0.03  -0.01    -0.17  -0.02  -0.15     0.02   0.00   0.02
    26   1     0.03   0.01  -0.06    -0.17   0.01   0.05     0.03  -0.02  -0.01
    27   1     0.02  -0.29  -0.11    -0.00   0.06   0.15    -0.04   0.45   0.02
    28   1     0.28  -0.08  -0.02    -0.07   0.02   0.05    -0.42   0.13   0.00
    29   1    -0.18   0.19   0.11     0.16  -0.03  -0.02     0.12  -0.14  -0.17
    30   1    -0.11   0.22  -0.23     0.16  -0.03   0.08     0.08  -0.15   0.17
                      4                      5                      6
                      A                      A                      A
 Frequencies --    248.2981               283.2112               314.1011
 Red. masses --      4.5484                 2.5725                 2.7981
 Frc consts  --      0.1652                 0.1216                 0.1626
 IR Inten    --      0.6724                 0.1898                 0.2635
  Atom  AN      X      Y      Z        X      Y      Z        X      Y      Z
     1   8     0.01   0.30  -0.04     0.01  -0.05   0.02    -0.01  -0.10   0.01
     2   6     0.01   0.08  -0.02     0.01  -0.01  -0.02    -0.00   0.01   0.00
     3   6     0.05  -0.04   0.05     0.00   0.01  -0.02    -0.02   0.08   0.09
     4   6    -0.05  -0.07  -0.01     0.04   0.04  -0.01    -0.06   0.15  -0.01
     5   6     0.07  -0.07   0.02     0.04   0.02  -0.01     0.04   0.14  -0.06
     6   6    -0.05  -0.04  -0.04     0.02   0.02  -0.03     0.02   0.05  -0.11
     7   6    -0.01  -0.12  -0.02     0.01   0.00  -0.03    -0.01  -0.04  -0.04
     8   6     0.02  -0.06   0.03     0.01  -0.02  -0.03    -0.01  -0.04   0.06
     9   6     0.15   0.01   0.07    -0.02  -0.11   0.02     0.04   0.01   0.09
    10   6     0.14  -0.00   0.09    -0.09  -0.20   0.10    -0.01   0.03   0.11
    11   6     0.01  -0.11   0.05     0.02   0.00  -0.02     0.02  -0.03   0.05
    12   6    -0.01  -0.07  -0.02     0.02  -0.00  -0.03     0.02  -0.05  -0.03
    13   6    -0.16   0.02  -0.07     0.00   0.11   0.01    -0.04  -0.05  -0.09
    14   6    -0.16   0.06  -0.09    -0.04   0.21   0.00     0.02  -0.09  -0.10
    15   1     0.11  -0.01   0.07     0.00   0.01  -0.01    -0.04   0.08   0.18
    16   1    -0.17  -0.12   0.05     0.04  -0.00  -0.01    -0.13   0.18   0.05
    17   1     0.18  -0.13  -0.02     0.04   0.06  -0.03     0.12   0.12  -0.10
    18   1    -0.11  -0.02  -0.07     0.03   0.01  -0.05     0.04   0.03  -0.19
    19   1    -0.00  -0.15  -0.03     0.00   0.00  -0.03    -0.08  -0.10  -0.09
    20   1    -0.04  -0.01   0.07     0.00   0.02  -0.01    -0.07   0.01   0.10
    21   1     0.09   0.14   0.08    -0.04  -0.12  -0.07    -0.00   0.08   0.07
    22   1     0.26   0.03   0.04     0.02  -0.07   0.09     0.11   0.00   0.04
    23   1     0.12   0.02   0.09    -0.06  -0.51   0.06     0.06  -0.25   0.10
    24   1     0.18  -0.02   0.09    -0.33  -0.15   0.34    -0.21   0.07   0.28
    25   1     0.00  -0.14   0.06     0.03   0.00  -0.02     0.08  -0.07   0.11
    26   1     0.05  -0.03  -0.07     0.01  -0.04  -0.01     0.08   0.01  -0.09
    27   1    -0.14   0.18  -0.14     0.00   0.12  -0.03    -0.02   0.06  -0.09
    28   1    -0.30   0.00   0.01    -0.00   0.09   0.12    -0.15  -0.06  -0.10
    29   1    -0.30   0.11   0.00    -0.20   0.28   0.13     0.28  -0.17  -0.26
    30   1    -0.11   0.19  -0.18     0.00   0.35  -0.12    -0.09  -0.34   0.08
                      7                      8                      9
                      A                      A                      A
 Frequencies --    397.1280               423.0910               479.6034
 Red. masses --      2.8104                 6.2489                 4.7520
 Frc consts  --      0.2611                 0.6591                 0.6440
 IR Inten    --      1.3515                 0.2059                 1.1947
  Atom  AN      X      Y      Z        X      Y      Z        X      Y      Z
     1   8    -0.06   0.09  -0.01     0.30   0.04   0.00     0.00  -0.13   0.03
     2   6    -0.06  -0.02   0.00     0.27  -0.03   0.00     0.01   0.10  -0.03
     3   6    -0.06  -0.03   0.10     0.14  -0.03   0.05     0.06   0.12   0.15
     4   6    -0.01   0.01   0.09    -0.00  -0.02  -0.05     0.04  -0.10   0.16
     5   6     0.01  -0.02  -0.04    -0.02  -0.01  -0.14     0.08  -0.14  -0.00
     6   6    -0.01  -0.06  -0.08     0.15  -0.04  -0.04    -0.06   0.08  -0.11
     7   6     0.07  -0.06  -0.09    -0.01  -0.02   0.08    -0.12   0.11  -0.08
     8   6     0.08   0.15  -0.10    -0.08   0.10   0.07    -0.16  -0.00  -0.13
     9   6     0.02  -0.03   0.02    -0.22   0.08  -0.01     0.02  -0.02  -0.04
    10   6     0.01  -0.05   0.02    -0.11  -0.05  -0.08     0.15  -0.14  -0.08
    11   6    -0.07  -0.04   0.06    -0.08   0.00   0.15     0.01   0.16   0.16
    12   6    -0.05   0.16  -0.01    -0.13   0.10   0.10     0.02   0.02  -0.00
    13   6     0.08   0.02  -0.02    -0.13  -0.09  -0.02    -0.01   0.01  -0.04
    14   6     0.02  -0.04   0.04    -0.07  -0.02  -0.09    -0.05  -0.04   0.01
    15   1    -0.07  -0.04   0.10     0.05  -0.07   0.04     0.20   0.15  -0.04
    16   1    -0.02   0.06   0.11    -0.15   0.06   0.05    -0.06  -0.10   0.22
    17   1     0.08   0.03  -0.11    -0.14   0.01  -0.07     0.13  -0.07  -0.07
    18   1     0.02  -0.08  -0.07     0.11  -0.02  -0.06    -0.21   0.17   0.04
    19   1     0.17  -0.18  -0.10    -0.08  -0.15  -0.00    -0.12   0.01  -0.12
    20   1     0.07   0.20  -0.08     0.03   0.06   0.01    -0.24  -0.04  -0.10
    21   1     0.15  -0.32   0.01    -0.19   0.02  -0.03    -0.02   0.11   0.02
    22   1    -0.25  -0.02   0.20    -0.25   0.10   0.03     0.13   0.04   0.03
    23   1     0.02  -0.13   0.02     0.00  -0.19  -0.04     0.13   0.00  -0.06
    24   1    -0.03  -0.04   0.07    -0.16  -0.04   0.04     0.25  -0.16  -0.16
    25   1    -0.11  -0.17   0.13    -0.21  -0.01   0.09     0.08   0.14   0.21
    26   1    -0.07   0.15  -0.00    -0.04   0.16   0.02     0.21  -0.11  -0.03
    27   1     0.02  -0.31   0.06    -0.17  -0.28   0.04    -0.02  -0.01  -0.05
    28   1     0.39   0.06  -0.16     0.08  -0.06  -0.13     0.01   0.01  -0.06
    29   1     0.06  -0.10  -0.04    -0.12   0.04   0.01    -0.18  -0.05   0.02
    30   1    -0.03  -0.13   0.09    -0.04   0.07  -0.16    -0.05   0.01  -0.04
                     10                     11                     12
                      A                      A                      A
 Frequencies --    484.0843               523.5165               541.5023
 Red. masses --      5.8239                 4.4167                 3.3658
 Frc consts  --      0.8041                 0.7132                 0.5815
 IR Inten    --      0.1410                 0.1699                 5.9809
  Atom  AN      X      Y      Z        X      Y      Z        X      Y      Z
     1   8     0.01  -0.04  -0.01    -0.04  -0.05   0.00     0.00  -0.15   0.02
     2   6     0.01   0.06   0.01    -0.03  -0.05   0.01     0.01   0.18  -0.03
     3   6     0.01   0.05  -0.05     0.13  -0.08   0.07     0.11   0.10  -0.07
     4   6    -0.19  -0.09  -0.09     0.09  -0.08   0.04     0.06  -0.04  -0.07
     5   6    -0.12  -0.08  -0.17    -0.13  -0.07  -0.07    -0.06  -0.01   0.08
     6   6     0.01   0.04  -0.14    -0.14  -0.09  -0.08    -0.10   0.12   0.03
     7   6     0.12   0.08  -0.20    -0.05  -0.08  -0.05     0.05  -0.11  -0.01
     8   6     0.13   0.04   0.10    -0.06   0.05   0.08     0.10   0.03  -0.04
     9   6     0.02   0.01   0.07    -0.14   0.15   0.09     0.07  -0.02  -0.00
    10   6    -0.03   0.02   0.04    -0.11   0.10   0.06    -0.04   0.05   0.05
    11   6     0.15   0.06  -0.09     0.11  -0.08   0.03    -0.06  -0.11   0.04
    12   6     0.18   0.04   0.21     0.14   0.04  -0.02    -0.10   0.03   0.03
    13   6    -0.04  -0.04   0.13     0.13   0.13  -0.09    -0.07  -0.04   0.02
    14   6    -0.20  -0.10   0.17     0.10   0.06  -0.07     0.03   0.01  -0.06
    15   1     0.07   0.06  -0.11     0.23  -0.04   0.07     0.37   0.22  -0.03
    16   1    -0.13   0.01  -0.10     0.05   0.02   0.09     0.05  -0.08  -0.07
    17   1    -0.04  -0.18  -0.17    -0.05  -0.02  -0.15    -0.05  -0.04   0.09
    18   1    -0.04   0.08   0.01    -0.19  -0.06  -0.07    -0.36   0.23  -0.03
    19   1     0.02   0.12  -0.22    -0.09  -0.09  -0.07     0.15  -0.18   0.00
    20   1    -0.04  -0.12   0.13    -0.13   0.03   0.11     0.10   0.07  -0.03
    21   1     0.09  -0.18   0.03    -0.17   0.19   0.06     0.15  -0.20  -0.04
    22   1    -0.15  -0.03   0.08    -0.08   0.13   0.02    -0.10  -0.04   0.05
    23   1     0.02  -0.05   0.06    -0.06   0.27   0.12    -0.13   0.16   0.02
    24   1    -0.00   0.01   0.10     0.11   0.05  -0.03     0.04   0.03  -0.02
    25   1     0.05  -0.04  -0.06     0.11  -0.11   0.05    -0.17  -0.18   0.03
    26   1     0.10   0.09   0.21     0.16   0.07  -0.05    -0.10   0.07   0.01
    27   1    -0.04   0.05  -0.11     0.16   0.28  -0.11    -0.09  -0.18   0.13
    28   1    -0.11  -0.04   0.09    -0.01   0.11  -0.05     0.06  -0.02  -0.04
    29   1    -0.19  -0.05   0.25    -0.13   0.07  -0.01    -0.07   0.07   0.04
    30   1    -0.15  -0.01   0.13     0.14   0.19  -0.17     0.11   0.14  -0.13
                     13                     14                     15
                      A                      A                      A
 Frequencies --    608.2514               675.6812               701.4470
 Red. masses --      5.7539                 2.9487                 3.5376
 Frc consts  --      1.2542                 0.7932                 1.0255
 IR Inten    --      0.5752                 0.6103                 3.6103
  Atom  AN      X      Y      Z        X      Y      Z        X      Y      Z
     1   8     0.28  -0.01   0.00    -0.03   0.01   0.01    -0.00  -0.01   0.03
     2   6     0.23  -0.01   0.02    -0.02  -0.06  -0.08     0.00   0.09  -0.17
     3   6    -0.06   0.05  -0.02     0.06  -0.05  -0.02    -0.02   0.03  -0.05
     4   6    -0.09   0.05   0.13     0.11  -0.11   0.13     0.00  -0.05   0.14
     5   6    -0.09  -0.01   0.15     0.08   0.14   0.09     0.07   0.04   0.05
     6   6    -0.11  -0.08   0.00     0.04  -0.00  -0.04     0.06   0.04  -0.05
     7   6    -0.06  -0.06  -0.16     0.01   0.04  -0.05    -0.02  -0.06   0.10
     8   6    -0.09  -0.02  -0.15     0.01   0.04  -0.08     0.06  -0.06   0.18
     9   6     0.05  -0.00   0.03    -0.03   0.03  -0.04    -0.06  -0.04  -0.03
    10   6    -0.04   0.10   0.14    -0.08   0.14   0.07    -0.02  -0.02  -0.08
    11   6    -0.01  -0.01  -0.18     0.01   0.04   0.01    -0.02  -0.11  -0.06
    12   6    -0.04  -0.04  -0.15     0.02  -0.05  -0.01     0.02   0.08  -0.02
    13   6     0.07   0.07   0.01    -0.08  -0.10  -0.01     0.07   0.12  -0.09
    14   6    -0.06  -0.02   0.15    -0.04  -0.08   0.04    -0.13  -0.05   0.10
    15   1    -0.28  -0.04   0.01     0.11  -0.05  -0.17     0.18   0.11  -0.06
    16   1    -0.00  -0.02   0.07     0.13  -0.15   0.11     0.07  -0.12   0.09
    17   1     0.02   0.01   0.06     0.14   0.18   0.03     0.01   0.14   0.04
    18   1    -0.36   0.04  -0.01     0.23  -0.10  -0.11    -0.04   0.08  -0.18
    19   1    -0.00   0.05  -0.09     0.06  -0.00  -0.05    -0.20   0.02   0.05
    20   1    -0.20   0.08  -0.07    -0.01   0.00  -0.09     0.19  -0.04   0.13
    21   1     0.04   0.03   0.04     0.07  -0.16  -0.01    -0.17   0.14  -0.11
    22   1     0.05  -0.00   0.04    -0.25  -0.01  -0.01     0.17  -0.05  -0.17
    23   1    -0.15   0.21   0.10    -0.14  -0.05  -0.01     0.02   0.02  -0.05
    24   1     0.02   0.09   0.05    -0.26   0.18   0.19    -0.08  -0.01  -0.16
    25   1     0.05  -0.07  -0.10     0.01   0.05  -0.00    -0.02  -0.11  -0.06
    26   1    -0.15  -0.15  -0.05     0.10  -0.06  -0.05    -0.16   0.20   0.00
    27   1     0.05  -0.03  -0.04    -0.04   0.11  -0.00     0.04  -0.02  -0.22
    28   1     0.15   0.07   0.06    -0.29  -0.11  -0.02     0.22   0.14  -0.16
    29   1     0.00  -0.12  -0.02    -0.31   0.02   0.24    -0.18  -0.18  -0.09
    30   1    -0.13  -0.16   0.24    -0.03   0.14  -0.19    -0.19  -0.16   0.16
                     16                     17                     18
                      A                      A                      A
 Frequencies --    717.3426               728.3543               761.3396
 Red. masses --      3.6435                 2.7958                 3.6349
 Frc consts  --      1.1046                 0.8739                 1.2414
 IR Inten    --      2.1243                 2.4477                 0.5199
  Atom  AN      X      Y      Z        X      Y      Z        X      Y      Z
     1   8     0.04   0.02   0.02    -0.01  -0.01   0.01    -0.03  -0.01  -0.06
     2   6     0.03  -0.12  -0.11    -0.01  -0.04  -0.03    -0.03   0.04   0.31
     3   6    -0.01  -0.01  -0.01     0.13  -0.10  -0.05     0.10  -0.02   0.03
     4   6     0.03   0.05   0.02    -0.08  -0.00  -0.12     0.03  -0.10   0.01
     5   6    -0.05   0.01   0.09     0.06   0.08   0.02     0.03   0.09  -0.00
     6   6    -0.09  -0.06  -0.02    -0.07  -0.00   0.04     0.10   0.02   0.02
     7   6    -0.04   0.09  -0.09    -0.10  -0.02   0.09     0.02   0.03  -0.16
     8   6     0.05  -0.09   0.08    -0.09  -0.01  -0.12    -0.09  -0.10   0.02
     9   6     0.14  -0.14  -0.05     0.02  -0.01  -0.04     0.01  -0.08   0.02
    10   6    -0.08   0.02   0.02     0.05   0.06   0.02    -0.01   0.03  -0.00
    11   6    -0.06   0.08   0.08     0.07  -0.02   0.06    -0.00  -0.03  -0.11
    12   6     0.05   0.12   0.20     0.08   0.06   0.09    -0.10   0.08   0.02
    13   6    -0.01   0.02  -0.04     0.02   0.10   0.02    -0.02   0.08  -0.01
    14   6     0.03   0.02  -0.14    -0.09  -0.00   0.02    -0.00  -0.02  -0.03
    15   1    -0.25  -0.12  -0.06     0.22  -0.05   0.00     0.27   0.04  -0.04
    16   1    -0.05  -0.03   0.05    -0.12  -0.01  -0.10    -0.01  -0.08   0.04
    17   1     0.01   0.06   0.02     0.10  -0.04   0.06     0.01   0.07   0.02
    18   1    -0.02  -0.09   0.04    -0.06  -0.03  -0.08     0.32  -0.08   0.01
    19   1    -0.07   0.14  -0.09     0.03  -0.06   0.13    -0.09   0.12  -0.17
    20   1    -0.18  -0.25   0.15    -0.09  -0.06  -0.13    -0.26  -0.11   0.09
    21   1     0.07  -0.07  -0.18     0.11  -0.09   0.12    -0.12   0.17  -0.02
    22   1     0.25  -0.17  -0.16    -0.14  -0.03   0.01     0.27  -0.08  -0.12
    23   1    -0.21   0.24  -0.02     0.00  -0.22  -0.06     0.02   0.05   0.02
    24   1    -0.04   0.02  -0.19    -0.16   0.10   0.22    -0.11   0.05  -0.09
    25   1    -0.24  -0.08   0.10    -0.06   0.11  -0.11    -0.14  -0.16  -0.09
    26   1     0.12   0.19   0.13     0.17  -0.12   0.14    -0.19   0.08   0.06
    27   1    -0.01  -0.02  -0.02    -0.05  -0.24  -0.15    -0.07  -0.20   0.06
    28   1     0.05   0.04  -0.16     0.37   0.13  -0.04     0.24   0.11  -0.11
    29   1     0.02   0.03  -0.13     0.09  -0.12  -0.19    -0.10  -0.07  -0.09
    30   1     0.02   0.01  -0.16    -0.04  -0.17   0.26     0.07   0.01   0.02
                     19                     20                     21
                      A                      A                      A
 Frequencies --    769.7804               781.1721               797.0526
 Red. masses --      3.8045                 3.0726                 2.1019
 Frc consts  --      1.3283                 1.1047                 0.7867
 IR Inten    --      1.3929                 1.1708                 0.4803
  Atom  AN      X      Y      Z        X      Y      Z        X      Y      Z
     1   8    -0.03   0.00   0.01     0.00   0.02   0.00     0.04  -0.01  -0.02
     2   6    -0.02   0.02  -0.04     0.01   0.04  -0.05     0.03   0.05   0.13
     3   6    -0.01   0.10  -0.03    -0.15   0.01  -0.04    -0.12   0.03  -0.03
     4   6    -0.02   0.12   0.01    -0.03  -0.10  -0.10    -0.00  -0.06  -0.01
     5   6     0.11  -0.03   0.20    -0.02  -0.03   0.02     0.04   0.04  -0.01
     6   6     0.06  -0.05   0.08     0.16   0.11  -0.02    -0.05   0.00   0.01
     7   6     0.05  -0.04  -0.15     0.08  -0.04  -0.03    -0.05  -0.08   0.03
     8   6    -0.09   0.06  -0.05    -0.06  -0.07  -0.07    -0.02  -0.00   0.03
     9   6    -0.17   0.10  -0.02    -0.06  -0.01   0.03     0.03   0.03  -0.04
    10   6     0.05  -0.10  -0.02    -0.04   0.06   0.10     0.05   0.01  -0.07
    11   6     0.03  -0.13  -0.08    -0.08   0.02   0.17    -0.05   0.01  -0.01
    12   6     0.10   0.02   0.15     0.05  -0.03  -0.00     0.04   0.03   0.07
    13   6    -0.01  -0.06  -0.00     0.09   0.08  -0.00     0.11   0.01  -0.03
    14   6    -0.02   0.03  -0.07     0.01  -0.01  -0.00     0.03  -0.05  -0.04
    15   1    -0.01   0.12   0.13    -0.23  -0.03  -0.11    -0.24  -0.02  -0.07
    16   1    -0.04  -0.13  -0.04     0.06  -0.16  -0.17     0.08  -0.10  -0.06
    17   1     0.02   0.05   0.23    -0.05  -0.20   0.13     0.03   0.03   0.01
    18   1     0.09  -0.07   0.08     0.27   0.06   0.02    -0.20   0.06  -0.11
    19   1     0.15   0.11  -0.06     0.15  -0.39  -0.13    -0.05  -0.07   0.03
    20   1    -0.20  -0.20  -0.07    -0.11  -0.05  -0.05    -0.03  -0.11   0.01
    21   1    -0.13   0.03   0.02    -0.16   0.17  -0.02     0.18  -0.17   0.14
    22   1    -0.22   0.17   0.15     0.14   0.00  -0.05    -0.26  -0.04  -0.01
    23   1     0.03   0.04  -0.00    -0.01   0.20   0.15     0.00  -0.33  -0.17
    24   1     0.13  -0.12  -0.09     0.03   0.05  -0.04    -0.14   0.05   0.24
    25   1    -0.14  -0.42   0.04    -0.08  -0.05   0.22    -0.08  -0.03   0.01
    26   1     0.09   0.06   0.13     0.20  -0.23   0.03    -0.02   0.07   0.09
    27   1     0.02   0.09  -0.10     0.07   0.02  -0.05     0.17   0.32  -0.02
    28   1    -0.12  -0.06  -0.00     0.15   0.08   0.01    -0.22   0.00  -0.11
    29   1     0.17   0.03  -0.10    -0.06  -0.05  -0.04    -0.19   0.05   0.15
    30   1    -0.12  -0.11  -0.03     0.08   0.03   0.02    -0.03   0.12  -0.29
                     22                     23                     24
                      A                      A                      A
 Frequencies --    836.7915               854.7543               873.8818
 Red. masses --      2.0181                 2.1657                 3.2755
 Frc consts  --      0.8326                 0.9322                 1.4738
 IR Inten    --      1.3350                 0.9007                 6.2420
  Atom  AN      X      Y      Z        X      Y      Z        X      Y      Z
     1   8    -0.00   0.00   0.02    -0.01  -0.00  -0.01     0.05  -0.00  -0.00
     2   6    -0.00   0.01  -0.11    -0.01   0.03   0.06     0.05   0.01   0.03
     3   6     0.02   0.01   0.07    -0.04   0.06  -0.01    -0.13  -0.15   0.09
     4   6    -0.04  -0.03   0.03     0.03  -0.05   0.04     0.03  -0.07  -0.05
     5   6    -0.06  -0.08  -0.02     0.06  -0.07   0.04     0.12   0.02  -0.01
     6   6     0.08   0.01   0.04    -0.00  -0.07  -0.07    -0.13   0.16  -0.04
     7   6    -0.01   0.11  -0.04     0.01  -0.06  -0.00     0.00   0.17  -0.00
     8   6    -0.01  -0.06   0.02     0.07  -0.04   0.07     0.06  -0.01  -0.01
     9   6     0.05   0.05  -0.02    -0.06   0.06  -0.07    -0.10   0.01  -0.06
    10   6     0.01   0.08  -0.02    -0.02   0.05   0.03     0.02   0.01   0.06
    11   6    -0.03  -0.08  -0.01     0.02   0.12  -0.01     0.05  -0.16  -0.00
    12   6    -0.05  -0.05  -0.02    -0.02  -0.07   0.02     0.00   0.01  -0.01
    13   6     0.05   0.05   0.02    -0.06   0.03   0.02    -0.04  -0.01   0.02
    14   6     0.03   0.02  -0.05     0.00   0.10  -0.07     0.03   0.01  -0.02
    15   1     0.15   0.07   0.13    -0.10   0.01  -0.18    -0.27  -0.19   0.22
    16   1    -0.14   0.04   0.10    -0.03  -0.23   0.04     0.03  -0.13  -0.06
    17   1    -0.12  -0.17   0.07     0.17  -0.05  -0.04     0.26  -0.04  -0.08
    18   1     0.17   0.00   0.25    -0.08  -0.04  -0.11    -0.27   0.24   0.01
    19   1    -0.12   0.23  -0.04    -0.07  -0.06  -0.04    -0.08   0.40   0.04
    20   1    -0.05  -0.10   0.03     0.18  -0.12  -0.00     0.14  -0.09  -0.07
    21   1     0.22  -0.17   0.22     0.06  -0.16  -0.01    -0.12   0.00  -0.13
    22   1    -0.30  -0.07  -0.07    -0.28  -0.01  -0.10    -0.04   0.02  -0.07
    23   1    -0.08  -0.30  -0.16    -0.10  -0.04  -0.03     0.06   0.09   0.10
    24   1    -0.08   0.09   0.38     0.01   0.04   0.15     0.02   0.02  -0.05
    25   1    -0.02  -0.19   0.07     0.14   0.18   0.01     0.06  -0.28   0.09
    26   1    -0.15  -0.06   0.03    -0.01  -0.05   0.01    -0.07   0.07  -0.00
    27   1     0.05   0.02   0.07    -0.12  -0.27  -0.05    -0.06  -0.11   0.06
    28   1     0.06   0.04   0.06     0.26   0.03   0.17     0.06  -0.01   0.01
    29   1    -0.02  -0.01  -0.09     0.18  -0.09  -0.38     0.06  -0.00  -0.04
    30   1     0.04   0.00  -0.02     0.08  -0.15   0.29     0.10   0.02   0.05
                     25                     26                     27
                      A                      A                      A
 Frequencies --    879.3662               901.0930               926.6148
 Red. masses --      2.3410                 2.3246                 2.4950
 Frc consts  --      1.0666                 1.1121                 1.2622
 IR Inten    --      1.5737                 0.0252                 0.1370
  Atom  AN      X      Y      Z        X      Y      Z        X      Y      Z
     1   8     0.01  -0.00  -0.00    -0.00  -0.01   0.00    -0.01   0.00   0.01
     2   6     0.01   0.00   0.02     0.00   0.01  -0.01    -0.01  -0.01  -0.05
     3   6    -0.04  -0.05  -0.09     0.05  -0.02  -0.05    -0.03   0.17   0.02
     4   6     0.12   0.02   0.06    -0.03   0.03   0.10     0.03   0.01  -0.07
     5   6    -0.05   0.02  -0.07     0.03   0.00  -0.11     0.02  -0.02  -0.04
     6   6    -0.05   0.04   0.09    -0.07  -0.02   0.06    -0.03  -0.16   0.06
     7   6     0.06   0.02  -0.06     0.14   0.03   0.02     0.03  -0.01   0.02
     8   6    -0.03  -0.03   0.04     0.03  -0.08  -0.04    -0.02  -0.08  -0.02
     9   6     0.04   0.05   0.06    -0.10  -0.02   0.00    -0.07  -0.05  -0.01
    10   6     0.02  -0.01  -0.09     0.06   0.04   0.06     0.05   0.08   0.03
    11   6    -0.04  -0.03   0.06    -0.11   0.05  -0.02     0.07   0.00   0.01
    12   6     0.06  -0.03  -0.02    -0.03  -0.03   0.05    -0.01   0.10  -0.04
    13   6    -0.10  -0.02  -0.10     0.07   0.02   0.01    -0.09   0.02  -0.02
    14   6    -0.02   0.07   0.09    -0.03  -0.01  -0.06     0.05  -0.07   0.07
    15   1    -0.10  -0.09  -0.20     0.15  -0.00  -0.19    -0.12   0.16   0.12
    16   1     0.27   0.05  -0.01    -0.15   0.13   0.19     0.18   0.02  -0.15
    17   1    -0.15   0.16  -0.07     0.19   0.04  -0.24     0.12  -0.09  -0.07
    18   1    -0.11   0.09   0.21    -0.23   0.07   0.18    -0.08  -0.13   0.10
    19   1     0.14  -0.01  -0.04     0.34   0.05   0.10     0.08   0.21   0.12
    20   1    -0.20  -0.05   0.12     0.11  -0.16  -0.11     0.05  -0.06  -0.04
    21   1     0.10   0.02   0.21    -0.18   0.13  -0.02    -0.14   0.13   0.04
    22   1    -0.07  -0.00   0.02     0.08  -0.00  -0.07     0.09  -0.08  -0.18
    23   1     0.04  -0.20  -0.12     0.25  -0.06   0.17     0.14  -0.19   0.03
    24   1    -0.01  -0.00   0.12    -0.00   0.05   0.06    -0.11   0.11   0.20
    25   1    -0.14  -0.17   0.12    -0.26   0.05  -0.09     0.15  -0.16   0.18
    26   1     0.28   0.02  -0.16    -0.10  -0.14   0.14     0.08   0.10  -0.08
    27   1    -0.14  -0.19  -0.26     0.10   0.14   0.02    -0.13  -0.19   0.08
    28   1     0.12  -0.02   0.02    -0.07   0.01  -0.01     0.13   0.06  -0.20
    29   1     0.07  -0.06  -0.12    -0.03  -0.02  -0.08    -0.15   0.05   0.27
    30   1     0.00  -0.08   0.28    -0.16  -0.09  -0.12     0.18   0.21  -0.10
                     28                     29                     30
                      A                      A                      A
 Frequencies --    955.7552               978.7057              1002.3460
 Red. masses --      2.4475                 2.3016                 2.2009
 Frc consts  --      1.3172                 1.2989                 1.3028
 IR Inten    --      0.0385                 0.3176                 1.3248
  Atom  AN      X      Y      Z        X      Y      Z        X      Y      Z
     1   8    -0.00   0.00   0.02     0.02  -0.00   0.00    -0.00   0.01  -0.00
     2   6     0.00  -0.02  -0.12     0.01  -0.00  -0.01    -0.00  -0.04   0.01
     3   6    -0.04  -0.06   0.06    -0.03   0.09  -0.02    -0.04   0.05  -0.02
     4   6    -0.02  -0.05   0.03    -0.02  -0.11  -0.01     0.09   0.04   0.07
     5   6    -0.01   0.06   0.03    -0.00   0.11  -0.02    -0.09   0.02  -0.08
     6   6    -0.04   0.08   0.04    -0.05  -0.10   0.02     0.04   0.05  -0.01
     7   6     0.11  -0.09  -0.04    -0.01   0.05  -0.00    -0.04  -0.00   0.07
     8   6    -0.05  -0.03   0.02     0.04   0.10  -0.02     0.01  -0.06  -0.08
     9   6    -0.01   0.01   0.08     0.03  -0.01   0.10     0.03   0.07   0.01
    10   6     0.02  -0.02  -0.10    -0.02  -0.02  -0.09     0.00  -0.06   0.07
    11   6     0.14   0.07  -0.06    -0.02  -0.04   0.03     0.05  -0.04  -0.05
    12   6    -0.05   0.04   0.01     0.03  -0.10  -0.01    -0.00  -0.04   0.09
    13   6    -0.03   0.03   0.08     0.02   0.04   0.09    -0.05   0.08  -0.01
    14   6     0.02  -0.02  -0.09    -0.02  -0.02  -0.10    -0.02  -0.08  -0.06
    15   1    -0.20  -0.13   0.07     0.01   0.09  -0.14    -0.18   0.01   0.05
    16   1    -0.11  -0.07   0.08    -0.08  -0.19   0.01     0.19   0.09   0.02
    17   1    -0.12   0.11   0.08    -0.05   0.20  -0.03    -0.19   0.14  -0.07
    18   1    -0.17   0.15   0.03    -0.01  -0.13  -0.10     0.16  -0.02  -0.08
    19   1     0.28  -0.27  -0.04     0.01   0.32   0.11    -0.11   0.09   0.08
    20   1    -0.22  -0.03   0.09     0.09   0.27   0.01     0.15  -0.16  -0.18
    21   1    -0.04   0.14   0.18    -0.07   0.13  -0.02     0.13  -0.09   0.08
    22   1     0.07   0.01   0.04     0.21   0.08   0.18    -0.15   0.10   0.17
    23   1     0.03  -0.15  -0.12     0.09  -0.04  -0.02     0.07   0.16   0.16
    24   1    -0.11   0.01   0.03    -0.18   0.02  -0.16     0.28  -0.13  -0.05
    25   1     0.35   0.26  -0.09    -0.02  -0.28   0.21     0.11   0.01  -0.06
    26   1    -0.21   0.06   0.08     0.12  -0.27   0.04    -0.11  -0.19   0.23
    27   1    -0.06  -0.13   0.24    -0.00  -0.09   0.08    -0.10  -0.18  -0.08
    28   1     0.09   0.04   0.01     0.14   0.03   0.24     0.21   0.11  -0.17
    29   1    -0.08  -0.01  -0.04    -0.12  -0.09  -0.18    -0.27  -0.08  -0.02
    30   1     0.07   0.04  -0.11     0.10  -0.01   0.02    -0.02   0.04  -0.18
                     31                     32                     33
                      A                      A                      A
 Frequencies --   1035.3440              1047.9409              1057.9965
 Red. masses --      4.3739                 1.8975                 1.9484
 Frc consts  --      2.7624                 1.2277                 1.2850
 IR Inten    --      2.5267                 0.5934                 0.4473
  Atom  AN      X      Y      Z        X      Y      Z        X      Y      Z
     1   8     0.00  -0.01  -0.00     0.00  -0.00   0.00     0.00   0.00   0.01
     2   6     0.00   0.11  -0.01     0.00   0.03  -0.02     0.00  -0.01  -0.04
     3   6    -0.13  -0.02  -0.06    -0.02   0.01   0.13    -0.02   0.05   0.07
     4   6    -0.01  -0.05   0.19     0.06  -0.05  -0.05     0.08  -0.03  -0.05
     5   6    -0.04  -0.09  -0.12    -0.01  -0.01   0.01     0.08   0.00  -0.10
     6   6     0.13  -0.01   0.01     0.01  -0.04  -0.07    -0.00  -0.01   0.14
     7   6    -0.07  -0.05   0.12     0.10   0.03   0.08    -0.07  -0.04  -0.04
     8   6    -0.10   0.09  -0.12    -0.06  -0.00  -0.02    -0.00   0.07   0.01
     9   6     0.05  -0.13   0.00     0.04  -0.00   0.03     0.03  -0.01  -0.03
    10   6    -0.03   0.12   0.04    -0.04   0.01  -0.02    -0.06   0.02   0.03
    11   6     0.09  -0.09  -0.09    -0.09   0.03  -0.09    -0.00   0.00  -0.02
    12   6     0.11   0.12   0.08     0.04  -0.02   0.04    -0.02  -0.04   0.04
    13   6    -0.07  -0.11   0.04    -0.01  -0.02  -0.04     0.04  -0.01  -0.01
    14   6     0.06   0.12  -0.09    -0.00   0.02   0.02    -0.07   0.01   0.00
    15   1     0.05   0.03  -0.22     0.07   0.10   0.46    -0.02   0.07   0.22
    16   1    -0.09  -0.04   0.24     0.09  -0.09  -0.07     0.14  -0.07  -0.09
    17   1     0.02  -0.12  -0.15    -0.02  -0.02   0.01     0.18   0.03  -0.18
    18   1    -0.03   0.07   0.05    -0.08  -0.03  -0.34     0.02   0.03   0.49
    19   1    -0.09   0.04   0.16     0.35   0.15   0.23     0.00  -0.22  -0.08
    20   1    -0.11   0.16  -0.10    -0.13  -0.08  -0.01    -0.22   0.01   0.10
    21   1    -0.08   0.09  -0.11     0.05   0.05   0.12     0.02  -0.15  -0.28
    22   1     0.26  -0.10  -0.06     0.02  -0.00   0.04    -0.00   0.00   0.02
    23   1     0.04  -0.06   0.05    -0.14   0.05  -0.07     0.05   0.09   0.11
    24   1    -0.17   0.15   0.07    -0.02   0.00  -0.01    -0.11   0.04  -0.16
    25   1     0.05  -0.08  -0.12    -0.26   0.11  -0.24     0.20   0.13  -0.01
    26   1     0.21   0.17   0.01    -0.02  -0.03   0.08    -0.27   0.05   0.11
    27   1    -0.04  -0.00   0.15    -0.02   0.02  -0.29     0.04   0.08  -0.22
    28   1    -0.12  -0.12   0.07    -0.00  -0.03   0.04    -0.03  -0.02   0.05
    29   1     0.26   0.08  -0.17     0.03  -0.02  -0.05    -0.04  -0.07  -0.12
    30   1    -0.03  -0.10   0.06     0.12   0.03   0.14    -0.04  -0.06   0.10
                     34                     35                     36
                      A                      A                      A
 Frequencies --   1079.9419              1101.5105              1106.5411
 Red. masses --      1.9959                 1.8693                 1.8261
 Frc consts  --      1.3715                 1.3363                 1.3174
 IR Inten    --      0.8660                 0.0786                 0.0686
  Atom  AN      X      Y      Z        X      Y      Z        X      Y      Z
     1   8     0.00  -0.00  -0.01    -0.01  -0.00  -0.01    -0.01   0.00  -0.01
     2   6     0.00   0.00   0.03    -0.00   0.01   0.04    -0.00   0.01   0.03
     3   6    -0.02   0.03  -0.08     0.02  -0.01  -0.03    -0.01  -0.01  -0.05
     4   6     0.01   0.01  -0.01     0.10   0.08  -0.01    -0.03   0.09   0.03
     5   6     0.03  -0.02  -0.02    -0.02  -0.09   0.06     0.10  -0.07  -0.00
     6   6    -0.02  -0.05  -0.06    -0.00  -0.01  -0.07     0.02  -0.00  -0.02
     7   6     0.08   0.07   0.06    -0.01   0.05  -0.01     0.03   0.03   0.03
     8   6    -0.09  -0.04   0.00     0.04   0.03  -0.04    -0.04   0.03   0.06
     9   6     0.06   0.03  -0.01    -0.04  -0.06   0.07     0.03   0.02  -0.01
    10   6    -0.07  -0.02   0.01     0.01   0.08  -0.07    -0.07  -0.00  -0.02
    11   6     0.09  -0.06   0.09     0.02  -0.03   0.03    -0.02  -0.04  -0.02
    12   6    -0.09   0.04  -0.02    -0.03  -0.01   0.04     0.06  -0.05  -0.03
    13   6     0.06  -0.02   0.01     0.02  -0.00   0.02    -0.05   0.08   0.04
    14   6    -0.06   0.02  -0.00    -0.08  -0.01  -0.03     0.03  -0.10  -0.02
    15   1     0.09   0.06  -0.19    -0.13  -0.03   0.27     0.00   0.03   0.13
    16   1     0.12  -0.11  -0.10     0.32  -0.13  -0.18    -0.08   0.04   0.05
    17   1     0.16   0.07  -0.16    -0.03  -0.02   0.02     0.34  -0.00  -0.20
    18   1     0.06  -0.10  -0.11    -0.02   0.03   0.12    -0.14   0.11   0.24
    19   1     0.29   0.11   0.16    -0.11  -0.14  -0.13     0.08  -0.14  -0.02
    20   1    -0.24  -0.11   0.05     0.24   0.23  -0.07    -0.17   0.15   0.15
    21   1     0.13  -0.05   0.12    -0.15   0.23   0.13     0.07  -0.07  -0.02
    22   1    -0.11  -0.00   0.02     0.21  -0.06  -0.06    -0.07  -0.02  -0.05
    23   1    -0.24   0.15  -0.06    -0.08  -0.19  -0.18    -0.28   0.10  -0.13
    24   1     0.05  -0.05  -0.09    -0.10   0.10   0.19    -0.07  -0.01  -0.07
    25   1     0.32  -0.07   0.22     0.04   0.14  -0.08    -0.15   0.09  -0.19
    26   1    -0.23   0.12   0.00    -0.12  -0.19   0.18     0.28  -0.21  -0.06
    27   1     0.10   0.13   0.17     0.03   0.05  -0.03    -0.10  -0.20   0.16
    28   1    -0.14  -0.03  -0.04    -0.04   0.01  -0.08     0.19   0.10  -0.02
    29   1     0.06  -0.02  -0.09    -0.03  -0.03  -0.07    -0.15   0.01   0.16
    30   1    -0.25  -0.15  -0.01    -0.27  -0.15  -0.10     0.05   0.10  -0.23
                     37                     38                     39
                      A                      A                      A
 Frequencies --   1130.6380              1138.8704              1147.8999
 Red. masses --      1.7247                 3.0115                 1.8234
 Frc consts  --      1.2990                 2.3013                 1.4156
 IR Inten    --      0.4313                18.5034                11.8390
  Atom  AN      X      Y      Z        X      Y      Z        X      Y      Z
[...]
 .00028851,0.00019585,-0.00068456,-0.00002816,0.00018323,0.00077477,0.0
 0065834,0.00063779,0.00019838,-0.00047991,0.00005112,0.00000560,-0.000
 07426,0.00007828,-0.00010130,-0.00015912,0.00048955,0.00067228,-0.0006
 2353,0.00034181,0.00258555,0.00028964,-0.00276541,-0.01045375,-0.00043
 806,0.05797963,0.31072157,-0.00007739,0.00001599,-0.00004206,0.0001534
 5,0.00002010,0.00019317,-0.00004234,0.00002640,-0.00006043,0.00090467,
 0.00073077,0.00121222,0.00014820,-0.00358804,-0.00083763,-0.00052593,-
 0.00080492,0.00032525,-0.00017971,0.00008708,-0.00024764,-0.00223116,0
 .00020556,-0.00107542,-0.00875001,-0.02468022,-0.00699954,-0.00680528,
 -0.03711129,-0.05520637,-0.00000054,0.00010447,0.00001951,0.00004036,0
 .00025016,0.00002835,-0.00011777,0.00003817,-0.00003911,-0.00005418,0.
 00024535,-0.00037857,-0.00000287,-0.00001640,0.00001106,0.00006187,-0.
 00030266,-0.00010723,-0.00002952,0.00090146,0.00037283,0.00024458,0.00
 018577,-0.00000968,0.00012988,-0.00003810,-0.00006078,0.00025380,-0.00
 016984,-0.00060818,-0.00173709,-0.00078664,-0.00269866,-0.00001192,-0.
 00062718,0.00105356,0.00559950,0.02704484,0.00409798,0.01335295,0.0384
 1355,0.06061293,-0.00040421,0.00014307,0.00032950,0.00147237,0.0005586
 8,-0.00045920,0.00707688,-0.00747308,-0.01442701,-0.00235484,0.0005132
 5,-0.00215384,-0.00002912,0.00024484,0.00025250,-0.00002839,-0.0017262
 4,0.00024816,-0.00047459,-0.00099158,-0.00453844,-0.00318048,0.0007308
 4,-0.00055791,-0.00005410,0.00088591,-0.00028249,-0.00017373,-0.000064
 78,-0.00010983,-0.09070397,0.04302384,0.08686834,-0.00804191,0.0116845
 1,0.02398187,-0.00284186,0.00216471,-0.00081047,-0.00019323,0.00005294
 ,-0.00015557,0.00091829,0.00003418,0.00071473,0.00061371,-0.00019513,-
 0.00092023,0.00000374,0.00000705,0.00005263,-0.00019435,-0.00011930,-0
 .00036098,0.00094419,0.00073218,0.00013882,-0.00018276,0.00086820,0.00
 001544,0.00013107,-0.00011136,-0.00010442,-0.00006375,0.00024429,0.000
 30607,0.00003822,-0.00000111,0.00003047,0.00006568,-0.00000670,0.00004
 191,0.09580778,-0.00086366,0.00045881,0.00026834,0.00100806,-0.0015062
 8,-0.00022066,-0.00406013,0.00545794,0.00993109,0.00169809,0.00029359,
 0.00228435,-0.00029904,-0.00036763,0.00039142,0.00073053,-0.00383752,0
 .00050207,0.00913391,-0.00664852,-0.02464569,0.00118162,-0.00197905,0.
 00028430,0.00060574,0.00017049,0.00004824,0.00003564,0.00017403,0.0001
 7984,0.04229581,-0.09588932,-0.09476658,-0.00029543,0.00138529,0.00679
 533,-0.00106995,0.00016553,0.00010199,0.00022526,0.00004835,-0.0003630
 1,-0.00096888,0.00050397,-0.00049176,-0.00032815,0.00024339,0.00071525
 ,0.00003964,0.00009837,-0.00011602,-0.00052341,-0.00018350,-0.00112521
 ,-0.00075932,0.00271067,0.00067265,0.00077407,-0.00007241,-0.00005338,
 0.00017893,-0.00007296,-0.00017006,-0.00004711,-0.00002270,0.00004677,
 0.00004324,-0.00001057,-0.00005190,-0.00006365,0.00004215,0.00000133,-
 0.04937125,0.09824370,-0.00120297,-0.00016513,0.00053028,0.00214133,0.
 00132283,-0.00084825,0.00965054,-0.01170697,-0.02079270,-0.00451283,0.
 00165109,-0.00324965,0.00017915,0.00041247,0.00049250,0.00017665,0.000
 00790,0.00017528,-0.00225439,0.00130781,0.00397298,-0.00020419,0.00052
 941,-0.00003691,-0.00015897,0.00000425,0.00010711,-0.00017655,-0.00004
 531,-0.00006176,0.08575575,-0.09259125,-0.22693283,-0.00206156,0.00009
 433,0.00054345,0.00025257,-0.00006902,0.00005306,-0.00046326,-0.000167
 06,0.00053140,0.00034537,0.00056057,0.00130286,0.00103033,-0.00049333,
 -0.00141186,-0.00004965,-0.00001746,0.00005816,0.00011120,-0.00004604,
 -0.00000417,0.00014165,-0.00059114,0.00098099,-0.00011005,-0.00000280,
 0.00004974,-0.00000197,0.00001615,0.00002752,0.00003750,-0.00000274,0.
 00001528,0.00000981,0.00001630,0.00000591,0.00005775,-0.00006674,0.000
 00579,-0.08888865,0.09966362,0.24304042,-0.00079066,-0.00081338,0.0004
 6300,-0.00005400,0.00229196,-0.00144338,-0.00458765,-0.00304737,0.0011
 6450,0.00011778,0.00016199,0.00059390,-0.00006299,0.00005376,0.0001280
 4,0.00039094,-0.00026108,0.00029458,-0.00043275,-0.00054125,0.00132001
 ,0.00247031,0.00170855,0.00658243,-0.00010836,0.00140705,0.00000694,-0
 .00014585,-0.00007633,-0.00015515,-0.01325307,-0.00720979,-0.02853730,
 -0.09114073,-0.03300001,-0.09071957,0.00669807,0.00353608,0.01347456,-
 0.00092616,-0.00228326,0.00130563,-0.00024305,0.00004133,-0.00023938,0
 .00009924,0.00004384,-0.00003927,0.00000930,-0.00000298,-0.00003330,0.
 00004001,-0.00009802,-0.00008405,-0.00010178,-0.00070476,-0.00012425,0
 .00129523,-0.00077769,0.00029887,0.00000056,-0.00006544,-0.00007072,-0
 .00022018,0.00026875,0.00022632,0.00006364,-0.00002084,-0.00000861,0.0
 0003311,-0.00001330,-0.00001050,0.00212025,0.00098546,-0.00009484,0.09
 734969,0.00004899,0.00021016,-0.00013110,0.00005111,-0.00074789,0.0001
 7173,0.00153834,0.00022940,0.00042564,-0.00035038,-0.00042413,-0.00018
 433,0.00012390,0.00001200,-0.00006982,-0.00028996,0.00044466,0.0000704
 7,-0.00005970,-0.00190679,0.00156792,-0.01007378,-0.01290179,-0.026436
 94,-0.00207984,-0.00353056,0.00141242,0.00040841,0.00001560,0.00021609
 ,0.00161104,0.00086245,0.00443620,-0.03447959,-0.07268795,-0.07408520,
 0.00753601,0.00426607,0.01863926,-0.00221639,-0.00121391,0.00224312,0.
 00010826,0.00000714,0.00010428,0.00003322,0.00006365,-0.00006690,-0.00
 007254,0.00003707,-0.00002230,0.00004465,0.00000133,-0.00001604,-0.000
 85552,-0.00015242,-0.00001441,0.00078123,0.00133501,-0.00059036,0.0001
 1211,0.00024675,0.00009728,0.00053657,-0.00065897,-0.00076401,-0.00005
 221,-0.00002555,-0.00019700,-0.00009094,0.00001833,-0.00007654,-0.0006
 8581,0.00102755,0.00014495,0.03725755,0.08396002,-0.00017812,-0.000003
 73,-0.00008698,0.00031347,0.00003190,0.00016496,0.00054711,-0.00004735
 ,0.00055635,0.00066501,0.00018037,0.00055778,0.00002044,0.00011984,0.0
 0003015,-0.00007866,-0.00002871,-0.00007965,0.00009540,0.00003920,-0.0
 0021295,-0.00083754,0.00171763,-0.00150200,0.00025858,-0.00054926,0.00
 073702,-0.00007823,0.00010553,0.00012678,0.00260881,0.00097145,0.00303
 641,-0.09062706,-0.07175563,-0.23974330,-0.01105821,-0.00683161,-0.024
 32195,0.00310364,0.00380392,-0.00129552,-0.00003347,0.00000693,-0.0000
 2352,-0.00006034,-0.00000456,0.00004146,-0.00001398,-0.00006290,-0.000
 01587,-0.00001415,-0.00001558,0.00004626,-0.00002367,0.00003839,0.0000
 7623,0.00033498,0.00049179,0.00207375,-0.00006388,0.00000966,-0.000102
 87,0.00005262,-0.00020792,-0.00022836,-0.00000466,0.00004018,0.0000777
 6,0.00000797,-0.00004470,0.00003648,-0.00022998,0.00000840,0.00149040,
 0.09585744,0.07225792,0.25864572,-0.00022681,-0.00012692,0.00000779,0.
 00044970,0.00042983,-0.00000125,0.00068615,-0.00017012,0.00009810,0.00
 023315,0.00102586,-0.00255515,-0.00012091,0.00028948,0.00008965,0.0000
 5937,-0.00027938,-0.00001017,-0.00043736,0.00014755,-0.00012497,0.0001
 7431,0.00054445,0.00007414,-0.00069577,-0.00015152,0.00010464,-0.00007
 454,0.00006425,-0.00014772,0.00153984,-0.00075863,0.00229331,-0.012644
 09,0.00115544,0.00224685,-0.29506465,0.04348537,0.02361399,-0.01214974
 ,0.00176506,0.00121210,0.00000202,-0.00000594,-0.00002130,-0.00073170,
 -0.00042955,0.00007624,0.00008438,-0.00013212,-0.00001030,-0.00005025,
 -0.00005978,-0.00002097,0.00009709,-0.00016580,-0.00000065,-0.00002571
 ,-0.00018999,0.00002532,0.00085435,-0.00007874,-0.00034226,0.00030279,
 0.00006079,-0.00015673,-0.00000827,-0.00001575,-0.00002611,0.00013355,
 -0.00003531,0.00007674,-0.00050504,-0.00026876,0.00006116,0.00047006,-
 0.00008304,0.00051250,0.32003069,0.00002994,-0.00006208,0.00001244,0.0
 0000376,0.00025973,0.00000131,0.00044459,-0.00037353,-0.00009008,-0.00
 096394,0.00018500,-0.00135820,-0.00005294,0.00009543,0.00004995,0.0001
 3042,-0.00017809,0.00004725,-0.00025823,0.00008121,-0.00024335,-0.0000
 8474,0.00049063,-0.00114900,-0.00034797,-0.00042160,0.00007332,-0.0001
 8073,0.00006053,-0.00011716,-0.00059421,-0.00111263,0.00377647,-0.0218
 8680,0.00425930,0.00243222,0.04445015,-0.05673828,-0.00402659,-0.00667
 486,-0.00000675,-0.00042562,-0.00012115,0.00007852,-0.00004047,-0.0003
 7727,-0.00012389,-0.00001794,0.00005347,-0.00002072,-0.00000861,-0.000
 04966,-0.00001155,-0.00003391,0.00012332,-0.00012172,-0.00001045,0.000
 03705,0.00024580,0.00002980,0.00034469,-0.00091236,-0.00029287,0.00026
 024,0.00021799,-0.00000783,0.00001352,-0.00009367,-0.00002760,0.000070
 30,0.00001643,0.00005086,-0.00083935,-0.00033945,0.00008096,0.00064412
 ,0.00044006,-0.00055536,-0.04685448,0.05839239,0.00007683,-0.00000739,
 -0.00006892,-0.00011221,0.00004695,0.00009311,-0.00019039,-0.00000291,
 -0.00008024,-0.00102463,0.00116105,-0.00452104,-0.00002949,0.00023289,
 -0.00013591,-0.00002664,0.00012906,-0.00018806,0.00052215,0.00002407,-
 0.00003825,-0.00028378,-0.00017222,0.00106119,-0.00030840,0.00025209,-
 0.00003354,-0.00016834,-0.00014904,0.00005836,-0.00046889,0.00272938,-
 0.00385975,0.02672611,-0.00579835,-0.00248729,0.02487534,-0.00397958,-
 0.05005226,-0.02907878,0.00261256,0.00087975,0.00000681,-0.00002369,0.
 00006454,-0.00142457,-0.00076095,0.00010127,0.00002033,-0.00013403,0.0
 0006642,0.00002311,0.00001354,0.00017382,-0.00006231,0.00021588,0.0000
 5270,-0.00002895,-0.00002305,-0.00010225,0.00000640,0.00003095,0.00034
 615,0.00002704,0.00006272,0.00007579,-0.00002042,0.00001346,-0.0000086
 3,0.00003985,-0.00003701,-0.00000795,0.00090570,0.00019484,-0.00007948
 ,-0.00051507,-0.00064468,0.00056547,-0.02705688,0.00540222,0.05887324,
 0.00007198,0.00006578,-0.00000236,-0.00013981,-0.00014408,-0.00002077,
 -0.00012771,0.00023581,-0.00011802,0.00004724,0.00012095,-0.00115564,0
 .00008790,0.00007300,0.00016557,-0.00007387,0.00016229,-0.00008194,0.0
 0043485,-0.00011054,-0.00019970,-0.00006057,-0.00024318,0.00275460,-0.
 00042992,0.00022919,-0.00004658,0.00006490,0.00001312,-0.00003552,0.00
 070780,0.00045879,-0.00074816,0.00124321,-0.01569826,-0.00200825,-0.05
 410128,0.02540048,0.00699382,0.00117773,-0.01484437,-0.00609959,-0.000
 35613,-0.00003608,-0.00002415,-0.00033756,0.00001407,-0.00001034,0.000
 03201,0.00001383,-0.00000184,-0.00002342,0.00003007,0.00003570,-0.0000
 3066,0.00012442,0.00002971,-0.00022051,-0.00066938,0.00005648,0.000350
 10,-0.00016004,-0.00020646,0.00014015,0.00005222,-0.00008284,-0.000043
 16,0.00003891,-0.00000167,0.00003055,-0.00001654,0.00002982,0.00007548
 ,-0.00002647,0.00013438,0.00050046,0.00072772,-0.00044449,-0.00349759,
 0.03312285,0.00864629,0.05371135,-0.00009376,0.00010124,0.00001974,-0.
 00009913,-0.00024628,-0.00001087,-0.00005846,-0.00010498,-0.00025817,-
 0.00003959,0.00024394,-0.00040982,0.00016304,0.00005454,0.00004920,-0.
 00011418,0.00024725,0.00007591,-0.00007739,-0.00012017,-0.00017703,-0.
 00047611,0.00149949,0.00337898,-0.00015342,0.00063672,0.00033546,0.000
 10430,0.00005106,0.00011248,-0.00015976,0.00044233,-0.00019787,0.00233
 176,-0.02251471,-0.00301267,0.02564630,-0.28084089,-0.06986136,0.00133
 254,-0.00257570,0.00012526,-0.00025422,0.00020274,-0.00012184,-0.00021
 479,-0.00008734,0.00000182,-0.00002890,0.00002527,-0.00002925,-0.00005
 821,0.00000778,-0.00001456,-0.00023262,0.00007320,0.00003368,-0.000276
 55,-0.00101062,0.00013077,-0.00008685,0.00020344,0.00000372,-0.0000066
 8,-0.00006862,-0.00001679,-0.00002079,0.00003100,-0.00003974,-0.000051
 41,-0.00003522,-0.00004544,-0.00032560,-0.00010816,0.00011676,0.000439
 87,0.00111400,0.00039989,0.00169702,-0.00554315,-0.00148507,-0.0279166
 6,0.30507336,0.00000589,-0.00012426,-0.00006213,-0.00003189,0.00036957
 ,0.00014397,0.00027713,-0.00043181,0.00003058,0.00059981,0.00016509,-0
 .00164596,0.00000516,0.00018927,0.00002405,0.00020144,-0.00024714,-0.0
 0008301,-0.00033924,0.00040493,0.00002608,0.00202242,0.00102151,-0.003
 22418,0.00034534,-0.00035325,-0.00049692,-0.00002559,-0.00001997,-0.00
 017334,-0.00000417,-0.00082155,0.00086442,-0.00347224,0.02845544,0.004
 23608,0.00799123,-0.06847486,-0.06421882,0.00208185,-0.02570611,-0.013
 08399,-0.00005866,0.00007435,0.00018433,-0.00042358,-0.00006117,-0.000
 03008,0.00002569,-0.00005190,0.00002247,-0.00001615,-0.00001461,0.0000
 6551,0.00024351,-0.00011643,-0.00000032,0.00014849,0.00086985,-0.00017
 035,-0.00022835,-0.00018909,0.00005868,-0.00011027,-0.00001174,0.00017
 574,-0.00009234,0.00009453,0.00023023,0.00000735,-0.00007638,0.0000925
 1,0.00001001,-0.00008401,0.00000473,-0.00056649,0.00024406,0.00116273,
 0.00067462,-0.00397743,-0.00114098,-0.00620317,0.07058151,0.08032393,0
 .00001454,0.00019001,-0.00010135,0.00011733,-0.00051614,-0.00013760,0.
 00086275,0.00019984,-0.00062622,0.00039178,-0.03128354,0.01019706,-0.0
 0472880,-0.00010854,0.00117067,-0.00010321,-0.00130976,-0.00034495,-0.
 00011111,0.00001023,-0.00014893,-0.00010426,-0.00013349,-0.00003119,-0
 .00010194,0.00005344,0.00012468,-0.00048808,0.00059845,0.00013739,0.00
 002248,-0.00012330,0.00015002,-0.00184289,-0.00071239,-0.00064494,-0.0
 0108384,0.01149506,-0.00719413,-0.05238245,0.03415216,-0.01217595,-0.0
 0020795,0.00023427,0.00022305,0.00137678,-0.00060334,0.00023658,-0.000
 22009,-0.00069578,-0.00001598,-0.00023012,-0.00008443,0.00052770,0.000
 06219,0.00005434,0.00005781,0.00003975,0.00006860,0.00001581,0.0002457
 3,-0.00003784,0.00008255,0.00009507,0.00009557,-0.00000530,0.00019075,
 -0.00007189,-0.00031371,0.00025002,0.00004013,-0.00008606,0.00006100,0
 .00003030,0.00001527,0.00026489,0.00026662,-0.00046584,-0.00067338,-0.
 00015524,-0.00057387,0.00133508,-0.00007112,-0.00020091,0.05961913,-0.
 00022092,0.00012055,-0.00008987,0.00012902,-0.00032919,0.00014187,0.00
 012903,0.00008364,-0.00020586,0.00114043,-0.01406166,0.00433474,-0.002
 24960,0.00065224,0.00029674,-0.00013959,-0.00046129,-0.00027997,-0.000
 00575,0.00002797,-0.00009000,0.00004533,0.00000951,-0.00031211,-0.0000
 0437,0.00004149,-0.00017332,-0.00034486,0.00040070,-0.00003546,0.00014
 085,-0.00010604,-0.00000131,-0.00035176,0.00080459,-0.00076368,-0.0008
 1634,0.00443616,-0.00482572,0.03257623,-0.25921840,0.09707123,-0.00030
 018,0.00006787,0.00027859,-0.00030966,0.00092109,-0.00068891,-0.000250
 37,-0.00054972,0.00001475,-0.00015078,0.00005318,0.00026205,0.00000742
 ,0.00002169,0.00005937,0.00001613,0.00005979,0.00006586,-0.00009275,0.
 00000321,-0.00000352,-0.00002553,-0.00005153,0.00008541,-0.00004634,0.
 00024556,0.00021291,-0.00006882,-0.00010479,0.00008105,-0.00001791,0.0
 0002805,0.00002722,-0.00001202,-0.00004565,-0.00012284,-0.00038030,0.0
 0004895,0.00038811,-0.00035053,0.00241252,-0.00059956,-0.03103839,0.28
 107698,0.00003917,0.00002369,-0.00001031,0.00010679,-0.00014970,0.0000
 9082,-0.00024318,0.00041725,0.00004100,-0.00069429,0.00185331,-0.00123
 380,0.00025373,-0.00110733,0.00092826,-0.00010629,-0.00013083,-0.00001
 656,-0.00002481,-0.00011898,0.00002112,-0.00004018,-0.00040100,0.00001
 640,0.00003894,0.00000216,-0.00013693,-0.00011886,-0.00019271,-0.00024
 383,-0.00047744,-0.00010748,0.00003463,-0.00362340,-0.00150476,-0.0031
 3091,-0.00441198,0.02499547,-0.01619783,-0.01216921,0.09711314,-0.0915
 9619,0.00026816,-0.00012011,-0.00007635,-0.00028158,-0.00118320,0.0011
 6607,-0.00000454,0.00015234,-0.00007132,-0.00000559,-0.00001088,0.0000
 7091,0.00003536,0.00001333,-0.00000085,-0.00001767,0.00009718,0.000059
 23,-0.00006541,-0.00005066,-0.00006213,-0.00003763,0.00001712,0.000085
 72,-0.00008593,0.00016814,0.00029495,-0.00009886,-0.00005123,0.0001213
 5,0.00011575,0.00002581,-0.00001581,0.00063586,0.00065551,-0.00125420,
 -0.00081658,0.00008377,-0.00135092,0.00034466,0.00037895,0.00072577,0.
 01900763,-0.10169994,0.10241613,-0.00092775,-0.00099514,-0.00039111,0.
 00013929,0.00276915,0.00152842,-0.00486798,-0.00398271,-0.00099289,-0.
 01914930,0.01339444,0.01947129,0.00097924,0.00142949,0.00046374,0.0003
 2250,-0.00021049,-0.00031958,-0.00010902,0.00009709,-0.00006177,-0.000
 14783,0.00004463,0.00004933,0.00024008,0.00020551,0.00017190,0.0000186
 6,0.00008045,0.00062412,0.00017695,0.00022824,-0.00089710,-0.00045988,
 -0.00054811,-0.00032801,0.00770353,-0.00943696,-0.01160525,-0.13791991
 ,0.08064582,0.09621360,-0.00002410,0.00011378,0.00003006,-0.00003651,0
 .00003027,-0.00055488,-0.00005045,-0.00001105,-0.00005383,0.00006009,-
 0.00012943,-0.00002899,0.00004391,-0.00006963,0.00000088,0.00005317,-0
 .00001752,-0.00004349,0.00002803,0.00001287,-0.00009725,-0.00001252,0.
 00004935,-0.00006232,0.00099125,-0.00034456,-0.00076286,0.00033003,0.0
 0020746,-0.00037545,0.00009768,-0.00002107,0.00007945,0.00014370,0.000
 20396,-0.00016569,0.00178837,-0.00028687,-0.00050233,-0.00056857,-0.00
 089863,-0.00286690,-0.00267113,0.00299233,0.00247739,0.15382846,-0.000
 30954,-0.00046032,-0.00024047,-0.00021962,0.00137942,0.00076905,-0.003
 34480,-0.00169758,0.00076733,-0.01010303,0.00875966,0.01086600,0.00034
 275,-0.00028430,0.00060357,0.00030299,0.00013305,-0.00014612,-0.000063
 51,0.00005747,-0.00001203,0.00007469,0.00011918,0.00000798,0.00009654,
 -0.00021031,0.00016685,-0.00059120,-0.00188718,0.00049325,0.00016547,0
 .00005005,-0.00042288,-0.00027305,-0.00036576,0.00037084,-0.00012724,-
 0.00179459,-0.00125152,0.08107723,-0.11841936,-0.08325322,-0.00019509,
 0.00000889,0.00012405,0.00049310,0.00007354,-0.00027386,0.00001490,0.0
 0016725,-0.00000424,0.00003835,0.00002705,-0.00007497,0.00002105,-0.00
 001225,-0.00001450,0.00001912,0.00000387,-0.00005115,0.00001177,-0.000
 05304,0.00000960,-0.00009454,-0.00003165,-0.00010580,-0.00007732,-0.00
 230276,-0.00009778,-0.00014420,0.00018356,-0.00015561,0.00004071,-0.00
 001381,0.00000839,0.00008725,0.00000435,0.00000714,-0.00047894,0.00118
 750,-0.00029179,-0.00066738,0.00083598,-0.00110884,0.01945618,-0.01658
 745,-0.01916836,-0.08555267,0.13112954,0.00010427,0.00023120,0.0000086
 6,-0.00000853,-0.00073713,-0.00007283,0.00054491,0.00048704,0.00056586
 ,0.00265621,0.00017710,-0.00108017,0.00052350,-0.00095788,0.00048682,-
 0.00016106,0.00022490,0.00003453,0.00001768,-0.00001554,0.00002987,0.0
 0013409,-0.00012355,-0.00020366,0.00016515,0.00041975,-0.00061972,0.00
 018681,-0.00048309,-0.00027165,-0.00024947,-0.00019572,0.00028754,-0.0
 0111833,-0.00131322,-0.00105215,0.01475327,-0.01599128,-0.01734327,0.0
 9427103,-0.08183019,-0.14851651,0.00010088,0.00000367,-0.00010068,0.00
 057918,0.00024265,-0.00014657,-0.00009595,0.00014291,-0.00008091,-0.00
 000124,0.00004658,0.00003910,-0.00000985,0.00004769,0.00001662,-0.0000
 2978,0.00012852,0.00008115,-0.00042777,0.00005099,-0.00021762,-0.00021
 226,-0.00008813,0.00018606,-0.00021528,-0.00019995,0.00099710,-0.00032
 891,-0.00018225,0.00019626,-0.00001289,-0.00002736,0.00004556,0.000289
 79,0.00061279,-0.00055851,0.00012389,0.00034188,0.00174367,-0.00169954
 ,-0.00006365,-0.00404172,-0.00887929,0.00657217,0.00932555,-0.10100051
 ,0.09247910,0.16026164\\0.00000806,-0.00000983,0.00000308,0.00003127,0
 .00000316,0.00000197,-0.00003126,-0.00002916,0.00001162,0.00003044,-0.
 00004851,-0.00001925,-0.00000340,0.00001838,-0.00003221,-0.00005134,0.
 00003560,0.00000603,0.00000376,-0.00001272,0.00001108,-0.00000963,0.00
 002645,-0.00003011,-0.00000281,-0.00000428,0.00001300,-0.00000076,0.00
 000992,0.00004938,-0.00002661,-0.00002951,-0.00002662,0.00005937,0.000
 01300,0.00005676,-0.00000315,-0.00003138,-0.00000238,-0.00002682,0.000
 06306,-0.00004784,0.00000160,-0.00000287,-0.00000401,-0.00000369,-0.00
 000120,0.00000271,-0.00000199,0.00000288,0.00000177,0.00000453,0.00000
 361,-0.00001147,-0.00000114,-0.00001052,-0.00000243,0.00000680,0.00000
 451,-0.00000203,0.00001635,-0.00000431,0.00000934,-0.00000450,0.000003
 22,0.00000948,-0.00001030,0.00000435,-0.00000441,0.00000533,0.00000774
 ,0.00000269,0.00001220,0.00000019,0.00000226,-0.00000226,-0.00000821,0
 .00000324,-0.00000202,-0.00000150,0.00000538,0.00000862,0.00000320,0.0
 0000259,-0.00000950,-0.00000622,-0.00000027,0.00000286,0.00000095,-0.0
 0000935\\\@


 TIMES HAVE CHANGED. IN THE BIBLE WHEN AN ASS
 SPOKE IT WAS CONSIDERED A MIRACLE.
 Job cpu time:       0 days  0 hours  4 minutes 17.1 seconds.
 Elapsed time:       0 days  0 hours  4 minutes 26.4 seconds.
 File lengths (MBytes):  RWF=    206 Int=      0 D2E=      0 Chk=     16 Scr=      1
 Normal termination of Gaussian 16 at Sat Feb 24 02:23:40 2024.
