 Entering Gaussian System, Link 0=g16
 Input=/Volumes/SSD-PMU3/b3lyp_6-31gd_freq/QXEMLAZBERXSJZ-ALDSWXGRSA-N_calculating/gaussianinput0.gjf
 Output=/Volumes/SSD-PMU3/b3lyp_6-31gd_freq/QXEMLAZBERXSJZ-ALDSWXGRSA-N_calculating/gaussianinput0.log
 Initial command:
 /Applications/g16/l1.exe "/Users/macmini_m1_2022/PycharmProjects/sphere_model/sphere_model_lib/Gau-71989.inp" -scrdir="/Users/macmini_m1_2022/PycharmProjects/sphere_model/sphere_model_lib/"
 Entering Link 1 = /Applications/g16/l1.exe PID=     71990.
  
 Copyright (c) 1988,1990,1992,1993,1995,1998,2003,2009,2016,
            Gaussian, Inc.  All Rights Reserved.
  
 This is part of the Gaussian(R) 16 program.  It is based on
 the Gaussian(R) 09 system (copyright 2009, Gaussian, Inc.),
 the Gaussian(R) 03 system (copyright 2003, Gaussian, Inc.),
 the Gaussian(R) 98 system (copyright 1998, Gaussian, Inc.),
 the Gaussian(R) 94 system (copyright 1995, Gaussian, Inc.),
 the Gaussian 92(TM) system (copyright 1992, Gaussian, Inc.),
 the Gaussian 90(TM) system (copyright 1990, Gaussian, Inc.),
 the Gaussian 88(TM) system (copyright 1988, Gaussian, Inc.),
 the Gaussian 86(TM) system (copyright 1986, Carnegie Mellon
 University), and the Gaussian 82(TM) system (copyright 1983,
 Carnegie Mellon University). Gaussian is a federally registered
 trademark of Gaussian, Inc.
  
 This software contains proprietary and confidential information,
 including trade secrets, belonging to Gaussian, Inc.
  
 This software is provided under written license and may be
 used, copied, transmitted, or stored only in accord with that
 written license.
  
 The following legend is applicable only to US Government
 contracts under FAR:
  
                    RESTRICTED RIGHTS LEGEND
  
 Use, reproduction and disclosure by the US Government is
 subject to restrictions as set forth in subparagraphs (a)
 and (c) of the Commercial Computer Software - Restricted
 Rights clause in FAR 52.227-19.
  
 Gaussian, Inc.
 340 Quinnipiac St., Bldg. 40, Wallingford CT 06492
  
  
 ---------------------------------------------------------------
 Warning -- This program may not be used in any manner that
 competes with the business of Gaussian, Inc. or will provide
 assistance to any competitor of Gaussian, Inc.  The licensee
 of this program is prohibited from giving any competitor of
 Gaussian, Inc. access to this program.  By using this program,
 the user acknowledges that Gaussian, Inc. is engaged in the
 business of creating and licensing software in the field of
 computational chemistry and represents and warrants to the
 licensee that it is not a competitor of Gaussian, Inc. and that
 it will not use this program in any manner prohibited above.
 ---------------------------------------------------------------
  

 Cite this work as:
 Gaussian 16, Revision A.03,
 M. J. Frisch, G. W. Trucks, H. B. Schlegel, G. E. Scuseria, 
 M. A. Robb, J. R. Cheeseman, G. Scalmani, V. Barone, 
 G. A. Petersson, H. Nakatsuji, X. Li, M. Caricato, A. V. Marenich, 
 J. Bloino, B. G. Janesko, R. Gomperts, B. Mennucci, H. P. Hratchian, 
 J. V. Ortiz, A. F. Izmaylov, J. L. Sonnenberg, D. Williams-Young, 
 F. Ding, F. Lipparini, F. Egidi, J. Goings, B. Peng, A. Petrone, 
 T. Henderson, D. Ranasinghe, V. G. Zakrzewski, J. Gao, N. Rega, 
 G. Zheng, W. Liang, M. Hada, M. Ehara, K. Toyota, R. Fukuda, 
 J. Hasegawa, M. Ishida, T. Nakajima, Y. Honda, O. Kitao, H. Nakai, 
 T. Vreven, K. Throssell, J. A. Montgomery, Jr., J. E. Peralta, 
 F. Ogliaro, M. J. Bearpark, J. J. Heyd, E. N. Brothers, K. N. Kudin, 
 V. N. Staroverov, T. A. Keith, R. Kobayashi, J. Normand, 
 K. Raghavachari, A. P. Rendell, J. C. Burant, S. S. Iyengar, 
 J. Tomasi, M. Cossi, J. M. Millam, M. Klene, C. Adamo, R. Cammi, 
 J. W. Ochterski, R. L. Martin, K. Morokuma, O. Farkas, 
 J. B. Foresman, and D. J. Fox, Gaussian, Inc., Wallingford CT, 2016.
 
 ******************************************
 Gaussian 16:  EM64M-G16RevA.03 25-Dec-2016
                23-Feb-2024 
 ******************************************
 %nprocshared=10
 Will use up to   10 processors via shared memory.
 %mem=12GB
 %chk= 0.chk
 ---------------------
 # freq b3lyp/6-31g(d)
 ---------------------
 1/10=4,30=1,38=1/1,3;
 2/12=2,17=6,18=5,40=1/2;
 3/5=1,6=6,7=1,11=2,25=1,30=1,71=2,74=-5,140=1/1,2,3;
 4//1;
 5/5=2,38=5,98=1/2;
 8/6=4,10=90,11=11/1;
 11/6=1,8=1,9=11,15=111,16=1/1,2,10;
 10/6=1/2;
 6/7=2,8=2,9=2,10=2,28=1/1;
 7/8=1,10=1,25=1/1,2,3,16;
 1/10=4,30=1/3;
 99//99;
 ---------
 good luck
 ---------
 Symbolic Z-matrix:
 Charge =  0 Multiplicity = 1
 C                    -3.18252   4.93358  -0.60551 
 C                    -2.30194   3.96602  -1.41836 
 C                    -2.22834   4.45479  -2.87631 
 C                    -2.77826   2.4994   -1.2158 
 C                    -3.88774   1.96791  -2.17441 
 C                    -3.74183   0.41443  -2.18929 
 C                    -2.64159   0.12356  -1.15011 
 C                    -1.90558  -1.22178  -1.18429 
 C                    -2.87981  -2.40908  -1.09632 
 C                    -2.16246  -3.75844  -0.97939 
 C                    -1.17742  -3.76291   0.19713 
 C                    -0.56417  -5.15104   0.45137 
 C                     0.29731  -5.16257   1.7222 
 C                     1.35882  -4.05478   1.68993 
 C                     0.74702  -2.67571   1.39121 
 C                    -0.0967   -2.63455   0.08512 
 C                     0.82507  -2.83115  -1.14122 
 C                    -0.86494  -1.27573  -0.01037 
 C                     0.        0.        0. 
 C                    -0.7719    1.32238  -0.01037 
 C                    -1.71199   1.36213  -1.23298 
 C                    -0.85468   1.38192  -2.51659 
 O                     1.21898   0.        0. 
 H                    -2.83962   5.96918  -0.71717 
 H                    -4.22651   4.8936   -0.94256 
 H                    -3.16739   4.68883   0.46314 
 H                    -1.28592   4.03056  -1.00017 
 H                    -1.65014   3.78818  -3.52202 
 H                    -1.75537   5.44338  -2.91369 
 H                    -3.22862   4.55892  -3.31344 
 H                    -3.1982    2.46271  -0.19937 
 H                    -3.76376   2.36836  -3.18461 
 H                    -4.88197   2.28046  -1.8379 
 H                    -3.44223   0.06079  -3.18369 
 H                    -4.68049  -0.09326  -1.94624 
 H                    -3.12576   0.18132  -0.16028 
 H                    -1.36346  -1.3049   -2.13584 
 H                    -3.54201  -2.40426  -1.97141 
 H                    -3.52679  -2.27016  -0.21605 
 H                    -1.63811  -3.98943  -1.91667 
 H                    -2.90229  -4.55826  -0.83969 
 H                    -1.76838  -3.5203    1.09808 
 H                     0.03729  -5.4651   -0.41281 
 H                    -1.37417  -5.88788   0.54069 
 H                    -0.35581  -5.00935   2.59443 
 H                     0.76962  -6.14441   1.8564 
 H                     2.11897  -4.29725   0.93531 
 H                     1.88969  -4.01346   2.64994 
 H                     0.09295  -2.39632   2.23257 
 H                     1.53632  -1.92188   1.34207 
 H                     0.27613  -2.78574  -2.08722 
 H                     1.33142  -3.80015  -1.11514 
 H                     1.59101  -2.05292  -1.15923 
 H                    -1.47123  -1.19354   0.90996 
 H                    -0.03862   2.13531  -0.00962 
 H                    -1.36898   1.39632   0.91054 
 H                    -0.23306   2.28297  -2.54504 
 H                    -1.46425   1.36629  -3.42545 
 H                    -0.16985   0.52919  -2.56418 
 

 GradGradGradGradGradGradGradGradGradGradGradGradGradGradGradGradGradGrad
 Berny optimization.
 Initialization pass.
 Trust Radius=3.00D-01 FncErr=1.00D-07 GrdErr=1.00D-07 EigMax=2.50D+02 EigMin=1.00D-04
 Number of steps in this run=      2 maximum allowed number of steps=      2.
 GradGradGradGradGradGradGradGradGradGradGradGradGradGradGradGradGradGrad

 Stoichiometry    C22H36O
 Framework group  C1[X(C22H36O)]
 Deg. of freedom   171
 Full point group                 C1      NOp   1
 Largest Abelian subgroup         C1      NOp   1
 Largest concise Abelian subgroup C1      NOp   1
                         Standard orientation:                         
 ---------------------------------------------------------------------
 Center     Atomic      Atomic             Coordinates (Angstroms)
 Number     Number       Type             X           Y           Z
 ---------------------------------------------------------------------
      1          6           0       -5.503954   -0.779295   -1.526969
      2          6           0       -4.581174   -0.770296   -0.293801
      3          6           0       -5.419835   -0.469619    0.961651
      4          6           0       -3.361123    0.163229   -0.536500
      5          6           0       -3.527004    1.669251   -0.166724
      6          6           0       -2.087462    2.216242    0.084956
      7          6           0       -1.162269    1.035913   -0.269857
      8          6           0        0.278698    1.019930    0.255646
      9          6           0        1.050719    2.286121   -0.153387
     10          6           0        2.533081    2.228155    0.231672
     11          6           0        3.202951    0.966623   -0.328986
     12          6           0        4.725814    0.956630   -0.109006
     13          6           0        5.388804   -0.237739   -0.809869
     14          6           0        4.733121   -1.563145   -0.399469
     15          6           0        3.205945   -1.533142   -0.578905
     16          6           0        2.511933   -0.352111    0.157952
     17          6           0        2.635348   -0.543244    1.687805
     18          6           0        1.010558   -0.264970   -0.271001
     19          6           0        0.151721   -1.517822   -0.009340
     20          6           0       -1.293376   -1.445391   -0.510424
     21          6           0       -1.993553   -0.217603    0.107970
     22          6           0       -2.102413   -0.425722    1.633699
     23          8           0        0.552608   -2.513530    0.568387
     24          1           0       -6.354170   -1.456060   -1.379907
     25          1           0       -5.909315    0.221914   -1.722895
     26          1           0       -4.968501   -1.104352   -2.426848
     27          1           0       -4.183500   -1.790738   -0.184711
     28          1           0       -4.818347   -0.406744    1.872627
     29          1           0       -6.163454   -1.261626    1.110597
     30          1           0       -5.969400    0.473647    0.858168
     31          1           0       -3.170883    0.125469   -1.619648
     32          1           0       -4.139626    1.791704    0.731019
     33          1           0       -4.037030    2.217290   -0.966070
     34          1           0       -1.960148    2.509629    1.134407
     35          1           0       -1.869347    3.103998   -0.516883
     36          1           0       -1.085754    1.020842   -1.370513
     37          1           0        0.255151    0.983518    1.353078
     38          1           0        0.574298    3.166238    0.296870
     39          1           0        0.968929    2.412253   -1.244326
     40          1           0        2.640705    2.263547    1.324358
     41          1           0        3.049043    3.117990   -0.153746
     42          1           0        3.052427    0.994869   -1.422765
     43          1           0        4.954692    0.935846    0.965414
     44          1           0        5.147481    1.896659   -0.490542
     45          1           0        5.289812   -0.109528   -1.898259
     46          1           0        6.465365   -0.258518   -0.596140
     47          1           0        4.981688   -1.786709    0.646627
     48          1           0        5.149567   -2.388720   -0.991194
     49          1           0        2.984296   -1.445743   -1.654542
     50          1           0        2.773886   -2.479147   -0.244142
     51          1           0        2.139105    0.254767    2.249272
     52          1           0        3.680148   -0.555104    2.010739
     53          1           0        2.182735   -1.492680    1.981629
     54          1           0        1.004771   -0.163572   -1.371469
     55          1           0       -1.782455   -2.390218   -0.252252
     56          1           0       -1.288558   -1.348232   -1.606132
     57          1           0       -2.715887   -1.305410    1.854850
     58          1           0       -2.552955    0.433270    2.140642
     59          1           0       -1.124798   -0.604072    2.092909
 ---------------------------------------------------------------------
 Rotational constants (GHZ):           0.6240365           0.1411747           0.1272153
 Standard basis: 6-31G(d) (6D, 7F)
 There are   417 symmetry adapted cartesian basis functions of A   symmetry.
 There are   417 symmetry adapted basis functions of A   symmetry.
   417 basis functions,   788 primitive gaussians,   417 cartesian basis functions
    88 alpha electrons       88 beta electrons
       nuclear repulsion energy      2169.8776415348 Hartrees.
 NAtoms=   59 NActive=   59 NUniq=   59 SFac= 1.00D+00 NAtFMM=   60 NAOKFM=F Big=F
 Integral buffers will be    131072 words long.
 Raffenetti 2 integral format.
 Two-electron integral symmetry is turned on.
 One-electron integrals computed using PRISM.
 NBasis=   417 RedAO= T EigKep=  1.59D-03  NBF=   417
 NBsUse=   417 1.00D-06 EigRej= -1.00D+00 NBFU=   417
 ExpMin= 1.61D-01 ExpMax= 5.48D+03 ExpMxC= 8.25D+02 IAcc=3 IRadAn=         5 AccDes= 0.00D+00
 Harris functional with IExCor=  402 and IRadAn=       5 diagonalized for initial guess.
 HarFok:  IExCor=  402 AccDes= 0.00D+00 IRadAn=         5 IDoV= 1 UseB2=F ITyADJ=14
 ICtDFT=  3500011 ScaDFX=  1.000000  1.000000  1.000000  1.000000
 FoFCou: FMM=F IPFlag=           0 FMFlag=      100000 FMFlg1=           0
         NFxFlg=           0 DoJE=T BraDBF=F KetDBF=T FulRan=T
         wScrn=  0.000000 ICntrl=       500 IOpCl=  0 I1Cent=   200000004 NGrid=           0
         NMat0=    1 NMatS0=      1 NMatT0=    0 NMatD0=    1 NMtDS0=    0 NMtDT0=    0
 Petite list used in FoFCou.
 Requested convergence on RMS density matrix=1.00D-08 within 128 cycles.
 Requested convergence on MAX density matrix=1.00D-06.
 Requested convergence on             energy=1.00D-06.
 No special actions if energy rises.
 Integral accuracy reduced to 1.0D-05 until final iterations.
 Initial convergence to 1.0D-05 achieved.  Increase integral accuracy.
 SCF Done:  E(RB3LYP) =  -935.271417548     A.U. after   13 cycles
            NFock= 13  Conv=0.94D-08     -V/T= 2.0099
 DoSCS=F DFT=T ScalE2(SS,OS)=  1.000000  1.000000
 Range of M.O.s used for correlation:     1   417
 NBasis=   417 NAE=    88 NBE=    88 NFC=     0 NFV=     0
 NROrb=    417 NOA=    88 NOB=    88 NVA=   329 NVB=   329
 Symmetrizing basis deriv contribution to polar:
 IMax=3 JMax=2 DiffMx= 0.00D+00
 G2DrvN: will do    60 centers at a time, making    1 passes.
 Calling FoFCou, ICntrl=  3107 FMM=F I1Cent=   0 AccDes= 0.00D+00.
 End of G2Drv F.D. properties file   721 does not exist.
 End of G2Drv F.D. properties file   722 does not exist.
 End of G2Drv F.D. properties file   788 does not exist.
          IDoAtm=11111111111111111111111111111111111111111111111111
          IDoAtm=111111111
          Differentiating once with respect to electric field.
                with respect to dipole field.
          Differentiating once with respect to nuclear coordinates.
 CalDSu exits because no D1Ps are significant.
          There are   180 degrees of freedom in the 1st order CPHF.  IDoFFX=6 NUNeed=     3.
    177 vectors produced by pass  0 Test12= 2.90D-14 1.00D-09 XBig12= 1.49D+02 2.02D+00.
 AX will form   177 AO Fock derivatives at one time.
    177 vectors produced by pass  1 Test12= 2.90D-14 1.00D-09 XBig12= 1.36D+01 6.32D-01.
    177 vectors produced by pass  2 Test12= 2.90D-14 1.00D-09 XBig12= 9.54D-02 1.77D-02.
    177 vectors produced by pass  3 Test12= 2.90D-14 1.00D-09 XBig12= 2.16D-04 1.05D-03.
    177 vectors produced by pass  4 Test12= 2.90D-14 1.00D-09 XBig12= 1.90D-07 3.03D-05.
     72 vectors produced by pass  5 Test12= 2.90D-14 1.00D-09 XBig12= 1.24D-10 7.62D-07.
      3 vectors produced by pass  6 Test12= 2.90D-14 1.00D-09 XBig12= 8.21D-14 2.10D-08.
 InvSVY:  IOpt=1 It=  1 EMax= 3.55D-15
 Solved reduced A of dimension   960 with   180 vectors.
 Isotropic polarizability for W=    0.000000      220.72 Bohr**3.
 End of Minotr F.D. properties file   721 does not exist.
 End of Minotr F.D. properties file   722 does not exist.
 End of Minotr F.D. properties file   788 does not exist.

 **********************************************************************

            Population analysis using the SCF density.

 **********************************************************************

 Orbital symmetries:
       Occupied  (A) (A) (A) (A) (A) (A) (A) (A) (A) (A) (A) (A)
                 (A) (A) (A) (A) (A) (A) (A) (A) (A) (A) (A) (A)
                 (A) (A) (A) (A) (A) (A) (A) (A) (A) (A) (A) (A)
                 (A) (A) (A) (A) (A) (A) (A) (A) (A) (A) (A) (A)
                 (A) (A) (A) (A) (A) (A) (A) (A) (A) (A) (A) (A)
                 (A) (A) (A) (A) (A) (A) (A) (A) (A) (A) (A) (A)
                 (A) (A) (A) (A) (A) (A) (A) (A) (A) (A) (A) (A)
                 (A) (A) (A) (A)
       Virtual   (A) (A) (A) (A) (A) (A) (A) (A) (A) (A) (A) (A)
                 (A) (A) (A) (A) (A) (A) (A) (A) (A) (A) (A) (A)
                 (A) (A) (A) (A) (A) (A) (A) (A) (A) (A) (A) (A)
                 (A) (A) (A) (A) (A) (A) (A) (A) (A) (A) (A) (A)
                 (A) (A) (A) (A) (A) (A) (A) (A) (A) (A) (A) (A)
                 (A) (A) (A) (A) (A) (A) (A) (A) (A) (A) (A) (A)
                 (A) (A) (A) (A) (A) (A) (A) (A) (A) (A) (A) (A)
                 (A) (A) (A) (A) (A) (A) (A) (A) (A) (A) (A) (A)
                 (A) (A) (A) (A) (A) (A) (A) (A) (A) (A) (A) (A)
                 (A) (A) (A) (A) (A) (A) (A) (A) (A) (A) (A) (A)
                 (A) (A) (A) (A) (A) (A) (A) (A) (A) (A) (A) (A)
                 (A) (A) (A) (A) (A) (A) (A) (A) (A) (A) (A) (A)
                 (A) (A) (A) (A) (A) (A) (A) (A) (A) (A) (A) (A)
                 (A) (A) (A) (A) (A) (A) (A) (A) (A) (A) (A) (A)
                 (A) (A) (A) (A) (A) (A) (A) (A) (A) (A) (A) (A)
                 (A) (A) (A) (A) (A) (A) (A) (A) (A) (A) (A) (A)
                 (A) (A) (A) (A) (A) (A) (A) (A) (A) (A) (A) (A)
                 (A) (A) (A) (A) (A) (A) (A) (A) (A) (A) (A) (A)
                 (A) (A) (A) (A) (A) (A) (A) (A) (A) (A) (A) (A)
                 (A) (A) (A) (A) (A) (A) (A) (A) (A) (A) (A) (A)
                 (A) (A) (A) (A) (A) (A) (A) (A) (A) (A) (A) (A)
                 (A) (A) (A) (A) (A) (A) (A) (A) (A) (A) (A) (A)
                 (A) (A) (A) (A) (A) (A) (A) (A) (A) (A) (A) (A)
                 (A) (A) (A) (A) (A) (A) (A) (A) (A) (A) (A) (A)
                 (A) (A) (A) (A) (A) (A) (A) (A) (A) (A) (A) (A)
                 (A) (A) (A) (A) (A) (A) (A) (A) (A) (A) (A) (A)
                 (A) (A) (A) (A) (A) (A) (A) (A) (A) (A) (A) (A)
                 (A) (A) (A) (A) (A)
 The electronic state is 1-A.
 Alpha  occ. eigenvalues --  -19.13397 -10.26881 -10.19761 -10.19230 -10.19204
 Alpha  occ. eigenvalues --  -10.19032 -10.18944 -10.18492 -10.18463 -10.18417
 Alpha  occ. eigenvalues --  -10.18101 -10.18008 -10.17953 -10.17826 -10.17507
 Alpha  occ. eigenvalues --  -10.17492 -10.17305 -10.17184 -10.17178 -10.17157
 Alpha  occ. eigenvalues --  -10.16937 -10.16401 -10.15906  -1.03287  -0.86708
 Alpha  occ. eigenvalues --   -0.84342  -0.80461  -0.78388  -0.77372  -0.75982
 Alpha  occ. eigenvalues --   -0.74365  -0.71537  -0.70223  -0.68496  -0.68127
 Alpha  occ. eigenvalues --   -0.67368  -0.66375  -0.62296  -0.60106  -0.59292
 Alpha  occ. eigenvalues --   -0.58995  -0.55582  -0.54600  -0.52565  -0.52144
 Alpha  occ. eigenvalues --   -0.51655  -0.48084  -0.46988  -0.46645  -0.46252
 Alpha  occ. eigenvalues --   -0.45464  -0.44812  -0.44151  -0.43454  -0.43330
 Alpha  occ. eigenvalues --   -0.42275  -0.41999  -0.41391  -0.40649  -0.40333
 Alpha  occ. eigenvalues --   -0.39004  -0.38798  -0.38684  -0.38473  -0.38285
 Alpha  occ. eigenvalues --   -0.37841  -0.36881  -0.36536  -0.36008  -0.35149
 Alpha  occ. eigenvalues --   -0.35043  -0.34474  -0.33868  -0.33635  -0.33554
 Alpha  occ. eigenvalues --   -0.32968  -0.32442  -0.32247  -0.31624  -0.31459
 Alpha  occ. eigenvalues --   -0.31108  -0.30525  -0.30268  -0.29989  -0.28999
 Alpha  occ. eigenvalues --   -0.28207  -0.27077  -0.22707
 Alpha virt. eigenvalues --   -0.01312   0.07232   0.08053   0.08483   0.09455
 Alpha virt. eigenvalues --    0.09800   0.10564   0.11021   0.11963   0.12406
 Alpha virt. eigenvalues --    0.12704   0.13622   0.14297   0.14427   0.14817
 Alpha virt. eigenvalues --    0.15205   0.15359   0.15732   0.15937   0.16520
 Alpha virt. eigenvalues --    0.16911   0.17118   0.17313   0.17654   0.18016
 Alpha virt. eigenvalues --    0.18484   0.18780   0.19184   0.19649   0.20143
 Alpha virt. eigenvalues --    0.20262   0.20496   0.21271   0.21511   0.22117
 Alpha virt. eigenvalues --    0.22455   0.22673   0.22983   0.23076   0.23578
 Alpha virt. eigenvalues --    0.23724   0.24141   0.24500   0.25290   0.25314
 Alpha virt. eigenvalues --    0.25748   0.25996   0.26401   0.27263   0.27951
 Alpha virt. eigenvalues --    0.28665   0.28943   0.29155   0.29363   0.30502
 Alpha virt. eigenvalues --    0.31597   0.31899   0.33052   0.33764   0.34136
 Alpha virt. eigenvalues --    0.36377   0.37711   0.40226   0.49098   0.49376
 Alpha virt. eigenvalues --    0.49971   0.50606   0.51164   0.52214   0.52701
 Alpha virt. eigenvalues --    0.54012   0.54431   0.54642   0.55817   0.55935
 Alpha virt. eigenvalues --    0.56468   0.57833   0.58784   0.59619   0.60516
 Alpha virt. eigenvalues --    0.60975   0.61313   0.61593   0.62904   0.63904
 Alpha virt. eigenvalues --    0.64474   0.65610   0.65861   0.66327   0.66611
 Alpha virt. eigenvalues --    0.68045   0.68138   0.68824   0.70004   0.70653
 Alpha virt. eigenvalues --    0.71264   0.72091   0.73316   0.73878   0.74318
 Alpha virt. eigenvalues --    0.75011   0.75853   0.77175   0.77647   0.78335
 Alpha virt. eigenvalues --    0.80622   0.80677   0.81050   0.82596   0.82906
 Alpha virt. eigenvalues --    0.83281   0.84197   0.84302   0.84629   0.85570
 Alpha virt. eigenvalues --    0.85757   0.86128   0.86379   0.87135   0.87764
 Alpha virt. eigenvalues --    0.88396   0.88577   0.88852   0.89219   0.89691
 Alpha virt. eigenvalues --    0.90005   0.90331   0.90990   0.91520   0.91801
 Alpha virt. eigenvalues --    0.92391   0.92877   0.93122   0.93553   0.94053
 Alpha virt. eigenvalues --    0.94557   0.95448   0.95583   0.96061   0.96462
 Alpha virt. eigenvalues --    0.96958   0.97180   0.97954   0.98277   0.98650
 Alpha virt. eigenvalues --    0.99178   0.99684   1.00399   1.00903   1.01111
 Alpha virt. eigenvalues --    1.01246   1.02069   1.03651   1.04177   1.04575
 Alpha virt. eigenvalues --    1.06112   1.07088   1.08229   1.09074   1.14390
 Alpha virt. eigenvalues --    1.15845   1.16539   1.17185   1.20105   1.20695
 Alpha virt. eigenvalues --    1.22344   1.22704   1.25831   1.27732   1.28616
 Alpha virt. eigenvalues --    1.29408   1.31312   1.33012   1.36269   1.37725
 Alpha virt. eigenvalues --    1.38341   1.41039   1.41703   1.42978   1.45233
 Alpha virt. eigenvalues --    1.48662   1.51335   1.53074   1.55058   1.55208
 Alpha virt. eigenvalues --    1.57497   1.59669   1.61125   1.61803   1.62585
 Alpha virt. eigenvalues --    1.64249   1.64532   1.65589   1.67086   1.69758
 Alpha virt. eigenvalues --    1.71509   1.72749   1.73062   1.74958   1.75291
 Alpha virt. eigenvalues --    1.76178   1.76783   1.77947   1.79427   1.80150
 Alpha virt. eigenvalues --    1.81030   1.82097   1.82414   1.83998   1.84884
 Alpha virt. eigenvalues --    1.85512   1.86588   1.87491   1.88797   1.88956
 Alpha virt. eigenvalues --    1.90850   1.91632   1.92258   1.93638   1.93964
 Alpha virt. eigenvalues --    1.95239   1.95571   1.96044   1.97066   1.97515
 Alpha virt. eigenvalues --    1.98067   1.99017   2.00025   2.01004   2.01540
 Alpha virt. eigenvalues --    2.02080   2.03017   2.04092   2.04885   2.05681
 Alpha virt. eigenvalues --    2.06686   2.06906   2.07861   2.09280   2.10314
 Alpha virt. eigenvalues --    2.10778   2.12070   2.13104   2.14627   2.15200
 Alpha virt. eigenvalues --    2.16838   2.17140   2.17712   2.18903   2.21409
 Alpha virt. eigenvalues --    2.21899   2.23046   2.24077   2.25537   2.25815
 Alpha virt. eigenvalues --    2.27998   2.28339   2.29249   2.30127   2.31575
 Alpha virt. eigenvalues --    2.32587   2.32727   2.33763   2.35722   2.38255
 Alpha virt. eigenvalues --    2.39692   2.39897   2.40346   2.41500   2.42724
 Alpha virt. eigenvalues --    2.44082   2.45381   2.46845   2.47278   2.49156
 Alpha virt. eigenvalues --    2.51775   2.52521   2.54131   2.55088   2.55320
 Alpha virt. eigenvalues --    2.56240   2.60398   2.61111   2.61424   2.63548
 Alpha virt. eigenvalues --    2.64381   2.65259   2.66060   2.68903   2.71054
 Alpha virt. eigenvalues --    2.73012   2.74164   2.75796   2.77822   2.78816
 Alpha virt. eigenvalues --    2.80602   2.82832   2.83892   2.85561   2.88054
 Alpha virt. eigenvalues --    2.90663   2.92307   2.95397   2.99769   3.04661
 Alpha virt. eigenvalues --    3.07590   4.09135   4.12554   4.14509   4.21494
 Alpha virt. eigenvalues --    4.23956   4.24398   4.26726   4.29003   4.30679
 Alpha virt. eigenvalues --    4.32052   4.35520   4.39909   4.45374   4.47897
 Alpha virt. eigenvalues --    4.54749   4.56750   4.58968   4.65636   4.67010
 Alpha virt. eigenvalues --    4.71094   4.76741   4.82192   4.82837
          Condensed to atoms (all electrons):
 Mulliken charges:
               1
     1  C   -0.450829
     2  C   -0.079188
     3  C   -0.454846
     4  C   -0.077448
     5  C   -0.295130
     6  C   -0.290948
     7  C   -0.090914
     8  C   -0.104686
     9  C   -0.269214
    10  C   -0.270824
    11  C   -0.085388
    12  C   -0.266320
    13  C   -0.258189
    14  C   -0.267141
    15  C   -0.285189
    16  C    0.115583
    17  C   -0.493557
    18  C   -0.204180
    19  C    0.451974
    20  C   -0.346630
    21  C    0.059700
    22  C   -0.479857
    23  O   -0.460366
    24  H    0.140827
    25  H    0.141998
    26  H    0.139874
    27  H    0.127295
    28  H    0.147999
    29  H    0.140496
    30  H    0.142779
    31  H    0.113174
    32  H    0.142822
    33  H    0.136496
    34  H    0.135922
    35  H    0.138136
    36  H    0.111214
    37  H    0.130646
    38  H    0.136203
    39  H    0.123004
    40  H    0.132038
    41  H    0.127094
    42  H    0.104917
    43  H    0.130252
    44  H    0.124503
    45  H    0.124109
    46  H    0.126928
    47  H    0.133668
    48  H    0.128991
    49  H    0.110798
    50  H    0.165699
    51  H    0.135446
    52  H    0.142169
    53  H    0.177939
    54  H    0.130181
    55  H    0.155663
    56  H    0.142800
    57  H    0.155860
    58  H    0.148109
    59  H    0.157534
 Sum of Mulliken charges =  -0.00000
 Mulliken charges with hydrogens summed into heavy atoms:
               1
     1  C   -0.028128
     2  C    0.048107
     3  C   -0.023571
     4  C    0.035726
     5  C   -0.015812
     6  C   -0.016889
     7  C    0.020300
     8  C    0.025960
     9  C   -0.010006
    10  C   -0.011691
    11  C    0.019529
    12  C   -0.011565
    13  C   -0.007152
    14  C   -0.004483
    15  C   -0.008692
    16  C    0.115583
    17  C   -0.038003
    18  C   -0.073999
    19  C    0.451974
    20  C   -0.048166
    21  C    0.059700
    22  C   -0.018353
    23  O   -0.460366
 APT charges:
               1
     1  C    0.073033
     2  C    0.135830
     3  C    0.042572
     4  C    0.079109
     5  C    0.060403
     6  C    0.080432
     7  C    0.060749
     8  C    0.080797
     9  C    0.100770
    10  C    0.104527
    11  C    0.059072
    12  C    0.105666
    13  C    0.118726
    14  C    0.123581
    15  C    0.047992
    16  C    0.097296
    17  C   -0.018813
    18  C   -0.094483
    19  C    0.738065
    20  C   -0.109101
    21  C    0.085623
    22  C    0.011203
    23  O   -0.660664
    24  H   -0.043459
    25  H   -0.021520
    26  H   -0.028125
    27  H   -0.069358
    28  H   -0.011368
    29  H   -0.035699
    30  H   -0.018637
    31  H   -0.067541
    32  H   -0.032875
    33  H   -0.048983
    34  H   -0.040024
    35  H   -0.045016
    36  H   -0.060875
    37  H   -0.038528
    38  H   -0.055000
    39  H   -0.045056
    40  H   -0.037934
    41  H   -0.069681
    42  H   -0.066390
    43  H   -0.041706
    44  H   -0.066175
    45  H   -0.051270
    46  H   -0.072648
    47  H   -0.043336
    48  H   -0.070205
    49  H   -0.052641
    50  H    0.006344
    51  H   -0.016311
    52  H   -0.017299
    53  H    0.036768
    54  H   -0.025949
    55  H   -0.029222
    56  H   -0.009277
    57  H   -0.012501
    58  H   -0.005364
    59  H   -0.015521
 Sum of APT charges =   0.00000
 APT charges with hydrogens summed into heavy atoms:
               1
     1  C   -0.020071
     2  C    0.066472
     3  C   -0.023132
     4  C    0.011568
     5  C   -0.021455
     6  C   -0.004609
     7  C   -0.000127
     8  C    0.042269
     9  C    0.000714
    10  C   -0.003089
    11  C   -0.007318
    12  C   -0.002214
    13  C   -0.005192
    14  C    0.010039
    15  C    0.001695
    16  C    0.097296
    17  C   -0.015655
    18  C   -0.120432
    19  C    0.738065
    20  C   -0.147600
    21  C    0.085623
    22  C   -0.022182
    23  O   -0.660664
 Electronic spatial extent (au):  <R**2>=           9026.2612
 Charge=             -0.0000 electrons
 Dipole moment (field-independent basis, Debye):
    X=             -1.1710    Y=              2.1917    Z=             -0.9508  Tot=              2.6606
 Quadrupole moment (field-independent basis, Debye-Ang):
   XX=           -143.1963   YY=           -151.4666   ZZ=           -143.7585
   XY=              2.2869   XZ=             -0.5543   YZ=              2.5145
 Traceless Quadrupole moment (field-independent basis, Debye-Ang):
   XX=              2.9442   YY=             -5.3262   ZZ=              2.3819
   XY=              2.2869   XZ=             -0.5543   YZ=              2.5145
 Octapole moment (field-independent basis, Debye-Ang**2):
  XXX=             -3.4567  YYY=             12.0602  ZZZ=              0.6542  XYY=             -8.4970
  XXY=             -7.1259  XXZ=              4.6448  XZZ=              1.1760  YZZ=             -0.9944
  YYZ=             -6.5373  XYZ=              1.4535
 Hexadecapole moment (field-independent basis, Debye-Ang**3):
 XXXX=          -9840.2596 YYYY=          -1889.2994 ZZZZ=           -830.2503 XXXY=              1.6813
 XXXZ=              8.1094 YYYX=             14.3518 YYYZ=              7.8506 ZZZX=             -2.0509
 ZZZY=             -1.5423 XXYY=          -1923.6055 XXZZ=          -1788.0305 YYZZ=           -441.3771
 XXYZ=            -11.9798 YYXZ=             -6.5163 ZZXY=             -6.5043
 N-N= 2.169877641535D+03 E-N=-6.505067722219D+03  KE= 9.261019246595D+02
  Exact polarizability: 271.873  -0.534 208.267   0.231  -1.761 182.006
 Approx polarizability: 313.494  -4.701 317.512   3.560  -9.068 307.824
 Calling FoFJK, ICntrl=    100127 FMM=F ISym2X=0 I1Cent= 0 IOpClX= 0 NMat=1 NMatS=1 NMatT=0.
 Full mass-weighted force constant matrix:
 Low frequencies ---   -3.7084   -0.0007    0.0005    0.0009    2.1231    6.4589
 Low frequencies ---   39.1026   51.1252   70.5979
 Diagonal vibrational polarizability:
       10.8718441       5.2059896      10.3852216
 Harmonic frequencies (cm**-1), IR intensities (KM/Mole), Raman scattering
 activities (A**4/AMU), depolarization ratios for plane and unpolarized
 incident light, reduced masses (AMU), force constants (mDyne/A),
 and normal coordinates:
                      1                      2                      3
                      A                      A                      A
 Frequencies --     39.0950                51.1250                70.5959
 Red. masses --      4.1418                 2.6226                 3.2019
 Frc consts  --      0.0037                 0.0040                 0.0094
 IR Inten    --      0.1680                 0.1156                 0.0438
  Atom  AN      X      Y      Z        X      Y      Z        X      Y      Z
     1   6     0.10  -0.01  -0.16    -0.08   0.24  -0.03     0.12  -0.14  -0.06
     2   6     0.02  -0.00  -0.10    -0.01  -0.01  -0.08     0.04  -0.03  -0.00
     3   6    -0.07  -0.00  -0.15     0.06  -0.19   0.01    -0.04  -0.05  -0.06
     4   6     0.03   0.00  -0.02     0.01  -0.01  -0.00    -0.00   0.05   0.05
     5   6     0.01  -0.00  -0.01    -0.01  -0.02   0.04    -0.02   0.01   0.20
     6   6    -0.00  -0.00   0.05    -0.01  -0.02   0.03    -0.01   0.03   0.13
     7   6     0.01  -0.00   0.08    -0.00  -0.01   0.01    -0.01   0.06   0.03
     8   6     0.00  -0.00   0.10     0.00   0.00  -0.01     0.01   0.04  -0.02
     9   6    -0.00   0.00   0.10    -0.01  -0.00  -0.05     0.02   0.02  -0.06
    10   6     0.02  -0.01   0.03     0.00   0.01  -0.07     0.03   0.02  -0.10
    11   6    -0.02  -0.00  -0.03    -0.00  -0.01  -0.04     0.01  -0.02  -0.05
    12   6    -0.00  -0.00  -0.14    -0.00   0.00  -0.04     0.01  -0.04  -0.03
    13   6    -0.06  -0.01  -0.18    -0.00  -0.02   0.00    -0.00  -0.09   0.03
    14   6    -0.02  -0.00  -0.12     0.00  -0.01   0.05    -0.03  -0.05   0.08
    15   6    -0.03  -0.01  -0.02     0.00  -0.02   0.05    -0.03  -0.03   0.05
    16   6     0.01   0.00   0.01     0.00   0.01   0.01    -0.02   0.01  -0.01
    17   6     0.09   0.01   0.01     0.00   0.06   0.02    -0.04   0.07   0.00
    18   6    -0.00  -0.00   0.08     0.00  -0.00   0.01    -0.01   0.03  -0.03
    19   6     0.00   0.01   0.13     0.00   0.00   0.02    -0.02   0.04  -0.05
    20   6     0.01  -0.01   0.09     0.01  -0.01  -0.00    -0.00   0.06  -0.08
    21   6    -0.01  -0.00   0.05     0.00  -0.02   0.00     0.01   0.03  -0.01
    22   6    -0.08   0.01   0.05     0.01  -0.03  -0.00     0.03  -0.04  -0.01
    23   8    -0.01   0.04   0.19    -0.01   0.02   0.06    -0.05   0.04  -0.03
    24   1     0.09  -0.01  -0.22    -0.09   0.24  -0.10     0.17  -0.20  -0.09
    25   1     0.11  -0.01  -0.19    -0.06   0.29   0.17     0.06  -0.18  -0.13
    26   1     0.17  -0.01  -0.12    -0.14   0.38  -0.12     0.21  -0.14  -0.01
    27   1     0.01  -0.00  -0.07    -0.03  -0.04  -0.28     0.11   0.00   0.05
    28   1    -0.13  -0.01  -0.11     0.11  -0.37  -0.00    -0.09  -0.01  -0.03
    29   1    -0.08  -0.00  -0.20     0.04  -0.19  -0.09    -0.01  -0.09  -0.08
    30   1    -0.06  -0.00  -0.19     0.09  -0.15   0.20    -0.08  -0.08  -0.10
    31   1     0.09   0.01  -0.01     0.03   0.03  -0.00    -0.02   0.16   0.04
    32   1    -0.03  -0.01  -0.04     0.01  -0.06   0.06     0.05  -0.09   0.26
    33   1     0.04   0.00  -0.03    -0.03  -0.01   0.07    -0.11   0.07   0.29
    34   1    -0.04  -0.01   0.06     0.01  -0.03   0.03     0.04  -0.01   0.14
    35   1     0.02   0.00   0.07    -0.02  -0.01   0.04    -0.07   0.05   0.15
    36   1     0.03  -0.00   0.08    -0.02   0.00   0.01    -0.05   0.11   0.03
    37   1     0.00  -0.02   0.10     0.02   0.03  -0.01     0.04   0.05  -0.02
    38   1     0.02  -0.01   0.15    -0.00   0.01  -0.07     0.04   0.04  -0.08
    39   1    -0.05   0.03   0.11    -0.02  -0.03  -0.06    -0.01  -0.01  -0.07
    40   1     0.08  -0.03   0.02     0.02   0.05  -0.08     0.06   0.07  -0.10
    41   1    -0.00  -0.00   0.02    -0.01  -0.00  -0.11     0.03  -0.01  -0.15
    42   1    -0.09   0.01  -0.02    -0.00  -0.04  -0.04     0.02  -0.06  -0.05
    43   1     0.08  -0.00  -0.15     0.00   0.04  -0.04    -0.01   0.00  -0.03
    44   1    -0.03  -0.00  -0.17    -0.00  -0.01  -0.08     0.04  -0.07  -0.07
    45   1    -0.14  -0.01  -0.18    -0.00  -0.06  -0.00     0.02  -0.13   0.03
    46   1    -0.04  -0.00  -0.27     0.00  -0.01   0.00    -0.01  -0.10   0.05
    47   1     0.05   0.01  -0.14     0.01   0.03   0.06    -0.06  -0.02   0.09
    48   1    -0.06  -0.01  -0.14     0.00  -0.03   0.09    -0.04  -0.09   0.12
    49   1    -0.10  -0.02  -0.01     0.00  -0.06   0.05    -0.01  -0.07   0.05
    50   1    -0.01  -0.00   0.02     0.00  -0.00   0.09    -0.06  -0.01   0.09
    51   1     0.10  -0.00   0.03     0.02   0.09  -0.01     0.01   0.12  -0.03
    52   1     0.11   0.04  -0.05     0.00   0.06   0.02    -0.04   0.01   0.01
    53   1     0.13  -0.00   0.03    -0.01   0.08   0.05    -0.10   0.11   0.04
    54   1    -0.05  -0.00   0.08     0.00  -0.02   0.00     0.00   0.04  -0.02
    55   1     0.01  -0.01   0.11     0.01  -0.01  -0.02    -0.01   0.05  -0.14
    56   1     0.04  -0.04   0.09     0.03   0.00  -0.00     0.01   0.13  -0.07
    57   1    -0.09   0.01   0.03     0.08  -0.07  -0.00     0.03  -0.05  -0.05
    58   1    -0.10   0.01   0.02    -0.04  -0.06   0.00     0.04  -0.06   0.03
    59   1    -0.10   0.02   0.10     0.03   0.04  -0.00     0.04  -0.06  -0.03
                      4                      5                      6
                      A                      A                      A
 Frequencies --     97.7334               102.6463               121.7490
 Red. masses --      3.9320                 2.7243                 4.1470
 Frc consts  --      0.0221                 0.0169                 0.0362
 IR Inten    --      0.6038                 0.1415                 1.7398
  Atom  AN      X      Y      Z        X      Y      Z        X      Y      Z
     1   6    -0.03  -0.10   0.08     0.06  -0.00  -0.05    -0.03   0.03   0.00
     2   6     0.07  -0.06   0.01     0.02  -0.03  -0.02    -0.05   0.03   0.01
     3   6     0.15  -0.14   0.08    -0.01  -0.12  -0.03    -0.06   0.10  -0.01
     4   6     0.01  -0.00  -0.06    -0.00   0.01   0.05    -0.01  -0.02   0.00
     5   6    -0.02   0.01  -0.10    -0.03  -0.00   0.08     0.01  -0.02   0.04
     6   6    -0.04   0.04  -0.04    -0.01   0.04  -0.10     0.01  -0.05   0.11
     7   6     0.01   0.07  -0.04    -0.01   0.01  -0.03    -0.01  -0.03   0.01
     8   6    -0.00   0.06   0.01    -0.00   0.03  -0.04     0.01  -0.03  -0.04
     9   6     0.04   0.05   0.07     0.02   0.00  -0.07    -0.01  -0.03  -0.08
    10   6     0.04  -0.01   0.10    -0.01  -0.00   0.01    -0.02   0.00  -0.06
    11   6     0.01  -0.00   0.05     0.01  -0.00   0.02     0.02   0.01  -0.03
    12   6     0.02  -0.07   0.03     0.00  -0.03   0.10     0.01   0.02   0.10
    13   6    -0.04  -0.07  -0.03     0.02   0.00   0.07     0.09   0.04   0.14
    14   6    -0.08  -0.06  -0.06    -0.03  -0.02  -0.07     0.02   0.01  -0.04
    15   6    -0.08   0.00  -0.03    -0.02   0.03  -0.11     0.03   0.04  -0.14
    16   6    -0.02   0.01   0.01    -0.01  -0.01  -0.04     0.02  -0.00  -0.08
    17   6    -0.01  -0.04   0.01    -0.00  -0.08  -0.05     0.05  -0.06  -0.09
    18   6    -0.01   0.05   0.01    -0.02   0.00  -0.01     0.01  -0.02  -0.06
    19   6    -0.02   0.07   0.01    -0.01   0.01   0.04    -0.00   0.01   0.03
    20   6     0.03   0.06  -0.11    -0.04  -0.00   0.12     0.02  -0.02  -0.06
    21   6     0.02   0.04  -0.08    -0.00   0.04   0.06    -0.01  -0.05  -0.02
    22   6     0.04   0.01  -0.08     0.02   0.15   0.08    -0.02  -0.11  -0.03
    23   8    -0.09   0.12   0.14     0.03  -0.00  -0.00    -0.07   0.12   0.26
    24   1     0.04  -0.18   0.14     0.08  -0.05  -0.12    -0.07   0.08   0.02
    25   1    -0.13  -0.13   0.15     0.02  -0.01  -0.01     0.03   0.04  -0.04
    26   1    -0.08  -0.03   0.03     0.10   0.07  -0.05    -0.04  -0.04   0.02
    27   1     0.14  -0.04  -0.04     0.05  -0.03  -0.06    -0.09   0.01   0.05
    28   1     0.21  -0.12   0.04    -0.04  -0.19  -0.01    -0.07   0.12  -0.00
    29   1     0.21  -0.19   0.12    -0.02  -0.13  -0.11    -0.08   0.12   0.02
    30   1     0.08  -0.17   0.14    -0.01  -0.11   0.03    -0.04   0.10  -0.06
    31   1    -0.02  -0.03  -0.07     0.03   0.05   0.05    -0.04  -0.00  -0.00
    32   1    -0.07   0.02  -0.13     0.09  -0.05   0.17    -0.02  -0.02   0.01
    33   1     0.01  -0.02  -0.13    -0.16  -0.01   0.16     0.06   0.01   0.03
    34   1    -0.08   0.01  -0.03     0.07   0.18  -0.15     0.00  -0.15   0.13
    35   1    -0.04   0.06  -0.02    -0.07  -0.03  -0.23     0.02   0.00   0.19
    36   1     0.04   0.09  -0.04    -0.01  -0.06  -0.03    -0.05   0.02   0.01
    37   1    -0.04   0.04   0.01     0.01   0.06  -0.04     0.05  -0.03  -0.04
    38   1     0.06   0.05   0.09     0.00   0.03  -0.13    -0.03  -0.02  -0.12
    39   1     0.08   0.10   0.07     0.07  -0.04  -0.08    -0.01  -0.07  -0.09
    40   1     0.02  -0.06   0.10    -0.07  -0.02   0.02    -0.05   0.01  -0.05
    41   1     0.07  -0.00   0.15     0.02  -0.00   0.05    -0.03   0.01  -0.05
    42   1     0.00   0.04   0.05     0.06   0.02   0.02     0.10   0.03  -0.04
    43   1     0.04  -0.12   0.02    -0.05  -0.08   0.11    -0.09   0.02   0.12
    44   1     0.05  -0.07   0.05     0.03  -0.01   0.17     0.04   0.03   0.14
    45   1    -0.07  -0.03  -0.03     0.10   0.08   0.07     0.25   0.10   0.13
    46   1    -0.04  -0.11  -0.06     0.01  -0.03   0.14     0.05   0.01   0.29
    47   1    -0.07  -0.11  -0.08    -0.07  -0.12  -0.08    -0.06  -0.11  -0.04
    48   1    -0.12  -0.06  -0.10    -0.03   0.03  -0.13     0.06   0.06  -0.09
    49   1    -0.10   0.04  -0.03     0.01   0.12  -0.11     0.10   0.14  -0.15
    50   1    -0.11   0.01  -0.05    -0.05   0.01  -0.20    -0.00   0.02  -0.25
    51   1    -0.03  -0.06   0.03    -0.02  -0.12  -0.01     0.00  -0.10  -0.06
    52   1    -0.01  -0.02   0.00    -0.00  -0.08  -0.05     0.05  -0.00  -0.10
    53   1     0.01  -0.05  -0.02     0.02  -0.11  -0.09     0.10  -0.09  -0.12
    54   1     0.00   0.06   0.01    -0.04  -0.03  -0.02    -0.02  -0.03  -0.06
    55   1     0.01   0.06  -0.17    -0.03   0.02   0.21     0.03  -0.04  -0.11
    56   1     0.09   0.12  -0.10    -0.09  -0.09   0.11     0.06   0.03  -0.06
    57   1     0.09  -0.03  -0.09     0.02   0.16   0.15    -0.01  -0.13  -0.08
    58   1    -0.01  -0.02  -0.07     0.03   0.18   0.02    -0.04  -0.14  -0.01
    59   1     0.05   0.07  -0.08     0.03   0.18   0.07    -0.03  -0.12  -0.02
                      7                      8                      9
                      A                      A                      A
 Frequencies --    138.9345               159.4579               181.9576
 Red. masses --      2.4548                 1.7724                 2.6013
 Frc consts  --      0.0279                 0.0266                 0.0507
 IR Inten    --      0.5393                 0.0379                 0.8780
  Atom  AN      X      Y      Z        X      Y      Z        X      Y      Z
     1   6     0.00   0.02  -0.00    -0.01  -0.00   0.00    -0.02   0.05  -0.00
     2   6    -0.01   0.02   0.01    -0.01  -0.00   0.00    -0.05  -0.02   0.02
     3   6    -0.03   0.04  -0.00    -0.01  -0.01   0.00    -0.06   0.06  -0.01
     4   6    -0.01   0.02   0.02    -0.01  -0.00   0.00    -0.00  -0.07   0.02
     5   6     0.01  -0.02   0.17    -0.01  -0.00   0.01    -0.02  -0.09   0.03
     6   6     0.05   0.01  -0.13    -0.00   0.01  -0.03    -0.03  -0.02  -0.11
     7   6     0.02  -0.03  -0.09    -0.00  -0.00  -0.01     0.00  -0.03  -0.01
     8   6    -0.00  -0.03  -0.04    -0.01  -0.01   0.01    -0.01   0.03   0.04
     9   6    -0.00  -0.02   0.01    -0.00   0.02   0.11    -0.00   0.05   0.07
    10   6    -0.02  -0.02   0.08     0.01  -0.02   0.05     0.03   0.04  -0.01
    11   6    -0.02  -0.00   0.04    -0.01   0.01  -0.06     0.03   0.03  -0.01
    12   6    -0.01   0.03  -0.02     0.00   0.02  -0.10     0.02  -0.05   0.03
    13   6    -0.03   0.06  -0.08     0.03  -0.06   0.06    -0.02  -0.09   0.04
    14   6     0.04   0.05  -0.01    -0.01  -0.02   0.12    -0.09  -0.07  -0.04
    15   6     0.03  -0.02   0.06     0.02   0.01  -0.04    -0.08   0.03  -0.02
    16   6     0.00  -0.02   0.04     0.00   0.00  -0.06    -0.00   0.06  -0.00
    17   6    -0.02  -0.02   0.04     0.01   0.00  -0.06     0.02   0.09   0.00
    18   6     0.01  -0.03  -0.01    -0.00   0.01  -0.04     0.01   0.07   0.02
    19   6    -0.01  -0.02  -0.01     0.00   0.01  -0.02     0.05   0.03  -0.01
    20   6     0.00  -0.02  -0.07    -0.01  -0.01   0.01     0.05  -0.03  -0.01
    21   6     0.01  -0.01  -0.06    -0.01   0.00   0.00     0.02  -0.05   0.00
    22   6     0.06  -0.02  -0.05    -0.01   0.02   0.00     0.04  -0.08  -0.00
    23   8    -0.06   0.02   0.09     0.02   0.03   0.00     0.10   0.05  -0.02
    24   1    -0.01   0.03  -0.00    -0.00  -0.01  -0.00    -0.14   0.20   0.01
    25   1     0.02   0.02  -0.02    -0.02  -0.00   0.01     0.14   0.11  -0.07
    26   1     0.01  -0.00   0.01    -0.01   0.01  -0.00    -0.06  -0.08   0.02
    27   1    -0.02   0.02   0.02    -0.01  -0.00  -0.00    -0.12  -0.05   0.04
    28   1    -0.03   0.02   0.01    -0.01  -0.02   0.00    -0.08   0.06   0.00
    29   1    -0.05   0.05  -0.01    -0.01  -0.01  -0.01    -0.10   0.10  -0.00
    30   1    -0.00   0.05  -0.01    -0.01  -0.01   0.01    -0.01   0.08  -0.05
    31   1    -0.06   0.12   0.01    -0.01   0.00   0.00    -0.01  -0.06   0.01
    32   1     0.23  -0.13   0.33     0.02  -0.02   0.04     0.08  -0.13   0.11
    33   1    -0.22   0.03   0.35    -0.04  -0.01   0.03    -0.15  -0.11   0.10
    34   1     0.20   0.18  -0.19     0.01   0.05  -0.05     0.01   0.13  -0.16
    35   1    -0.03  -0.08  -0.30    -0.01  -0.02  -0.07    -0.08  -0.10  -0.24
    36   1     0.04  -0.07  -0.08     0.01  -0.02  -0.01     0.05  -0.07  -0.01
    37   1    -0.05  -0.03  -0.04    -0.03  -0.07   0.01    -0.04   0.01   0.04
    38   1    -0.03  -0.03   0.00     0.02  -0.02   0.21     0.03   0.03   0.13
    39   1     0.05   0.00   0.01    -0.04   0.13   0.13    -0.05   0.10   0.08
    40   1    -0.07  -0.07   0.08     0.06  -0.11   0.05     0.10   0.08  -0.01
    41   1    -0.01  -0.01   0.13     0.00   0.01   0.10     0.00   0.04  -0.06
    42   1    -0.05   0.01   0.05    -0.06   0.05  -0.05     0.04   0.04  -0.01
    43   1     0.05  -0.00  -0.03     0.02   0.17  -0.11    -0.01  -0.07   0.04
    44   1    -0.05   0.05  -0.01    -0.01  -0.02  -0.23     0.09  -0.08   0.05
    45   1    -0.14   0.05  -0.08     0.11  -0.17   0.04     0.04  -0.05   0.03
    46   1    -0.01   0.09  -0.18     0.02  -0.04   0.14    -0.02  -0.14   0.08
    47   1     0.10   0.10  -0.01    -0.12   0.07   0.17    -0.09  -0.16  -0.05
    48   1     0.05   0.04   0.00     0.04  -0.07   0.23    -0.14  -0.06  -0.09
    49   1    -0.01  -0.07   0.06     0.13   0.05  -0.06    -0.09   0.07  -0.02
    50   1     0.08  -0.02   0.11    -0.04   0.01  -0.11    -0.13   0.05  -0.04
    51   1    -0.09  -0.06   0.03    -0.32  -0.21  -0.05     0.23   0.23  -0.01
    52   1    -0.02   0.06   0.06     0.00   0.39  -0.01     0.03  -0.14  -0.04
    53   1     0.05  -0.05   0.02     0.35  -0.17  -0.11    -0.17   0.20   0.07
    54   1     0.05  -0.05  -0.01    -0.03   0.03  -0.04     0.00   0.10   0.02
    55   1    -0.01  -0.02  -0.09     0.00  -0.00   0.04     0.09  -0.05  -0.01
    56   1     0.03   0.00  -0.07    -0.03  -0.03   0.01     0.05  -0.02  -0.01
    57   1    -0.01   0.03  -0.04    -0.04   0.04   0.01    -0.03  -0.04  -0.01
    58   1     0.14   0.02  -0.03     0.02   0.04  -0.00     0.11  -0.05   0.02
    59   1     0.05  -0.10  -0.09    -0.01  -0.01   0.00     0.03  -0.17  -0.02
                     10                     11                     12
                      A                      A                      A
 Frequencies --    198.1836               203.6781               222.2078
 Red. masses --      2.2090                 2.5498                 2.3978
 Frc consts  --      0.0511                 0.0623                 0.0698
 IR Inten    --      0.2751                 0.1522                 0.8091
  Atom  AN      X      Y      Z        X      Y      Z        X      Y      Z
     1   6     0.11   0.06  -0.03     0.09   0.01  -0.00    -0.04  -0.02   0.01
     2   6     0.05  -0.00   0.01     0.09   0.02  -0.01     0.02   0.02  -0.03
     3   6     0.06   0.05  -0.00     0.13   0.01   0.02     0.06   0.03  -0.01
     4   6     0.06  -0.04   0.02     0.06   0.03  -0.01     0.00   0.04  -0.05
     5   6     0.03  -0.03  -0.02     0.06   0.03  -0.00     0.00   0.01   0.05
     6   6     0.01  -0.03   0.05     0.07   0.01  -0.05     0.01   0.03  -0.03
     7   6     0.01  -0.01  -0.01     0.03  -0.03   0.01     0.01   0.01   0.02
     8   6    -0.00   0.02  -0.04    -0.01  -0.06   0.05    -0.01   0.02   0.07
     9   6    -0.02   0.01  -0.08    -0.07  -0.01   0.10    -0.02  -0.01  -0.07
    10   6    -0.05   0.02   0.03    -0.05   0.02  -0.05    -0.03   0.03  -0.07
    11   6    -0.05   0.02   0.03    -0.07   0.01  -0.06    -0.02   0.00   0.01
    12   6    -0.05  -0.00   0.01    -0.09   0.04  -0.01    -0.02   0.02  -0.01
    13   6    -0.09  -0.01  -0.02    -0.02   0.03   0.08    -0.01  -0.01   0.05
    14   6    -0.09  -0.00   0.01    -0.03   0.02   0.01    -0.05  -0.02  -0.03
    15   6    -0.07   0.02  -0.01    -0.03   0.01  -0.04    -0.05   0.04  -0.03
    16   6    -0.05   0.01   0.01    -0.04  -0.00  -0.04     0.01   0.01   0.07
    17   6    -0.08  -0.02   0.01    -0.03   0.03  -0.04     0.15  -0.03   0.05
    18   6    -0.02   0.01  -0.01    -0.03  -0.04  -0.01    -0.01  -0.00   0.14
    19   6     0.01  -0.01   0.00    -0.04  -0.05   0.00     0.00  -0.02   0.06
    20   6     0.02  -0.03   0.00    -0.03  -0.02  -0.01     0.02   0.01  -0.02
    21   6     0.05  -0.02   0.02     0.02  -0.00   0.01    -0.01   0.00  -0.04
    22   6     0.12  -0.03   0.02     0.04  -0.01   0.01    -0.05  -0.05  -0.05
    23   8     0.04   0.00   0.00    -0.07  -0.04   0.03     0.00  -0.09  -0.05
    24   1    -0.03   0.24  -0.03     0.10  -0.00  -0.01     0.03  -0.11   0.05
    25   1     0.31   0.13  -0.13     0.08   0.00  -0.01    -0.16  -0.06   0.07
    26   1     0.10  -0.11   0.03     0.10   0.02  -0.00    -0.06   0.05  -0.03
    27   1     0.01  -0.02   0.02     0.11   0.03  -0.02     0.04   0.03  -0.04
    28   1     0.07   0.10  -0.01     0.17   0.07  -0.02     0.11   0.15  -0.04
    29   1     0.07   0.05   0.05     0.18  -0.02   0.08     0.14  -0.02   0.09
    30   1     0.05   0.04  -0.04     0.08  -0.02   0.01    -0.02  -0.02  -0.04
    31   1     0.07  -0.06   0.03     0.07   0.04  -0.01    -0.01   0.08  -0.05
    32   1    -0.03   0.01  -0.07     0.09   0.03   0.02     0.08  -0.07   0.11
    33   1     0.09  -0.05  -0.08     0.04   0.03   0.01    -0.09   0.05   0.13
    34   1    -0.01  -0.11   0.07     0.09   0.08  -0.07     0.04   0.11  -0.06
    35   1     0.02   0.01   0.12     0.10  -0.04  -0.11    -0.01  -0.02  -0.11
    36   1    -0.03   0.00  -0.01     0.08  -0.05   0.02     0.06   0.00   0.02
    37   1     0.01   0.07  -0.04    -0.02  -0.11   0.05    -0.02   0.12   0.07
    38   1    -0.05   0.03  -0.16    -0.07  -0.07   0.23    -0.03   0.04  -0.17
    39   1     0.05  -0.05  -0.10    -0.19   0.08   0.12    -0.03  -0.15  -0.09
    40   1    -0.13  -0.01   0.04     0.07   0.06  -0.07    -0.03   0.10  -0.07
    41   1    -0.01   0.02   0.08    -0.09   0.01  -0.14    -0.03   0.01  -0.13
    42   1    -0.05   0.03   0.03    -0.07  -0.00  -0.06    -0.03  -0.06   0.01
    43   1    -0.02  -0.02   0.00    -0.15   0.09   0.00    -0.00   0.11  -0.02
    44   1    -0.04  -0.01   0.01    -0.09   0.03  -0.03    -0.03  -0.00  -0.09
    45   1    -0.14  -0.01  -0.02     0.09   0.02   0.07     0.08  -0.01   0.04
    46   1    -0.08  -0.02  -0.07    -0.04   0.04   0.18    -0.02  -0.04   0.13
    47   1    -0.10   0.03   0.01    -0.07  -0.02   0.01    -0.07  -0.10  -0.04
    48   1    -0.08  -0.01   0.03    -0.00   0.04   0.00    -0.07   0.01  -0.08
    49   1    -0.06   0.05  -0.01    -0.00   0.02  -0.04    -0.05   0.13  -0.02
    50   1    -0.09   0.02  -0.03    -0.03   0.00  -0.06    -0.07   0.03  -0.10
    51   1    -0.37  -0.20   0.01     0.25   0.21  -0.06    -0.05  -0.19   0.11
    52   1    -0.10   0.31   0.08    -0.02  -0.30  -0.09     0.17   0.25   0.00
    53   1     0.20  -0.17  -0.05    -0.31   0.18   0.02     0.42  -0.17   0.04
    54   1    -0.01  -0.01  -0.01    -0.07  -0.02  -0.00    -0.01  -0.01   0.14
    55   1     0.02  -0.02   0.01    -0.06  -0.01  -0.00    -0.01   0.01  -0.08
    56   1     0.02  -0.02   0.00    -0.03  -0.02  -0.01     0.11   0.03  -0.02
    57   1     0.12  -0.03   0.05    -0.03   0.04   0.02    -0.05  -0.06  -0.10
    58   1     0.15  -0.03   0.06     0.12   0.03   0.03    -0.05  -0.07  -0.02
    59   1     0.14  -0.04  -0.03     0.03  -0.10  -0.02    -0.06  -0.07  -0.04
                     13                     14                     15
                      A                      A                      A
 Frequencies --    234.3356               241.0496               259.8996
 Red. masses --      1.1721                 2.0541                 1.3229
 Frc consts  --      0.0379                 0.0703                 0.0526
 IR Inten    --      0.1407                 1.3043                 0.0742
  Atom  AN      X      Y      Z        X      Y      Z        X      Y      Z
     1   6     0.00   0.03  -0.01    -0.08  -0.02   0.01    -0.01   0.02  -0.01
     2   6     0.00  -0.02  -0.01     0.01   0.02  -0.06    -0.02   0.00  -0.00
     3   6     0.02  -0.03   0.01     0.07   0.04  -0.03    -0.04  -0.00  -0.02
     4   6    -0.01  -0.01  -0.01     0.00   0.03  -0.06    -0.00  -0.01   0.03
     5   6    -0.04  -0.02   0.01     0.03  -0.00   0.08    -0.02  -0.00  -0.05
     6   6    -0.04   0.01   0.00     0.04  -0.03   0.08    -0.02   0.01  -0.03
     7   6    -0.02   0.02   0.00     0.01  -0.02  -0.03    -0.01   0.00   0.02
     8   6    -0.01   0.01   0.01     0.00  -0.02  -0.04    -0.00   0.01   0.01
     9   6     0.01  -0.00   0.00     0.00  -0.00   0.01     0.00   0.00  -0.00
    10   6     0.01  -0.01  -0.00    -0.00   0.00   0.03     0.01  -0.00  -0.02
    11   6     0.01  -0.01  -0.01     0.00   0.01   0.01     0.01  -0.01  -0.00
    12   6     0.01   0.00  -0.01     0.00  -0.03   0.03     0.01  -0.00   0.01
    13   6     0.03   0.01   0.00    -0.03  -0.01  -0.02     0.01   0.01  -0.01
    14   6     0.03   0.01   0.01    -0.02  -0.01  -0.01     0.02   0.01  -0.00
    15   6     0.03  -0.01   0.00    -0.02   0.00   0.00     0.01  -0.01   0.01
    16   6     0.01  -0.01   0.00    -0.01   0.02  -0.02     0.00  -0.01   0.00
    17   6     0.02  -0.02  -0.00    -0.07   0.06  -0.01     0.00  -0.02   0.00
    18   6    -0.00  -0.00   0.01     0.00  -0.00  -0.05    -0.00   0.01   0.00
    19   6    -0.01   0.00   0.00     0.04  -0.01   0.02    -0.01   0.01  -0.02
    20   6    -0.01   0.02  -0.00     0.01  -0.07   0.07    -0.01   0.02  -0.01
    21   6    -0.01   0.01  -0.00    -0.00  -0.01  -0.04     0.00  -0.00   0.04
    22   6    -0.01   0.03  -0.00    -0.06   0.04  -0.03     0.10  -0.04   0.05
    23   8    -0.02  -0.01  -0.00     0.11   0.02   0.02    -0.03   0.02   0.00
    24   1    -0.23   0.34   0.12     0.05  -0.18   0.04     0.15  -0.21  -0.14
    25   1     0.34   0.12  -0.21    -0.28  -0.08   0.13    -0.26  -0.04   0.20
    26   1    -0.10  -0.33   0.06    -0.12   0.14  -0.07     0.06   0.33  -0.08
    27   1     0.00  -0.02  -0.03     0.03   0.03  -0.07    -0.02  -0.00  -0.02
    28   1     0.07   0.35  -0.06     0.14   0.39  -0.10    -0.03   0.27  -0.05
    29   1     0.27  -0.22   0.23     0.29  -0.13   0.21     0.13  -0.14   0.12
    30   1    -0.28  -0.21  -0.14    -0.19  -0.13  -0.17    -0.25  -0.14  -0.15
    31   1    -0.01   0.00  -0.01     0.00   0.09  -0.06     0.03  -0.05   0.04
    32   1    -0.04  -0.05   0.02     0.06  -0.09   0.11    -0.05   0.04  -0.08
    33   1    -0.06  -0.01   0.02    -0.00   0.08   0.15     0.02  -0.04  -0.10
    34   1    -0.05   0.02   0.00     0.08  -0.11   0.09    -0.05   0.05  -0.03
    35   1    -0.06   0.01  -0.00     0.03   0.01   0.13    -0.01  -0.01  -0.05
    36   1    -0.01   0.03   0.00    -0.02   0.02  -0.03    -0.01  -0.02   0.02
    37   1    -0.01   0.01   0.01    -0.01  -0.05  -0.04     0.01   0.01   0.02
    38   1     0.02   0.00   0.01    -0.01  -0.02   0.03     0.01   0.01  -0.01
    39   1     0.00  -0.00   0.00     0.02   0.03   0.01    -0.01  -0.01  -0.00
    40   1     0.01  -0.02  -0.00    -0.02  -0.02   0.03     0.01   0.01  -0.02
    41   1     0.01  -0.01  -0.00    -0.00   0.01   0.05     0.01  -0.01  -0.04
    42   1     0.00  -0.02  -0.00     0.02   0.04   0.00     0.01  -0.02  -0.00
    43   1     0.01   0.02  -0.01    -0.01  -0.09   0.03     0.00  -0.01   0.01
    44   1    -0.00   0.01  -0.02     0.03  -0.02   0.08     0.00   0.00   0.01
    45   1     0.04  -0.00  -0.00    -0.07   0.01  -0.01     0.00   0.01  -0.00
    46   1     0.02   0.02   0.01    -0.02  -0.02  -0.06     0.01   0.01  -0.01
    47   1     0.03   0.01   0.01    -0.02  -0.00  -0.01     0.02   0.01  -0.00
    48   1     0.04   0.00   0.01    -0.03  -0.02  -0.01     0.02   0.01  -0.00
    49   1     0.03  -0.02   0.00    -0.02  -0.01  -0.00     0.00  -0.02   0.01
    50   1     0.04  -0.01   0.01    -0.02   0.01   0.02     0.02  -0.01   0.02
    51   1     0.07  -0.00   0.01    -0.09   0.08  -0.06    -0.03  -0.04   0.01
    52   1     0.03  -0.07  -0.02    -0.09   0.06   0.03     0.00   0.01   0.01
    53   1    -0.01  -0.00  -0.00    -0.09   0.07   0.00     0.03  -0.04  -0.01
    54   1    -0.00  -0.00   0.01    -0.01  -0.02  -0.05     0.00   0.03   0.00
    55   1    -0.02   0.02  -0.01     0.03  -0.05   0.19    -0.00   0.01  -0.03
    56   1    -0.01   0.02  -0.00    -0.02  -0.20   0.06    -0.03   0.06  -0.01
    57   1    -0.05   0.07   0.02    -0.12   0.09  -0.02    -0.14   0.13   0.08
    58   1     0.04   0.06  -0.00    -0.01   0.08  -0.06     0.41   0.07   0.14
    59   1    -0.01  -0.01  -0.01    -0.08  -0.01  -0.01     0.09  -0.35  -0.07
                     16                     17                     18
                      A                      A                      A
 Frequencies --    266.8958               279.1298               287.0938
 Red. masses --      1.9769                 2.0224                 2.5294
 Frc consts  --      0.0830                 0.0928                 0.1228
 IR Inten    --      0.0277                 0.6267                 0.4715
  Atom  AN      X      Y      Z        X      Y      Z        X      Y      Z
     1   6    -0.04  -0.00  -0.01    -0.03  -0.02  -0.01     0.05   0.01   0.02
     2   6    -0.02  -0.01  -0.02    -0.03  -0.01  -0.00    -0.01   0.02   0.05
     3   6    -0.02   0.04  -0.03    -0.04  -0.03  -0.01    -0.09  -0.10   0.03
     4   6    -0.01  -0.02  -0.01    -0.02   0.00  -0.01    -0.01   0.04   0.03
     5   6    -0.02  -0.03   0.02     0.00   0.01   0.00     0.06   0.08  -0.04
     6   6    -0.03  -0.03   0.07     0.01  -0.03   0.06     0.09  -0.00  -0.01
     7   6    -0.01   0.02  -0.05     0.01   0.00  -0.05     0.02  -0.04  -0.03
     8   6    -0.01   0.02  -0.03    -0.01  -0.03  -0.00     0.02  -0.04  -0.05
     9   6     0.00   0.01  -0.03    -0.01  -0.01   0.07     0.03  -0.04  -0.06
    10   6    -0.03  -0.01   0.08     0.02   0.01  -0.04    -0.01   0.01   0.12
    11   6    -0.03   0.02   0.01     0.01  -0.00  -0.02     0.03   0.07   0.03
    12   6    -0.02   0.04  -0.08     0.00  -0.02   0.05     0.04   0.01  -0.02
    13   6    -0.01  -0.03   0.03     0.03   0.01   0.03    -0.01  -0.04   0.00
    14   6    -0.03  -0.01   0.06     0.00  -0.02  -0.09    -0.05  -0.02   0.01
    15   6    -0.01   0.01  -0.02    -0.01  -0.00   0.02    -0.03   0.06  -0.03
    16   6     0.00  -0.00   0.01     0.00   0.01   0.01     0.01   0.06  -0.01
    17   6     0.09  -0.05  -0.00     0.03   0.12   0.02     0.05   0.13  -0.00
    18   6    -0.00  -0.01   0.03    -0.00  -0.03   0.01     0.01  -0.03  -0.01
    19   6     0.01  -0.02   0.03    -0.01  -0.05   0.00    -0.01  -0.04  -0.00
    20   6     0.02  -0.01  -0.01    -0.01  -0.02  -0.02    -0.03  -0.02  -0.01
    21   6     0.02   0.00  -0.04     0.01   0.01  -0.05    -0.01  -0.01   0.00
    22   6     0.13   0.09  -0.02     0.11   0.12  -0.03    -0.07  -0.05  -0.01
    23   8     0.00  -0.03   0.01    -0.04  -0.06   0.00    -0.05  -0.05  -0.00
    24   1     0.01  -0.07  -0.03    -0.09   0.06   0.04     0.01   0.05  -0.01
    25   1    -0.11  -0.02   0.05     0.04   0.00  -0.07     0.09   0.02  -0.03
    26   1    -0.04   0.08  -0.04    -0.06  -0.12   0.02     0.08  -0.03   0.05
    27   1    -0.05  -0.02  -0.01    -0.03  -0.01  -0.00     0.04   0.04   0.03
    28   1    -0.01   0.02  -0.03    -0.06  -0.15   0.02    -0.14   0.01   0.06
    29   1    -0.06   0.08  -0.02    -0.11   0.02  -0.09     0.05  -0.24   0.01
    30   1     0.03   0.07  -0.04     0.04   0.03   0.05    -0.26  -0.20   0.01
    31   1    -0.01  -0.01  -0.01    -0.04   0.01  -0.01    -0.04   0.01   0.03
    32   1    -0.05  -0.05   0.00    -0.04   0.02  -0.03     0.01   0.17  -0.08
    33   1     0.00  -0.02   0.02     0.06   0.03  -0.02     0.15   0.06  -0.10
    34   1    -0.03  -0.14   0.10     0.01  -0.15   0.09     0.11  -0.04  -0.01
    35   1    -0.06   0.04   0.17     0.01   0.04   0.17     0.14   0.00   0.01
    36   1    -0.03   0.08  -0.05     0.01   0.06  -0.05    -0.01  -0.06  -0.03
    37   1    -0.02   0.05  -0.03    -0.06  -0.06  -0.00     0.01  -0.02  -0.05
    38   1    -0.03   0.02  -0.08     0.01  -0.05   0.18    -0.05  -0.02  -0.19
    39   1     0.08  -0.01  -0.04    -0.09   0.09   0.09     0.17  -0.13  -0.08
    40   1    -0.12  -0.11   0.09     0.11   0.06  -0.05    -0.14  -0.09   0.13
    41   1     0.01   0.01   0.20    -0.02  -0.00  -0.12    -0.00   0.07   0.26
    42   1    -0.10   0.05   0.02     0.04  -0.02  -0.02     0.00   0.14   0.04
    43   1     0.03   0.17  -0.09    -0.05  -0.06   0.06     0.09   0.06  -0.03
    44   1    -0.05   0.00  -0.21     0.03  -0.00   0.12     0.06  -0.02  -0.08
    45   1     0.03  -0.10   0.02     0.10   0.09   0.03    -0.01  -0.06   0.00
    46   1    -0.02  -0.01   0.07     0.01  -0.01   0.09    -0.01  -0.07  -0.00
    47   1    -0.07   0.01   0.07     0.06  -0.14  -0.13    -0.08  -0.03   0.01
    48   1    -0.00  -0.03   0.10    -0.05   0.05  -0.21    -0.07  -0.03   0.01
    49   1     0.04   0.07  -0.03    -0.09  -0.04   0.03    -0.00   0.14  -0.03
    50   1    -0.05   0.01  -0.08     0.02   0.00   0.08    -0.10   0.07  -0.09
    51   1     0.40   0.11   0.06    -0.17   0.04  -0.03     0.14   0.20  -0.04
    52   1     0.12  -0.38  -0.12     0.03   0.39   0.04     0.06   0.08  -0.04
    53   1    -0.17   0.09   0.04     0.25   0.03   0.08    -0.00   0.18   0.08
    54   1     0.01  -0.05   0.03     0.00  -0.05   0.01     0.02  -0.06  -0.01
    55   1    -0.00   0.00  -0.00    -0.04  -0.00  -0.00    -0.03  -0.02  -0.00
    56   1     0.05  -0.03  -0.01     0.00  -0.04  -0.02    -0.03  -0.02  -0.01
    57   1     0.17   0.09   0.09    -0.01   0.23   0.09    -0.19   0.02  -0.07
    58   1     0.14   0.11  -0.04     0.29   0.22  -0.04     0.02  -0.02   0.01
    59   1     0.17   0.15  -0.08     0.12  -0.01  -0.11    -0.10  -0.20   0.01
                     19                     20                     21
                      A                      A                      A
 Frequencies --    296.4363               303.7853               311.3497
 Red. masses --      1.3451                 2.5279                 2.4952
 Frc consts  --      0.0696                 0.1374                 0.1425
 IR Inten    --      0.6002                 0.6123                 0.1019
  Atom  AN      X      Y      Z        X      Y      Z        X      Y      Z
     1   6     0.02   0.02  -0.01     0.05   0.03   0.02     0.07   0.02  -0.03
     2   6    -0.00  -0.01   0.00    -0.01   0.02   0.06     0.04  -0.00  -0.01
     3   6    -0.01   0.04  -0.01    -0.11  -0.06   0.03     0.12   0.07   0.02
     4   6     0.01  -0.03   0.02    -0.01   0.02   0.03    -0.00  -0.00  -0.00
     5   6    -0.01  -0.03   0.00     0.04   0.05  -0.02    -0.06  -0.02   0.00
     6   6    -0.02  -0.01  -0.02     0.06  -0.00  -0.01    -0.08   0.01  -0.00
     7   6    -0.00  -0.01   0.00     0.01  -0.02  -0.05    -0.06   0.01   0.01
     8   6     0.00  -0.01  -0.00    -0.01  -0.01  -0.03    -0.04  -0.01  -0.04
     9   6     0.02  -0.01   0.02    -0.07   0.03   0.03    -0.02  -0.03  -0.03
    10   6     0.02   0.00   0.02    -0.07  -0.02  -0.04    -0.06  -0.08   0.09
    11   6     0.02   0.01  -0.01    -0.07  -0.04  -0.01    -0.01  -0.01  -0.02
    12   6     0.02  -0.01   0.00    -0.09   0.01   0.03    -0.02  -0.01   0.03
    13   6     0.03  -0.00  -0.00    -0.06   0.02   0.05     0.02   0.00   0.04
    14   6     0.00  -0.00  -0.02    -0.01  -0.03  -0.02     0.04  -0.04  -0.05
    15   6     0.00   0.02  -0.01    -0.02  -0.08   0.05     0.01  -0.08   0.06
    16   6     0.00   0.02  -0.01    -0.00  -0.04   0.02     0.01  -0.02  -0.03
    17   6    -0.02   0.06  -0.00     0.11  -0.05   0.01     0.13   0.12  -0.03
    18   6    -0.00  -0.02  -0.00     0.02   0.01  -0.02    -0.01   0.00  -0.05
    19   6    -0.02  -0.03   0.00     0.04   0.04  -0.04    -0.02   0.03  -0.04
    20   6    -0.00   0.01  -0.02     0.04   0.00  -0.03    -0.04   0.01   0.01
    21   6     0.01  -0.01   0.02     0.01  -0.00  -0.03    -0.03   0.01   0.03
    22   6     0.03   0.01   0.03     0.00   0.03  -0.03    -0.04  -0.03   0.03
    23   8    -0.07  -0.05  -0.00     0.11   0.09  -0.01     0.01   0.05  -0.02
    24   1     0.09  -0.08  -0.10     0.07  -0.01  -0.06     0.09  -0.03  -0.10
    25   1    -0.09   0.00   0.10     0.02   0.02   0.04     0.03   0.01   0.01
    26   1     0.06   0.18  -0.04     0.11   0.10   0.03     0.12   0.09  -0.02
    27   1    -0.03  -0.02   0.01     0.01   0.03   0.06     0.03  -0.01  -0.01
    28   1     0.02   0.25  -0.04    -0.16   0.12   0.04     0.19  -0.01  -0.02
    29   1     0.11  -0.04   0.13     0.06  -0.22   0.05     0.04   0.15   0.06
    30   1    -0.14  -0.05  -0.12    -0.32  -0.19  -0.05     0.23   0.13   0.06
    31   1     0.02  -0.04   0.02    -0.06   0.00   0.03     0.03   0.01   0.01
    32   1    -0.01  -0.03   0.01     0.01   0.12  -0.05    -0.05  -0.04   0.01
    33   1    -0.04  -0.05   0.00     0.10   0.04  -0.06    -0.09  -0.03   0.01
    34   1    -0.02   0.02  -0.03     0.09  -0.05   0.00    -0.09   0.03  -0.01
    35   1    -0.04  -0.02  -0.05     0.09   0.01   0.02    -0.09   0.00  -0.02
    36   1    -0.01  -0.02   0.00     0.01  -0.01  -0.05    -0.09  -0.01   0.01
    37   1     0.00  -0.01  -0.00    -0.02  -0.04  -0.03    -0.02  -0.02  -0.03
    38   1     0.01  -0.02   0.04    -0.05  -0.02   0.14    -0.04  -0.01  -0.08
    39   1     0.02   0.02   0.02    -0.13   0.13   0.05     0.06  -0.06  -0.04
    40   1     0.03  -0.01   0.02    -0.03  -0.01  -0.04    -0.17  -0.24   0.11
    41   1     0.01   0.01   0.03    -0.05  -0.04  -0.06    -0.02  -0.03   0.28
    42   1     0.02   0.03  -0.01    -0.06  -0.07  -0.02     0.01   0.05  -0.02
    43   1     0.02  -0.02   0.00    -0.12   0.04   0.03    -0.04   0.01   0.03
    44   1     0.03  -0.00   0.02    -0.09   0.01   0.02    -0.01  -0.01   0.03
    45   1     0.05   0.01  -0.00    -0.04   0.04   0.05     0.07   0.04   0.04
    46   1     0.02  -0.02   0.02    -0.07   0.04   0.07     0.01   0.01   0.09
    47   1     0.01  -0.02  -0.03     0.05  -0.11  -0.05     0.11  -0.15  -0.09
    48   1    -0.01   0.00  -0.04    -0.00   0.03  -0.10     0.01   0.02  -0.16
    49   1    -0.01   0.03  -0.01    -0.08  -0.18   0.06    -0.07  -0.23   0.06
    50   1    -0.00   0.02  -0.01     0.02  -0.06   0.15     0.06  -0.05   0.21
    51   1    -0.08   0.06  -0.04     0.12  -0.08   0.07     0.14   0.14  -0.05
    52   1    -0.03   0.13   0.03     0.13  -0.02  -0.08     0.16   0.20  -0.13
    53   1     0.01   0.05   0.01     0.17  -0.08   0.04     0.21   0.12   0.11
    54   1    -0.01  -0.03  -0.00     0.07   0.03  -0.02     0.01   0.02  -0.05
    55   1    -0.02   0.01  -0.08     0.06  -0.01  -0.04    -0.02   0.01   0.04
    56   1     0.01   0.07  -0.01     0.03   0.00  -0.03    -0.09   0.00   0.01
    57   1     0.42  -0.26   0.05     0.20  -0.11  -0.03    -0.09   0.00   0.00
    58   1    -0.38  -0.17  -0.04    -0.24  -0.07  -0.10     0.03  -0.02   0.07
    59   1     0.09   0.49   0.09     0.02   0.29   0.03    -0.04  -0.12   0.01
                     22                     23                     24
                      A                      A                      A
 Frequencies --    326.2821               332.2326               352.2618
 Red. masses --      2.4107                 2.2102                 3.0251
 Frc consts  --      0.1512                 0.1437                 0.2212
 IR Inten    --      0.2951                 0.2503                 0.4718
  Atom  AN      X      Y      Z        X      Y      Z        X      Y      Z
     1   6     0.15   0.09   0.04     0.05   0.04   0.02     0.04   0.01  -0.01
     2   6     0.05  -0.03   0.10     0.02  -0.03   0.03    -0.01   0.05   0.03
     3   6    -0.02   0.02   0.05     0.01   0.02   0.01    -0.03  -0.02   0.04
     4   6     0.02  -0.04  -0.00     0.02  -0.04  -0.01    -0.04   0.06  -0.00
     5   6    -0.04  -0.06   0.01    -0.01  -0.06   0.01    -0.07   0.07  -0.02
     6   6    -0.07  -0.02   0.02    -0.02  -0.04   0.02    -0.08   0.08  -0.02
     7   6    -0.01   0.03  -0.05     0.00  -0.02   0.00    -0.04   0.09  -0.04
     8   6    -0.02   0.02  -0.02     0.01  -0.03   0.01    -0.04   0.04   0.00
     9   6     0.02   0.01   0.01    -0.03  -0.00   0.02     0.02   0.01   0.02
    10   6     0.02  -0.02  -0.01    -0.01   0.07  -0.04     0.02  -0.03  -0.00
    11   6    -0.01  -0.03  -0.01     0.03   0.05   0.02    -0.00  -0.02  -0.04
    12   6     0.00   0.01  -0.06     0.02  -0.04   0.10    -0.02  -0.06   0.07
    13   6     0.06   0.00   0.02    -0.10  -0.02  -0.05    -0.03   0.02  -0.04
    14   6     0.01   0.01  -0.05    -0.02  -0.00   0.10     0.03   0.03   0.06
    15   6     0.00   0.02  -0.01     0.01   0.01  -0.01     0.04  -0.02  -0.04
    16   6    -0.01  -0.01   0.03     0.03   0.03  -0.04    -0.01  -0.01  -0.07
    17   6    -0.08  -0.02   0.04     0.12  -0.02  -0.06     0.02   0.04  -0.07
    18   6    -0.01  -0.01   0.03     0.02  -0.01  -0.02    -0.05  -0.03   0.05
    19   6     0.02  -0.02   0.03    -0.01  -0.01  -0.03     0.02  -0.07   0.13
    20   6     0.04  -0.01  -0.02     0.00   0.01  -0.04     0.02  -0.03   0.06
    21   6     0.02   0.01  -0.07     0.00  -0.01  -0.01     0.00   0.05  -0.07
    22   6    -0.12   0.05  -0.09    -0.07   0.09  -0.01     0.08  -0.12  -0.09
    23   8     0.02  -0.04   0.01    -0.06  -0.02  -0.01     0.09  -0.09   0.04
    24   1     0.20  -0.02  -0.19     0.07  -0.01  -0.08     0.05  -0.01  -0.06
    25   1     0.08   0.10   0.22     0.02   0.04   0.11     0.03  -0.00  -0.06
    26   1     0.27   0.35   0.03     0.09   0.15  -0.00     0.11   0.01   0.03
    27   1     0.01  -0.04   0.11    -0.01  -0.04   0.04     0.02   0.06   0.03
    28   1    -0.10   0.06   0.10    -0.01   0.05   0.02    -0.02  -0.05   0.04
    29   1    -0.02   0.01   0.03    -0.01   0.04   0.03    -0.00  -0.05   0.00
    30   1    -0.04   0.00  -0.02     0.03   0.03  -0.03    -0.06  -0.03   0.09
    31   1    -0.06  -0.04  -0.02    -0.00  -0.04  -0.01    -0.08   0.07  -0.01
    32   1    -0.06  -0.09   0.00    -0.01  -0.08   0.01    -0.08   0.07  -0.03
    33   1    -0.06  -0.08   0.01    -0.02  -0.06   0.02    -0.07   0.05  -0.03
    34   1    -0.07  -0.08   0.04    -0.02  -0.04   0.02    -0.09   0.06  -0.01
    35   1    -0.11   0.03   0.08    -0.04  -0.03   0.02    -0.09   0.10   0.00
    36   1    -0.01   0.08  -0.05     0.01   0.00   0.00    -0.02   0.12  -0.04
    37   1    -0.07   0.03  -0.02     0.01  -0.06   0.00    -0.08   0.06   0.00
    38   1     0.03   0.01   0.02    -0.05  -0.03   0.05     0.05   0.02   0.06
    39   1     0.02   0.03   0.01    -0.08   0.02   0.02     0.01   0.05   0.03
    40   1     0.04  -0.02  -0.01     0.04   0.16  -0.05     0.04  -0.07  -0.01
    41   1     0.03  -0.03  -0.01    -0.06   0.06  -0.13     0.03  -0.03   0.02
    42   1    -0.05  -0.06  -0.00     0.11   0.07   0.01     0.05   0.02  -0.05
    43   1     0.02   0.09  -0.06    -0.00  -0.21   0.10    -0.11  -0.24   0.09
    44   1    -0.04   0.01  -0.12     0.11  -0.02   0.24     0.03  -0.01   0.26
    45   1     0.20   0.00   0.00    -0.38  -0.02  -0.03    -0.17   0.02  -0.02
    46   1     0.04  -0.01   0.15    -0.05   0.00  -0.32    -0.00   0.06  -0.16
    47   1     0.02  -0.05  -0.06    -0.06   0.16   0.15    -0.02   0.17   0.10
    48   1    -0.02   0.03  -0.10     0.04  -0.07   0.24     0.10  -0.03   0.19
    49   1    -0.03   0.06   0.00     0.10   0.01  -0.03     0.11  -0.03  -0.06
    50   1     0.03  -0.00  -0.04    -0.06   0.03  -0.04     0.04  -0.03  -0.06
    51   1    -0.09  -0.00   0.01     0.13  -0.05   0.01     0.04   0.08  -0.11
    52   1    -0.10  -0.05   0.10     0.14   0.01  -0.12     0.02   0.04  -0.08
    53   1    -0.13  -0.00   0.01     0.18  -0.05  -0.06     0.01   0.06  -0.02
    54   1    -0.01  -0.04   0.03     0.02   0.01  -0.02    -0.14  -0.11   0.04
    55   1     0.01   0.00  -0.04     0.00  -0.00  -0.07    -0.06   0.03   0.12
    56   1     0.10  -0.03  -0.02    -0.01   0.06  -0.03     0.13  -0.17   0.05
    57   1    -0.30   0.17  -0.14    -0.16   0.17   0.04     0.17  -0.21  -0.20
    58   1    -0.02   0.14  -0.15    -0.01   0.17  -0.10     0.04  -0.23   0.06
    59   1    -0.20  -0.12   0.01    -0.10   0.04   0.05     0.12  -0.11  -0.17
                     25                     26                     27
                      A                      A                      A
 Frequencies --    364.1373               376.7269               403.3616
 Red. masses --      2.5221                 2.9943                 3.1644
 Frc consts  --      0.1970                 0.2504                 0.3033
 IR Inten    --      0.6081                 0.2132                 0.4403
  Atom  AN      X      Y      Z        X      Y      Z        X      Y      Z
     1   6    -0.06  -0.00   0.07    -0.04   0.01   0.06    -0.01  -0.01  -0.02
     2   6     0.03  -0.02  -0.00     0.04  -0.04  -0.00    -0.01   0.02  -0.02
     3   6    -0.06  -0.01  -0.06    -0.03  -0.00  -0.06     0.02   0.00   0.00
     4   6     0.06  -0.03  -0.01     0.06  -0.04  -0.01    -0.01   0.02   0.01
     5   6     0.03  -0.03  -0.00     0.04  -0.06   0.01    -0.03   0.04  -0.00
     6   6     0.00   0.05  -0.00     0.03  -0.01   0.00    -0.03   0.05  -0.00
     7   6     0.03   0.04   0.09     0.05   0.03  -0.03    -0.04   0.02  -0.01
     8   6     0.02  -0.02   0.08     0.07   0.11  -0.08    -0.01  -0.03  -0.09
     9   6     0.01  -0.07  -0.03     0.10   0.17  -0.01    -0.12   0.06   0.01
    10   6    -0.04  -0.08   0.04     0.08   0.05   0.02    -0.10   0.14   0.02
    11   6    -0.03  -0.02  -0.05    -0.02   0.02  -0.04    -0.00   0.13   0.02
    12   6    -0.07   0.00   0.02    -0.06   0.04   0.01     0.03  -0.00  -0.03
    13   6    -0.04   0.03   0.02    -0.04   0.05   0.05     0.00  -0.09   0.01
    14   6    -0.01   0.01   0.00    -0.02   0.01  -0.01     0.06  -0.13  -0.04
    15   6    -0.01  -0.05  -0.03    -0.04  -0.08   0.07     0.06  -0.02   0.06
    16   6    -0.01  -0.02  -0.07    -0.02   0.00  -0.05     0.06   0.06  -0.02
    17   6    -0.05   0.07  -0.06     0.04  -0.03  -0.07    -0.06  -0.07  -0.03
    18   6     0.01  -0.02   0.02    -0.01   0.01  -0.01     0.07  -0.05  -0.05
    19   6     0.06  -0.02   0.02    -0.05  -0.02   0.04     0.08  -0.05   0.06
    20   6     0.12   0.09  -0.07    -0.03  -0.03   0.07     0.10   0.08   0.01
    21   6     0.06   0.02   0.02     0.05   0.01   0.01     0.00   0.03   0.04
    22   6    -0.02   0.07   0.02    -0.04  -0.07   0.00    -0.01  -0.02   0.04
    23   8     0.04  -0.04   0.02    -0.10  -0.07  -0.02     0.00  -0.10   0.04
    24   1    -0.08   0.05   0.17    -0.06   0.04   0.14    -0.01  -0.01   0.01
    25   1    -0.04   0.02   0.11    -0.02   0.03   0.14    -0.02  -0.02  -0.05
    26   1    -0.18  -0.03   0.00    -0.16   0.00  -0.00    -0.02  -0.05  -0.01
    27   1     0.01  -0.03   0.00     0.01  -0.05  -0.00     0.01   0.02  -0.02
    28   1    -0.16  -0.00   0.01    -0.13   0.03  -0.00     0.04  -0.02  -0.01
    29   1    -0.07  -0.01  -0.14    -0.06   0.01  -0.12     0.02   0.00   0.01
    30   1    -0.05  -0.02  -0.13    -0.02  -0.00  -0.16     0.02   0.01   0.04
    31   1     0.06  -0.04  -0.01     0.06  -0.05  -0.01     0.01   0.03   0.02
    32   1     0.03  -0.08   0.01     0.05  -0.09   0.02    -0.04   0.04  -0.01
    33   1    -0.02  -0.04   0.02     0.01  -0.05   0.03    -0.03   0.02  -0.02
    34   1    -0.04   0.18  -0.03     0.03  -0.06   0.02    -0.03   0.06  -0.01
    35   1    -0.02  -0.01  -0.10    -0.01   0.02   0.04    -0.03   0.04  -0.02
    36   1     0.06   0.06   0.09     0.00   0.01  -0.03    -0.11   0.01  -0.01
    37   1     0.07   0.00   0.08     0.08   0.12  -0.08     0.01  -0.07  -0.09
    38   1    -0.01  -0.01  -0.17     0.11   0.12   0.09    -0.19  -0.04   0.13
    39   1     0.06  -0.22  -0.05     0.12   0.29   0.01    -0.15   0.20   0.02
    40   1    -0.10  -0.19   0.05     0.07  -0.05   0.03    -0.14   0.15   0.02
    41   1    -0.01  -0.04   0.16     0.18   0.02   0.10    -0.14   0.17   0.03
    42   1    -0.02   0.03  -0.05    -0.02   0.06  -0.04    -0.02   0.14   0.02
    43   1    -0.13  -0.03   0.03    -0.11   0.07   0.03     0.04   0.03  -0.03
    44   1    -0.06   0.02   0.08    -0.04   0.04   0.02     0.12  -0.07  -0.09
    45   1    -0.04   0.04   0.02     0.00   0.07   0.05     0.01  -0.10   0.01
    46   1    -0.04   0.05   0.02    -0.05   0.04   0.09     0.00  -0.04   0.01
    47   1    -0.04   0.03   0.01     0.03  -0.05  -0.04     0.16  -0.28  -0.09
    48   1     0.04   0.02   0.03    -0.01   0.07  -0.08    -0.03  -0.06  -0.20
    49   1    -0.01  -0.11  -0.03    -0.13  -0.30   0.07     0.02  -0.12   0.06
    50   1     0.01  -0.04   0.02     0.03  -0.03   0.29    -0.00   0.04   0.17
    51   1    -0.09   0.10  -0.14     0.04  -0.08   0.00    -0.11  -0.14   0.02
    52   1    -0.07   0.10  -0.01     0.05  -0.02  -0.12    -0.08  -0.11   0.06
    53   1    -0.06   0.09  -0.02     0.08  -0.06  -0.09    -0.08  -0.10  -0.19
    54   1    -0.07   0.01   0.02    -0.03  -0.08  -0.02     0.06  -0.15  -0.06
    55   1     0.05   0.06  -0.32    -0.05   0.01   0.16     0.04   0.05  -0.16
    56   1     0.25   0.32  -0.05    -0.07  -0.12   0.06     0.21   0.21   0.02
    57   1    -0.10   0.12   0.03    -0.10  -0.06  -0.13    -0.06  -0.00  -0.01
    58   1     0.00   0.13  -0.05    -0.05  -0.10   0.05     0.02  -0.02   0.07
    59   1    -0.06   0.03   0.09    -0.08  -0.16   0.05    -0.03  -0.09   0.04
                     28                     29                     30
                      A                      A                      A
 Frequencies --    417.7064               431.1747               437.9183
 Red. masses --      2.4698                 2.3446                 3.2277
 Frc consts  --      0.2539                 0.2568                 0.3647
 IR Inten    --      0.2359                 0.1393                 0.0146
  Atom  AN      X      Y      Z        X      Y      Z        X      Y      Z
     1   6     0.02  -0.01  -0.06     0.02   0.03   0.14     0.01  -0.00  -0.04
     2   6    -0.06   0.03   0.01     0.13  -0.03   0.02    -0.05   0.02   0.01
[...]
 .00005708,0.00005542,-0.00003552,-0.00013698,0.00030578,0.00040914,0.0
 0043806,-0.00034912,0.00034520,-0.00105115,0.00008049,-0.00013919,-0.0
 0011990,0.00030087,-0.00034285,-0.00012043,0.00020460,0.00009327,-0.00
 003394,-0.00005214,-0.00006621,-0.00001184,-0.00005790,0.00002137,0.00
 007201,0.00001252,0.00023399,0.00014994,-0.00007278,0.00007588,0.00007
 047,-0.00083783,-0.00097399,0.00029944,0.00007684,-0.00014588,-0.00036
 818,0.00001460,0.00001773,0.00000561,0.00008943,0.00008667,-0.00003749
 ,0.00000809,-0.00001911,-0.00000500,0.00000677,-0.00002893,0.00000542,
 0.00000319,0.00000429,-0.00000364,0.00000291,-0.00000343,-0.00000180,-
 0.00000092,-0.00000071,-0.00000117,-0.00000090,0.00000176,0.00000075,0
 .00000449,-0.00000541,0.00000409,0.00000207,-0.00000211,-0.00000241,0.
 00000548,-0.00000410,0.00000515,-0.00000279,0.00000007,-0.00000611,0.0
 0000372,0.,0.00000150,-0.00001342,-0.00002635,-0.00000963,0.00000511,0
 .00000277,-0.00001916,0.00002146,0.00000209,0.00000931,0.00000251,0.00
 001742,-0.00004239,0.00060210,0.00007254,0.00027253,-0.00002992,0.0002
 4898,-0.00008644,0.14061198,0.00006894,0.00006383,-0.00004246,0.000247
 06,0.00000952,0.00004644,0.00067826,-0.00047619,0.00058920,0.00026294,
 -0.00000108,0.00033389,0.00003552,0.00000357,0.00007683,0.00014050,-0.
 00003482,-0.00003899,0.00079098,0.00075723,-0.00000332,0.00002447,-0.0
 0005606,-0.00060273,-0.00003790,0.00011535,0.00027098,-0.00003921,0.00
 003429,-0.00001488,-0.00000733,0.00000685,-0.00002632,0.00000335,0.000
 01803,0.00000970,0.00000020,-0.00000539,-0.00001270,0.00000582,0.00001
 284,0.00001633,-0.00001668,-0.00003571,-0.00001591,0.00004642,0.000067
 45,0.00000998,-0.00002696,-0.00004865,-0.00005664,-0.00009353,0.000211
 71,0.00001800,-0.00039356,-0.00053022,-0.00030029,-0.00024031,0.000054
 88,-0.00039575,-0.00008564,0.00041415,0.00033460,-0.12405567,-0.229758
 59,0.00318427,0.00040194,0.00031373,-0.00004853,-0.00000849,0.00004067
 ,0.00002161,-0.00000579,-0.00003301,-0.00001762,-0.00000638,-0.0000041
 6,-0.00001260,0.00007669,0.00005883,-0.00006673,0.00096115,-0.00100457
 ,0.00003914,0.00005755,-0.00013638,-0.00005854,0.00010870,-0.00012222,
 -0.00006019,-0.00014316,0.00009287,0.00006302,0.00000529,0.00000924,-0
 .00002605,-0.00000959,0.00003043,-0.00001154,0.00002224,-0.00001157,0.
 00003672,-0.00004438,0.00001055,-0.00004406,-0.00004547,0.00003543,-0.
 00000052,-0.00018060,0.00028753,0.00047613,0.00001364,-0.00000169,-0.0
 0001483,-0.00007941,-0.00012285,0.00001688,0.00001313,0.00000877,0.000
 00072,0.00000276,-0.00003449,0.00001372,-0.00000231,0.00000325,0.00000
 153,0.00000335,-0.00000018,-0.00000011,-0.00000212,-0.00000302,0.00000
 207,-0.00000084,0.00000324,0.00000237,0.00000853,-0.00000908,0.0000077
 4,-0.00000233,-0.00000255,-0.00000648,0.00000881,-0.00000923,0.0000147
 4,0.00000041,-0.00000253,0.00000476,0.00001185,0.00000277,0.00000375,0
 .00001056,0.00005837,0.00005908,0.00002075,-0.00002389,0.00002940,-0.0
 0001967,0.00000012,-0.00000806,0.00001959,-0.00000080,0.00007033,0.000
 32408,0.00026035,0.00050831,0.00017318,0.00023060,0.00006881,0.1346166
 4,0.25035657,-0.00020569,-0.00005326,-0.00024859,0.00089603,-0.0001876
 3,0.00056527,-0.00031961,0.00010670,0.00037105,-0.00078865,0.00014550,
 0.00095429,-0.00016801,-0.00005544,-0.00000453,-0.00048966,-0.00021863
 ,-0.00059787,0.00204969,-0.00123623,-0.00534196,0.00045173,-0.00069763
 ,-0.00021569,-0.00009431,0.00011795,-0.00005926,0.00004403,0.00001732,
 0.00003351,0.00003170,-0.00001422,0.00001188,-0.00001188,-0.00000773,-
 0.00000553,0.00000269,0.00000187,0.00000161,-0.00000832,-0.00000127,-0
 .00000951,0.00000065,0.00002423,0.00000921,-0.00006635,-0.00003580,-0.
 00004026,0.00000117,0.00000500,-0.00000938,-0.00002577,-0.00013519,0.0
 0014454,0.00015910,0.00031255,0.00016299,0.00105102,0.00108250,0.00132
 574,0.01580392,0.02468691,-0.00138133,0.00144552,0.00329695,-0.0482032
 1,-0.00017008,-0.00019418,0.00006165,0.00000640,0.00001835,0.00000800,
 -0.00007683,0.00006700,0.00004829,0.00003031,-0.00001622,-0.00002254,-
 0.00025691,-0.00039266,-0.00036237,-0.00041496,0.00039844,-0.00032896,
 0.00006266,-0.00008221,-0.00002679,0.00005104,-0.00004503,-0.00015330,
 -0.00027111,0.00013639,-0.00001874,0.00002689,-0.00014010,0.00005484,-
 0.00002920,-0.00002562,0.00005425,0.00007360,0.00021215,0.00042971,0.0
 0000337,0.00000808,0.00029460,0.00133890,0.00136343,-0.00019237,-0.000
 19576,0.00006282,0.00013890,0.00000956,0.00000164,0.00001213,-0.000049
 82,-0.00001364,0.00006432,-0.00001583,0.00002106,0.00000365,-0.0000098
 5,0.00002178,-0.00000539,-0.00000042,-0.00000162,0.00000399,-0.0000006
 3,0.00000224,0.00000057,-0.00000099,-0.00000575,0.00000100,-0.00000054
 ,-0.00000015,0.00000030,-0.00000269,-0.00000152,-0.00000176,-0.0000002
 2,-0.00000089,0.00000053,-0.00000233,0.00000244,-0.00000155,0.00000248
 ,0.00000099,0.00000085,-0.00001496,0.00000435,-0.00000763,0.00000368,0
 .00000415,-0.00000759,-0.00000376,-0.00000439,0.00000233,-0.00001368,0
 .00000627,0.00000545,0.00005138,-0.00002618,0.00005408,-0.00052651,-0.
 00039107,-0.00047170,-0.00009545,-0.00037115,0.00034420,-0.00429184,-0
 .00387564,0.05202237,0.00004868,-0.00002607,0.00012069,-0.00020620,0.0
 0014811,-0.00019805,0.00038412,0.00009600,-0.00043654,0.00075242,0.000
 41784,-0.00046576,-0.00071771,0.00009290,0.00025880,-0.00113793,-0.000
 58005,0.00019154,0.00070942,-0.00028579,-0.00065030,0.00011064,-0.0000
 5096,-0.00011846,-0.00000256,-0.00001821,-0.00001347,0.00001032,-0.000
 00780,-0.00001604,-0.00001317,-0.00000159,0.00000031,0.00000666,-0.000
 00329,-0.00000205,-0.00000553,0.00000092,0.00000394,0.00000747,-0.0000
 0600,-0.00000401,-0.00001932,0.00001092,0.00001023,-0.00000308,-0.0000
 2729,0.00000736,-0.00005433,0.00000077,-0.00001719,-0.00000859,-0.0000
 2712,0.00009242,-0.00100759,0.00024495,0.00045510,-0.00172435,-0.00048
 205,0.00275474,0.01304934,0.00030204,0.01501737,-0.13490842,-0.0020277
 7,-0.12393970,0.00060330,0.00005723,-0.00045337,-0.00000231,-0.0000321
 7,-0.00001623,0.00001452,0.00000151,-0.00002130,-0.00001910,0.00001213
 ,0.00004051,0.00005520,-0.00003691,0.00008495,-0.00021132,0.00028377,0
 .00023955,-0.00014219,0.00013273,0.00010367,-0.00007175,0.00009703,0.0
 0005109,0.00020516,-0.00024056,-0.00015516,-0.00070707,0.00028590,0.00
 013056,0.00008696,-0.00006505,-0.00004252,-0.00105524,-0.00055282,0.00
 040112,0.00004697,0.00010346,0.00005434,0.00014500,0.00024956,-0.00012
 388,-0.00005305,-0.00001455,0.00001346,0.00001556,-0.00000433,-0.00000
 302,0.00000138,0.00000380,0.00001259,-0.00001196,0.00000639,0.00000400
 ,0.00000268,0.00001064,0.00000066,0.00000501,0.00000304,0.00000288,-0.
 00000370,-0.00000122,0.00000021,0.00000363,0.00000659,-0.00000189,0.00
 000197,-0.00000095,-0.00000072,-0.00000108,0.00000751,-0.00000217,0.00
 000101,-0.00000006,0.00000174,-0.00000284,0.00000407,-0.00000515,0.000
 00504,0.00000149,-0.00000467,0.00001312,-0.00000377,0.00001206,0.00000
 211,-0.00001800,-0.00000926,0.00000695,0.00002785,-0.00000819,0.000044
 92,-0.00002373,0.00000962,0.00003282,0.00005342,-0.00000036,0.00003185
 ,0.00022450,0.00013061,0.00052544,-0.00007995,0.00107895,-0.01056503,0
 .00142711,-0.01428397,0.14724479,0.00013544,-0.00004836,0.00019542,-0.
 00029263,-0.00007269,-0.00052596,0.00027352,-0.00030129,-0.00037375,-0
 .00022814,0.00012600,-0.00047178,0.00013841,0.00034797,-0.00031759,-0.
 00044727,0.00030615,0.00056693,0.00040257,0.00012512,0.00031722,-0.000
 06299,0.00000037,0.00021098,0.00000225,-0.00002174,-0.00004578,0.00000
 205,-0.00001684,0.00000881,0.00001792,0.00000773,0.00001918,-0.0000105
 3,-0.00000995,-0.00000915,0.00000277,0.00000362,0.00000394,-0.00000557
 ,-0.00000051,-0.00000534,0.00000670,0.00000907,0.00000386,-0.00000506,
 -0.00000336,-0.00003422,0.00005062,0.00000389,0.00002799,0.00005297,0.
 00015255,-0.00010524,0.00056390,0.00011278,-0.00060961,-0.00048914,0.0
 0047951,-0.00004224,0.00039598,-0.00149649,0.00066646,-0.00159597,-0.0
 4938609,-0.00279145,-0.00048927,-0.00002260,0.00037650,-0.00000192,-0.
 00001578,-0.00001790,0.00003691,-0.00001837,-0.00002805,-0.00004378,0.
 00002518,0.00006030,0.00017589,0.00005713,0.00014141,-0.00022854,-0.00
 089387,0.00023136,-0.00010056,0.00019706,0.00013685,-0.00005509,0.0000
 4095,0.00007584,-0.00002492,-0.00001604,0.00013081,0.00044073,-0.00010
 886,0.00013432,-0.00005687,-0.00015918,0.00006435,-0.00075273,-0.00039
 379,-0.00014333,0.00010547,-0.00013442,-0.00012189,-0.00000154,0.00003
 123,-0.00014889,0.00021430,-0.00006861,-0.00006704,-0.00004524,-0.0000
 2410,-0.00000642,0.00001163,0.00002456,-0.00001926,0.00000477,-0.00000
 554,-0.00000243,-0.00000288,0.00000888,-0.00000691,-0.00000456,-0.0000
 0462,-0.00000261,0.00000050,0.00000252,0.00000102,-0.00000125,-0.00000
 420,0.00000190,-0.00000040,-0.00000084,-0.00000081,-0.00000405,-0.0000
 0021,-0.00000293,-0.00000101,0.00000060,0.00000100,-0.00000294,0.00000
 047,-0.00000142,-0.00000129,0.00000076,0.00000338,-0.00001574,0.000002
 50,-0.00001115,0.00000994,0.00001416,-0.00000385,-0.00001557,-0.000020
 47,0.00000758,-0.00005241,0.00001769,-0.00001640,-0.00004104,-0.000021
 88,-0.00000866,0.00031825,0.00012983,0.00022183,0.00014093,0.00044663,
 0.00007820,-0.01541825,0.00061871,-0.02365118,0.00216641,0.04860816,0.
 00000708,-0.00009000,0.00008174,0.00002560,-0.00009581,-0.00030055,0.0
 0049101,0.00009187,-0.00034633,-0.00101022,0.00019632,0.00014139,0.000
 17354,-0.00024952,-0.00027434,-0.00015920,-0.00001086,-0.00046710,-0.0
 0108186,-0.00046708,0.00012094,0.00015644,0.00018024,-0.00015950,-0.00
 006938,0.00003298,0.00000768,0.00002559,0.00003210,-0.00000646,-0.0000
 6557,0.00001404,-0.00001762,0.00003548,0.00001074,0.00001001,-0.000010
 65,-0.00000378,0.00000203,0.00001775,-0.00001127,0.00000640,-0.0000099
 6,-0.00001030,-0.00000264,0.00012685,-0.00000168,0.00004861,-0.0000375
 1,0.00001629,-0.00003088,-0.00003364,0.00005843,0.00005548,0.00104381,
 -0.00162321,0.00002161,0.00453978,0.00041206,-0.00407502,-0.01681132,-
 0.00011720,-0.02043451,-0.12319557,-0.00321884,-0.22853527,-0.00050905
 ,0.00037873,0.00020063,0.00001475,-0.00002833,-0.00002086,0.00003537,-
 0.00002937,-0.00000711,-0.00003875,0.00001923,0.00006888,0.00012267,0.
 00015993,0.00006121,-0.00037284,0.00015458,0.00040556,-0.00010881,0.00
 017665,0.00017379,-0.00001705,-0.00001806,0.00006695,-0.00002983,0.000
 10473,0.00018421,0.00025006,-0.00029779,0.00054247,-0.00003907,0.00000
 099,0.00038671,0.00014646,0.00046546,0.00084377,-0.00009710,0.00003597
 ,0.00053039,0.00005463,-0.00003899,0.00011006,-0.00009794,0.00014186,0
 .00000343,0.00006731,0.00006234,0.00004559,-0.00000976,-0.00001339,0.0
 0000363,-0.00000510,-0.00000066,0.00000674,0.00000752,0.00001447,0.000
 00523,-0.00000234,-0.00000078,0.00000678,-0.00000592,-0.00000051,0.000
 00192,0.00000422,0.00002140,-0.00000358,0.00000239,-0.00000229,-0.0000
 0015,0.00000264,0.00001259,0.00000060,-0.00000294,0.00000772,0.0000033
 8,-0.00000123,0.00000453,-0.00000487,-0.00000450,-0.00000518,0.0000095
 4,0.00003462,-0.00001641,0.00002011,0.00000929,0.00000506,0.00002142,-
 0.00000325,0.00002338,0.00001498,0.00003542,-0.00002743,-0.00002526,-0
 .00001436,-0.00000541,0.00006154,0.00012659,-0.00001639,0.00034306,-0.
 00098891,0.00031818,-0.00169548,0.00073902,-0.00036238,0.00119491,0.13
 567388,0.00303557,0.24886721,0.00015694,0.00013094,-0.00001067,-0.0001
 5044,-0.00032879,-0.00002357,0.00029238,0.00000306,0.00004545,-0.00042
 330,-0.00173200,0.00388461,0.00047026,0.00015741,0.00001206,-0.0001233
 7,0.00006840,-0.00004332,0.00030029,0.00130101,-0.00047664,-0.00043974
 ,0.00033636,0.00124568,0.00015267,-0.00035553,-0.00055615,0.00002525,-
 0.00005147,0.00003013,0.00000068,-0.00000738,0.00003708,0.00000014,-0.
 00001688,-0.00000689,-0.00000402,0.00000585,0.00001522,-0.00000216,-0.
 00001525,-0.00001608,0.00000686,0.00003795,0.00001530,-0.00003018,-0.0
 0009215,-0.00000603,0.00006868,0.00006266,0.00009067,0.00022667,-0.000
 32339,0.00007124,0.00060626,0.00063613,0.00047001,0.00045824,-0.000254
 92,-0.00092090,-0.01253935,0.01406200,-0.00005662,-0.15009562,0.129192
 91,0.00447841,-0.00032798,-0.00020922,-0.00062357,-0.00000964,0.000087
 28,0.00000227,0.00001900,-0.00005872,-0.00002049,-0.00000043,-0.000027
 89,-0.00004662,0.00011084,0.00016070,0.00013150,-0.00011844,-0.0000010
 5,-0.00013214,-0.00001272,0.00005387,-0.00001074,0.00006101,-0.0000783
 5,-0.00002605,-0.00103054,0.00086201,0.00022941,0.00006450,-0.00018937
 ,0.00005848,-0.00004105,-0.00007935,0.00003910,-0.00007030,0.00000885,
 -0.00005526,-0.00005528,-0.00005598,0.00003334,0.00015206,-0.00009805,
 -0.00001850,0.00004029,-0.00126844,-0.00061255,-0.00000202,0.00002573,
 0.00004823,0.00018636,0.00022950,-0.00007736,-0.00000993,-0.00002684,-
 0.00000829,-0.00000147,0.00003541,-0.00001393,0.00000037,-0.00000529,-
 0.00000626,-0.00000283,-0.00000044,-0.00000095,0.00000335,0.00000729,-
 0.00000252,0.00000287,-0.00000372,-0.00000462,-0.00000824,0.00001158,-
 0.00000792,0.00000329,0.00000250,0.00000575,-0.00001015,0.00001044,-0.
 00001568,0.00000183,0.00000272,-0.00000817,-0.00000402,-0.00000507,-0.
 00000051,0.00001519,-0.00006426,-0.00007315,-0.00004047,0.00001948,-0.
 00003265,-0.00002375,0.00004367,-0.00004196,-0.00003748,0.00002485,-0.
 00016245,0.00004218,-0.00009456,0.00011186,-0.00013782,-0.00017079,-0.
 00002027,0.01282641,-0.01504510,-0.00069095,-0.01151904,0.01482833,0.0
 0086385,0.16097693,0.00002914,0.00008502,0.00000160,-0.00010504,0.0002
 1880,0.00021685,-0.00006818,0.00019039,0.00046889,-0.00071211,0.000456
 07,-0.00005515,-0.00012373,0.00001093,-0.00004192,-0.00003146,0.000037
 19,-0.00003026,-0.00007134,-0.00014186,-0.00055022,-0.00061296,-0.0011
 4952,0.00030493,-0.00017779,0.00018755,0.00011203,0.00003754,0.0000403
 5,-0.00000185,0.00002071,0.00000498,0.00000105,-0.00000630,-0.00000394
 ,-0.00000499,0.00001020,-0.00000226,0.00000030,-0.00002242,-0.00000194
 ,-0.00001051,0.00004730,0.00002001,0.00000434,-0.00002747,-0.00001891,
 -0.00001041,0.00004821,0.00005530,0.00008439,-0.00013062,0.00007973,-0
 .00004406,0.00169117,0.00032460,-0.00038402,0.00002632,0.00034883,-0.0
 0001144,-0.00119051,0.00178637,-0.00038413,0.12881655,-0.21069896,-0.0
 0679734,-0.00071507,-0.00033862,0.00142250,-0.00000347,-0.00001366,0.0
 0001076,0.00002755,-0.00003863,-0.00002507,0.00003306,-0.00000768,-0.0
 0006594,-0.00000446,0.00016907,0.00017527,0.00019647,-0.00025782,-0.00
 049466,0.00006501,-0.00012419,-0.00005899,0.00015957,-0.00017600,-0.00
 008267,0.00007412,0.00000002,0.00005662,-0.00003783,-0.00003598,0.0000
 1009,0.00004452,0.00001966,0.00004316,-0.00000457,0.00002741,-0.000006
 95,0.00000730,0.00001596,-0.00000434,0.00022152,0.00013725,-0.00003852
 ,-0.00124456,-0.00145665,0.00103561,-0.00002089,-0.00002393,-0.0000165
 6,-0.00007417,-0.00008286,0.00001254,-0.00000022,0.00000841,-0.0000010
 8,-0.00001492,0.00001321,-0.00000238,-0.00000550,0.00000082,0.00000207
 ,0.00000030,0.00000228,0.00000113,-0.00000412,-0.00000742,0.00000029,-
 0.00000361,0.00000059,0.00000236,-0.00000345,-0.00000646,-0.00000128,-
 0.00000039,0.00000026,0.00000129,0.00000015,0.00000080,0.00000028,-0.0
 0000835,-0.00000008,0.00000452,-0.00003862,0.00000973,-0.00002644,-0.0
 0002007,-0.00005333,-0.00004957,-0.00001757,-0.00001303,-0.00003056,0.
 00001472,-0.00001640,0.00003046,-0.00003943,-0.00001318,-0.00003661,0.
 00003436,-0.00016478,-0.00006165,-0.00007909,0.00008263,-0.00010692,0.
 01762571,-0.02172282,-0.00024684,-0.00186254,0.00136892,0.00057446,-0.
 14174869,0.23086777,-0.00008622,-0.00012668,0.00011327,0.00005823,0.00
 056356,-0.00025306,0.00022955,0.00004000,-0.00047771,0.00177561,0.0015
 3100,-0.00532089,-0.00028512,-0.00001784,-0.00044096,-0.00009049,0.000
 04201,-0.00001791,-0.00070036,-0.00040279,0.00101531,0.00031002,0.0004
 3338,0.00024386,-0.00009831,0.00010528,0.00002655,0.00000100,0.0000140
 0,0.00002765,0.00005983,-0.00001332,0.00000971,-0.00003242,-0.00000249
 ,-0.00000465,0.00001402,-0.00000119,-0.00000729,-0.00002074,0.00001649
 ,0.00000440,0.00004065,-0.00001694,-0.00001803,-0.00008600,0.00010180,
 -0.00003483,0.00011930,-0.00000566,0.00002055,-0.00004536,0.00034125,-
 0.00020872,0.00105516,0.00023251,-0.00231430,-0.00000862,-0.00043938,0
 .00112808,0.01721659,-0.02364635,0.00013200,0.00419679,-0.00610447,-0.
 05009971,-0.00113330,0.00019857,0.00012417,0.00000745,-0.00010460,-0.0
 0001386,-0.00000021,0.00002416,-0.00001899,-0.00000778,0.00003557,0.00
 008261,-0.00011891,0.00000353,0.00007428,-0.00027072,0.00003334,0.0003
 8483,-0.00011738,0.00013244,0.00017310,-0.00004088,0.00005024,0.000055
 38,0.00162765,-0.00112066,-0.00014019,0.00017411,-0.00009475,0.0003006
 6,0.00004783,0.00004043,0.00025649,-0.00000703,0.00012351,0.00004121,-
 0.00000860,0.00002438,0.00005593,-0.00015366,-0.00013917,-0.00006535,0
 .00022863,0.00048844,0.00007133,-0.00005553,-0.00004304,-0.00002218,-0
 .00001493,-0.00006013,-0.00000214,0.00001192,-0.00000328,-0.00000849,-
 0.00000788,-0.00000739,-0.00000848,0.00000015,-0.00000195,-0.00000936,
 0.00000803,-0.00000010,-0.00000131,-0.00000459,-0.00002116,0.00000432,
 -0.00000329,0.00000282,0.00000115,-0.00000087,-0.00001552,0.00000242,0
 .00000188,-0.00000697,-0.00000455,0.00000552,-0.00000945,0.00001047,-0
 .00000415,0.00000150,-0.00000571,-0.00003811,0.00001598,-0.00002781,-0
 .00003753,0.00000792,0.00000265,-0.00001082,-0.00005228,-0.00000174,-0
 .00011067,0.00009620,0.00002393,-0.00001905,-0.00011898,0.00007018,-0.
 00010184,-0.00005540,-0.00013673,0.00002008,0.00016307,0.00042383,-0.0
 0043393,-0.00020717,-0.00066323,-0.01596552,0.02287022,0.00172695,-0.0
 0708919,0.00510553,0.05372091\\-0.00002387,0.00004178,0.00003018,0.000
 03118,0.00005432,-0.00002302,-0.00002304,0.00002741,-0.00001026,0.0000
 2047,-0.00005269,0.00006298,-0.00000887,-0.00001742,-0.00002637,0.0000
 2390,0.00001570,-0.00001478,-0.00003338,0.00002628,0.00000654,0.000037
 58,-0.00001511,0.00003238,-0.00002222,-0.00001696,0.00001013,-0.000015
 57,-0.00003083,-0.00001621,-0.00000360,0.00004132,0.00001569,0.0000110
 6,0.00000003,-0.00002208,-0.00000512,-0.00002293,0.00000358,-0.0000150
 4,-0.00001791,0.00000812,0.00001204,0.00000091,-0.00001189,-0.00005896
 ,0.00002722,0.00000492,0.00001583,0.00001162,-0.00001379,0.00001520,0.
 00000545,0.00001318,-0.00002517,0.00002639,-0.00000340,-0.00004148,0.0
 0000393,0.00001672,0.00001036,-0.00003302,-0.00002061,0.00002774,-0.00
 003113,-0.00001656,0.00009809,0.00002471,-0.00000941,0.00002707,0.0000
 2972,-0.00001262,-0.00003117,-0.00001793,-0.00003326,0.00001190,-0.000
 03376,0.00002424,-0.00001116,0.00003100,-0.00001668,0.00001273,-0.0000
 5379,-0.00000020,0.00002017,0.00001965,0.00001923,-0.00001756,0.000018
 69,0.00000144,-0.00001045,-0.00003249,0.00000011,-0.00001058,-0.000026
 99,0.00000842,-0.00000489,-0.00000114,0.00000603,0.00001059,0.00000714
 ,-0.00001752,0.00000614,0.00000381,0.00000040,-0.00000758,-0.00000154,
 -0.00001453,-0.00001101,-0.00002081,0.00000750,0.00000122,0.00000426,0
 .00000204,0.00000388,0.00000224,-0.00000238,-0.00000791,0.00000864,0.0
 0000435,0.00000042,0.00000431,0.00000236,-0.00000749,0.00001345,-0.000
 00726,0.00001294,0.00001858,0.00000246,0.00000083,0.00000172,0.0000043
 8,0.00000638,-0.00000117,-0.00001103,-0.00000284,0.00000271,-0.0000037
 5,-0.00000626,-0.00001281,0.00001871,-0.00000563,-0.00000203,-0.000003
 69,-0.00000374,-0.00000042,-0.00000401,0.00000581,-0.00001441,0.000003
 24,0.00002459,0.00000344,0.00001503,0.00000195,-0.00000538,-0.00001230
 ,-0.00001554,-0.00000167,0.00001670,0.00000701,-0.00000670,-0.00000372
 ,-0.00000274,-0.00001087,0.00000255,0.00000657,0.00000953,-0.00001469,
 -0.00001060,0.00000643,0.00000415,-0.00000854,0.00000052,0.00000240,-0
 .00001164,-0.00001100,-0.00000413\\\@


 FROM THE ASHES OF OUR DESPAIR GROW THE FLOWERS OF TOMORROW.
 Job cpu time:       0 days  0 hours 18 minutes 22.2 seconds.
 Elapsed time:       0 days  0 hours 20 minutes 56.7 seconds.
 File lengths (MBytes):  RWF=   1168 Int=      0 D2E=      0 Chk=     16 Scr=      1
 Normal termination of Gaussian 16 at Fri Feb 23 19:02:38 2024.
