 Entering Gaussian System, Link 0=g16
 Input=/Volumes/SSD-PMU3/b3lyp_6-31gd_freq/RKIDPJWNRSGEPE-SSDOTTSWSA-N_calculating/gaussianinput0.gjf
 Output=/Volumes/SSD-PMU3/b3lyp_6-31gd_freq/RKIDPJWNRSGEPE-SSDOTTSWSA-N_calculating/gaussianinput0.log
 Initial command:
 /Applications/g16/l1.exe "/Users/macmini_m1_2022/PycharmProjects/sphere_model/sphere_model_lib/Gau-55417.inp" -scrdir="/Users/macmini_m1_2022/PycharmProjects/sphere_model/sphere_model_lib/"
 Entering Link 1 = /Applications/g16/l1.exe PID=     55418.
  
 Copyright (c) 1988,1990,1992,1993,1995,1998,2003,2009,2016,
            Gaussian, Inc.  All Rights Reserved.
  
 This is part of the Gaussian(R) 16 program.  It is based on
 the Gaussian(R) 09 system (copyright 2009, Gaussian, Inc.),
 the Gaussian(R) 03 system (copyright 2003, Gaussian, Inc.),
 the Gaussian(R) 98 system (copyright 1998, Gaussian, Inc.),
 the Gaussian(R) 94 system (copyright 1995, Gaussian, Inc.),
 the Gaussian 92(TM) system (copyright 1992, Gaussian, Inc.),
 the Gaussian 90(TM) system (copyright 1990, Gaussian, Inc.),
 the Gaussian 88(TM) system (copyright 1988, Gaussian, Inc.),
 the Gaussian 86(TM) system (copyright 1986, Carnegie Mellon
 University), and the Gaussian 82(TM) system (copyright 1983,
 Carnegie Mellon University). Gaussian is a federally registered
 trademark of Gaussian, Inc.
  
 This software contains proprietary and confidential information,
 including trade secrets, belonging to Gaussian, Inc.
  
 This software is provided under written license and may be
 used, copied, transmitted, or stored only in accord with that
 written license.
  
 The following legend is applicable only to US Government
 contracts under FAR:
  
                    RESTRICTED RIGHTS LEGEND
  
 Use, reproduction and disclosure by the US Government is
 subject to restrictions as set forth in subparagraphs (a)
 and (c) of the Commercial Computer Software - Restricted
 Rights clause in FAR 52.227-19.
  
 Gaussian, Inc.
 340 Quinnipiac St., Bldg. 40, Wallingford CT 06492
  
  
 ---------------------------------------------------------------
 Warning -- This program may not be used in any manner that
 competes with the business of Gaussian, Inc. or will provide
 assistance to any competitor of Gaussian, Inc.  The licensee
 of this program is prohibited from giving any competitor of
 Gaussian, Inc. access to this program.  By using this program,
 the user acknowledges that Gaussian, Inc. is engaged in the
 business of creating and licensing software in the field of
 computational chemistry and represents and warrants to the
 licensee that it is not a competitor of Gaussian, Inc. and that
 it will not use this program in any manner prohibited above.
 ---------------------------------------------------------------
  

 Cite this work as:
 Gaussian 16, Revision A.03,
 M. J. Frisch, G. W. Trucks, H. B. Schlegel, G. E. Scuseria, 
 M. A. Robb, J. R. Cheeseman, G. Scalmani, V. Barone, 
 G. A. Petersson, H. Nakatsuji, X. Li, M. Caricato, A. V. Marenich, 
 J. Bloino, B. G. Janesko, R. Gomperts, B. Mennucci, H. P. Hratchian, 
 J. V. Ortiz, A. F. Izmaylov, J. L. Sonnenberg, D. Williams-Young, 
 F. Ding, F. Lipparini, F. Egidi, J. Goings, B. Peng, A. Petrone, 
 T. Henderson, D. Ranasinghe, V. G. Zakrzewski, J. Gao, N. Rega, 
 G. Zheng, W. Liang, M. Hada, M. Ehara, K. Toyota, R. Fukuda, 
 J. Hasegawa, M. Ishida, T. Nakajima, Y. Honda, O. Kitao, H. Nakai, 
 T. Vreven, K. Throssell, J. A. Montgomery, Jr., J. E. Peralta, 
 F. Ogliaro, M. J. Bearpark, J. J. Heyd, E. N. Brothers, K. N. Kudin, 
 V. N. Staroverov, T. A. Keith, R. Kobayashi, J. Normand, 
 K. Raghavachari, A. P. Rendell, J. C. Burant, S. S. Iyengar, 
 J. Tomasi, M. Cossi, J. M. Millam, M. Klene, C. Adamo, R. Cammi, 
 J. W. Ochterski, R. L. Martin, K. Morokuma, O. Farkas, 
 J. B. Foresman, and D. J. Fox, Gaussian, Inc., Wallingford CT, 2016.
 
 ******************************************
 Gaussian 16:  EM64M-G16RevA.03 25-Dec-2016
                21-Feb-2024 
 ******************************************
 %nprocshared=8
 Will use up to    8 processors via shared memory.
 %mem=4GB
 %chk= 0.chk
 ---------------------
 # freq b3lyp/6-31g(d)
 ---------------------
 1/10=4,30=1,38=1/1,3;
 2/12=2,17=6,18=5,40=1/2;
 3/5=1,6=6,7=1,11=2,25=1,30=1,71=2,74=-5,140=1/1,2,3;
 4//1;
 5/5=2,38=5,98=1/2;
 8/6=4,10=90,11=11/1;
 11/6=1,8=1,9=11,15=111,16=1/1,2,10;
 10/6=1/2;
 6/7=2,8=2,9=2,10=2,28=1/1;
 7/8=1,10=1,25=1/1,2,3,16;
 1/10=4,30=1/3;
 99//99;
 ---------
 good luck
 ---------
 Symbolic Z-matrix:
 Charge =  0 Multiplicity = 1
 O                     1.21757   0.        0. 
 C                     0.        0.        0. 
 C                    -0.81753  -1.30696   0.00536 
 C                    -1.38739  -1.51008   1.43192 
 C                     0.09379  -2.49317  -0.34166 
 C                    -1.96605  -1.2013   -1.03656 
 C                    -2.8116    0.08262  -0.95999 
 C                    -3.90059   0.09274  -2.04015 
 C                    -1.89757   1.31399  -1.06687 
 C                    -0.79228   1.30333   0.00536 
 H                    -2.06039  -0.70438   1.74129 
 H                    -0.57695  -1.57299   2.16682 
 H                    -1.95249  -2.44908   1.47269 
 H                     0.54529  -2.3681   -1.33141 
 H                    -0.48262  -3.42595  -0.3414 
 H                     0.90967  -2.58666   0.3803 
 H                    -2.61285  -2.08377  -0.93258 
 H                    -1.5262   -1.26186  -2.04372 
 H                    -3.31215   0.11694   0.01944 
 H                    -3.45874   0.06129  -3.04436 
 H                    -4.56653  -0.77269  -1.94248 
 H                    -4.51549   0.99819  -1.97497 
 H                    -2.4856    2.2368   -0.98282 
 H                    -1.43424   1.33018  -2.06446 
 H                    -1.25179   1.42337   0.99752 
 H                    -0.08375   2.12628  -0.12679 
 

 GradGradGradGradGradGradGradGradGradGradGradGradGradGradGradGradGradGrad
 Berny optimization.
 Initialization pass.
 Trust Radius=3.00D-01 FncErr=1.00D-07 GrdErr=1.00D-07 EigMax=2.50D+02 EigMin=1.00D-04
 Number of steps in this run=      2 maximum allowed number of steps=      2.
 GradGradGradGradGradGradGradGradGradGradGradGradGradGradGradGradGradGrad

                          Input orientation:                          
 ---------------------------------------------------------------------
 Center     Atomic      Atomic             Coordinates (Angstroms)
 Number     Number       Type             X           Y           Z
 ---------------------------------------------------------------------
      1          8           0        1.217565    0.000000    0.000000
      2          6           0        0.000000    0.000000    0.000000
      3          6           0       -0.817528   -1.306961    0.005360
      4          6           0       -1.387393   -1.510076    1.431916
      5          6           0        0.093792   -2.493169   -0.341656
      6          6           0       -1.966047   -1.201302   -1.036560
      7          6           0       -2.811604    0.082618   -0.959989
      8          6           0       -3.900594    0.092737   -2.040148
      9          6           0       -1.897566    1.313993   -1.066867
     10          6           0       -0.792283    1.303330    0.005360
     11          1           0       -2.060387   -0.704380    1.741287
     12          1           0       -0.576948   -1.572992    2.166818
     13          1           0       -1.952489   -2.449079    1.472685
     14          1           0        0.545288   -2.368105   -1.331407
     15          1           0       -0.482615   -3.425945   -0.341401
     16          1           0        0.909674   -2.586660    0.380302
     17          1           0       -2.612849   -2.083770   -0.932578
     18          1           0       -1.526197   -1.261860   -2.043720
     19          1           0       -3.312146    0.116936    0.019443
     20          1           0       -3.458738    0.061291   -3.044356
     21          1           0       -4.566527   -0.772689   -1.942479
     22          1           0       -4.515489    0.998185   -1.974970
     23          1           0       -2.485596    2.236800   -0.982816
     24          1           0       -1.434240    1.330182   -2.064463
     25          1           0       -1.251789    1.423366    0.997524
     26          1           0       -0.083751    2.126275   -0.126787
 ---------------------------------------------------------------------
                    Distance matrix (angstroms):
                    1          2          3          4          5
     1  O    0.000000
     2  C    1.217565   0.000000
     3  C    2.418632   1.541599   0.000000
     4  C    3.334144   2.501114   1.549537   0.000000
     5  C    2.755991   2.518217   1.535583   2.511163   0.000000
     6  C    3.557101   2.526445   1.554303   2.554125   2.528784
     7  C    4.142778   2.972124   2.615180   3.207220   3.931710
     8  C    5.510568   4.402890   3.955825   4.576070   5.052416
     9  C    3.545254   2.542743   3.030768   3.805202   4.357284
    10  C    2.395451   1.525257   2.610413   3.210058   3.913943
    11  H    3.777989   2.788086   2.218388   1.094430   3.489829
    12  H    3.223303   2.739028   2.191016   1.095838   2.754825
    13  H    4.268024   3.461070   2.178443   1.096687   2.735150
    14  H    2.798664   2.770903   2.184088   3.479572   1.095033
    15  H    3.839826   3.476575   2.173132   2.762939   1.096502
    16  H    2.632534   2.768203   2.182072   2.746169   1.093447
    17  H    4.459133   3.469694   2.169409   2.724280   2.800482
    18  H    3.646548   2.845762   2.168634   3.487252   2.652830
    19  H    4.531262   3.314267   2.872421   2.889104   4.306211
    20  H    5.580293   4.608116   4.260149   5.176551   5.142988
    21  H    6.150284   5.022294   4.258464   4.694377   5.219316
    22  H    6.145306   5.028570   4.786473   5.261486   6.008555
    23  H    4.436508   3.485310   4.039454   4.590867   5.425582
    24  H    3.614341   2.844018   3.408669   4.504878   4.463290
    25  H    3.019724   2.141962   2.937287   2.968529   4.352383
    26  H    2.496106   2.131698   3.513261   4.165584   4.627845
                    6          7          8          9         10
     6  C    0.000000
     7  C    1.539247   0.000000
     8  C    2.534600   1.533866   0.000000
     9  C    2.516410   1.537261   2.539855   0.000000
    10  C    2.955757   2.549450   3.912957   1.539946   0.000000
    11  H    2.823520   2.912144   4.280305   3.462090   2.941501
    12  H    3.511322   4.184693   5.614253   4.531604   3.604372
    13  H    2.802399   3.614619   4.753518   4.540160   4.192815
    14  H    2.784810   4.172855   5.130685   4.426665   4.129828
    15  H    2.762762   4.256390   5.191285   4.999540   4.752071
    16  H    3.492347   4.771722   6.014684   5.018963   4.262542
    17  H    1.099052   2.175659   2.760830   3.474832   3.958110
    18  H    1.100685   2.152758   2.733625   2.779780   3.364158
    19  H    2.159832   1.100458   2.142142   2.148034   2.785218
    20  H    2.802412   2.182618   1.097570   2.813713   4.237147
    21  H    2.786915   2.185541   1.096343   3.499184   4.727457
    22  H    3.495427   2.184416   1.096440   2.788890   4.228130
    23  H    3.477552   2.178831   2.777981   1.097459   2.171444
    24  H    2.783490   2.161807   2.759486   1.100059   2.167256
    25  H    3.396549   2.839452   4.244313   2.165803   1.099974
    26  H    3.929821   3.508838   4.729114   2.198517   1.093946
                   11         12         13         14         15
    11  H    0.000000
    12  H    1.770919   0.000000
    13  H    1.768548   1.772417   0.000000
    14  H    4.358781   3.758882   3.756112   0.000000
    15  H    3.772780   3.119855   2.530949   1.776435   0.000000
    16  H    3.770480   2.535588   3.066628   1.763658   1.778686
    17  H    3.059001   3.743266   2.520876   3.195894   2.586275
    18  H    3.862955   4.327413   3.735816   2.454021   2.944523
    19  H    2.281711   3.866314   3.247308   4.783307   4.548457
    20  H    5.044206   6.175106   5.382788   4.986821   5.322038
    21  H    4.455955   5.783040   4.615931   5.389751   5.126554
    22  H    4.768314   6.267174   5.508078   6.112082   6.205284
    23  H    4.031387   5.298834   5.317062   5.523850   6.040698
    24  H    4.360646   5.202606   5.202193   4.258313   5.147356
    25  H    2.394643   3.286460   3.963911   4.798818   5.089221
    26  H    3.925481   4.380462   5.194647   4.695344   5.570664
                   16         17         18         19         20
    16  H    0.000000
    17  H    3.792719   0.000000
    18  H    3.682994   1.758120   0.000000
    19  H    5.026272   2.497692   3.057341   0.000000
    20  H    6.150037   3.126727   2.546903   3.067809   0.000000
    21  H    6.218889   2.560408   3.081095   2.492798   1.771116
    22  H    6.915982   3.768961   3.748119   2.490445   1.771463
    23  H    6.054066   4.322736   3.779760   2.486269   3.151157
    24  H    5.178075   3.784885   2.593756   3.056331   2.582415
    25  H    4.597085   4.228213   4.066313   2.628397   4.802360
    26  H    4.843118   4.976958   4.151475   3.805438   4.915985
                   21         22         23         24         25
    21  H    0.000000
    22  H    1.771907   0.000000
    23  H    3.782625   2.576626   0.000000
    24  H    3.774675   3.100375   1.759905   0.000000
    25  H    4.945075   4.434889   2.470972   3.068833   0.000000
    26  H    5.638795   4.932410   2.552227   2.492423   1.767051
                   26
    26  H    0.000000
 Stoichiometry    C9H16O
 Framework group  C1[X(C9H16O)]
 Deg. of freedom    72
 Full point group                 C1      NOp   1
 Largest Abelian subgroup         C1      NOp   1
 Largest concise Abelian subgroup C1      NOp   1
                         Standard orientation:                         
 ---------------------------------------------------------------------
 Center     Atomic      Atomic             Coordinates (Angstroms)
 Number     Number       Type             X           Y           Z
 ---------------------------------------------------------------------
      1          8           0        2.053005    1.412340   -0.606249
      2          6           0        1.064826    0.910102   -0.102537
      3          6           0        0.910025   -0.616304    0.047952
      4          6           0        1.149991   -0.978128    1.535421
      5          6           0        1.957496   -1.334029   -0.815580
      6          6           0       -0.518642   -1.036331   -0.397409
      7          6           0       -1.668851   -0.213568    0.210341
      8          6           0       -3.028909   -0.697543   -0.308076
      9          6           0       -1.450827    1.279727   -0.082415
     10          6           0       -0.080804    1.769605    0.422056
     11          1           0        0.426909   -0.509913    2.210480
     12          1           0        2.153469   -0.671157    1.851113
     13          1           0        1.072987   -2.064106    1.667498
     14          1           0        1.842698   -1.074277   -1.873147
     15          1           0        1.851184   -2.420656   -0.714306
     16          1           0        2.971572   -1.053168   -0.518271
     17          1           0       -0.656222   -2.101989   -0.166410
     18          1           0       -0.578587   -0.951017   -1.493143
     19          1           0       -1.660121   -0.348927    1.302408
     20          1           0       -3.097214   -0.584788   -1.397700
     21          1           0       -3.191378   -1.755840   -0.072324
     22          1           0       -3.850261   -0.124526    0.138256
     23          1           0       -2.248849    1.880392    0.372316
     24          1           0       -1.517272    1.444959   -1.167963
     25          1           0       -0.066412    1.729700    1.521212
     26          1           0        0.117622    2.805410    0.131447
 ---------------------------------------------------------------------
 Rotational constants (GHZ):           1.8911814           1.0844811           0.8615036
 Standard basis: 6-31G(d) (6D, 7F)
 There are   182 symmetry adapted cartesian basis functions of A   symmetry.
 There are   182 symmetry adapted basis functions of A   symmetry.
   182 basis functions,   344 primitive gaussians,   182 cartesian basis functions
    39 alpha electrons       39 beta electrons
       nuclear repulsion energy       574.9804800946 Hartrees.
 NAtoms=   26 NActive=   26 NUniq=   26 SFac= 1.00D+00 NAtFMM=   60 NAOKFM=F Big=F
 Integral buffers will be    131072 words long.
 Raffenetti 2 integral format.
 Two-electron integral symmetry is turned on.
 One-electron integrals computed using PRISM.
 NBasis=   182 RedAO= T EigKep=  2.61D-03  NBF=   182
 NBsUse=   182 1.00D-06 EigRej= -1.00D+00 NBFU=   182
 ExpMin= 1.61D-01 ExpMax= 5.48D+03 ExpMxC= 8.25D+02 IAcc=3 IRadAn=         5 AccDes= 0.00D+00
 Harris functional with IExCor=  402 and IRadAn=       5 diagonalized for initial guess.
 HarFok:  IExCor=  402 AccDes= 0.00D+00 IRadAn=         5 IDoV= 1 UseB2=F ITyADJ=14
 ICtDFT=  3500011 ScaDFX=  1.000000  1.000000  1.000000  1.000000
 FoFCou: FMM=F IPFlag=           0 FMFlag=      100000 FMFlg1=           0
         NFxFlg=           0 DoJE=T BraDBF=F KetDBF=T FulRan=T
         wScrn=  0.000000 ICntrl=       500 IOpCl=  0 I1Cent=   200000004 NGrid=           0
         NMat0=    1 NMatS0=      1 NMatT0=    0 NMatD0=    1 NMtDS0=    0 NMtDT0=    0
 Petite list used in FoFCou.
 Requested convergence on RMS density matrix=1.00D-08 within 128 cycles.
 Requested convergence on MAX density matrix=1.00D-06.
 Requested convergence on             energy=1.00D-06.
 No special actions if energy rises.
 Integral accuracy reduced to 1.0D-05 until final iterations.
 Initial convergence to 1.0D-05 achieved.  Increase integral accuracy.
 SCF Done:  E(RB3LYP) =  -427.833022119     A.U. after   13 cycles
            NFock= 13  Conv=0.65D-08     -V/T= 2.0098
 DoSCS=F DFT=T ScalE2(SS,OS)=  1.000000  1.000000
 Range of M.O.s used for correlation:     1   182
 NBasis=   182 NAE=    39 NBE=    39 NFC=     0 NFV=     0
 NROrb=    182 NOA=    39 NOB=    39 NVA=   143 NVB=   143
 Symmetrizing basis deriv contribution to polar:
 IMax=3 JMax=2 DiffMx= 0.00D+00
 G2DrvN: will do    27 centers at a time, making    1 passes.
 Calling FoFCou, ICntrl=  3107 FMM=F I1Cent=   0 AccDes= 0.00D+00.
 End of G2Drv F.D. properties file   721 does not exist.
 End of G2Drv F.D. properties file   722 does not exist.
 End of G2Drv F.D. properties file   788 does not exist.
          IDoAtm=11111111111111111111111111
          Differentiating once with respect to electric field.
                with respect to dipole field.
          Differentiating once with respect to nuclear coordinates.
 Keep R1 ints in memory in canonical form, NReq=146744168.
          There are    81 degrees of freedom in the 1st order CPHF.  IDoFFX=6 NUNeed=     3.
     78 vectors produced by pass  0 Test12= 6.89D-15 1.23D-09 XBig12= 6.53D+01 2.26D+00.
 AX will form    78 AO Fock derivatives at one time.
     78 vectors produced by pass  1 Test12= 6.89D-15 1.23D-09 XBig12= 1.04D+01 9.63D-01.
     78 vectors produced by pass  2 Test12= 6.89D-15 1.23D-09 XBig12= 6.54D-02 2.56D-02.
     78 vectors produced by pass  3 Test12= 6.89D-15 1.23D-09 XBig12= 1.85D-04 1.67D-03.
     78 vectors produced by pass  4 Test12= 6.89D-15 1.23D-09 XBig12= 1.89D-07 4.03D-05.
     33 vectors produced by pass  5 Test12= 6.89D-15 1.23D-09 XBig12= 1.19D-10 1.17D-06.
      3 vectors produced by pass  6 Test12= 6.89D-15 1.23D-09 XBig12= 8.21D-14 3.83D-08.
 InvSVY:  IOpt=1 It=  1 EMax= 8.88D-15
 Solved reduced A of dimension   426 with    81 vectors.
 Isotropic polarizability for W=    0.000000       92.92 Bohr**3.
 End of Minotr F.D. properties file   721 does not exist.
 End of Minotr F.D. properties file   722 does not exist.
 End of Minotr F.D. properties file   788 does not exist.

 **********************************************************************

            Population analysis using the SCF density.

 **********************************************************************

 Orbital symmetries:
       Occupied  (A) (A) (A) (A) (A) (A) (A) (A) (A) (A) (A) (A)
                 (A) (A) (A) (A) (A) (A) (A) (A) (A) (A) (A) (A)
                 (A) (A) (A) (A) (A) (A) (A) (A) (A) (A) (A) (A)
                 (A) (A) (A)
       Virtual   (A) (A) (A) (A) (A) (A) (A) (A) (A) (A) (A) (A)
                 (A) (A) (A) (A) (A) (A) (A) (A) (A) (A) (A) (A)
                 (A) (A) (A) (A) (A) (A) (A) (A) (A) (A) (A) (A)
                 (A) (A) (A) (A) (A) (A) (A) (A) (A) (A) (A) (A)
                 (A) (A) (A) (A) (A) (A) (A) (A) (A) (A) (A) (A)
                 (A) (A) (A) (A) (A) (A) (A) (A) (A) (A) (A) (A)
                 (A) (A) (A) (A) (A) (A) (A) (A) (A) (A) (A) (A)
                 (A) (A) (A) (A) (A) (A) (A) (A) (A) (A) (A) (A)
                 (A) (A) (A) (A) (A) (A) (A) (A) (A) (A) (A) (A)
                 (A) (A) (A) (A) (A) (A) (A) (A) (A) (A) (A) (A)
                 (A) (A) (A) (A) (A) (A) (A) (A) (A) (A) (A) (A)
                 (A) (A) (A) (A) (A) (A) (A) (A) (A) (A) (A)
 The electronic state is 1-A.
 Alpha  occ. eigenvalues --  -19.13206 -10.26462 -10.20216 -10.19468 -10.19064
 Alpha  occ. eigenvalues --  -10.18876 -10.18667 -10.18455 -10.17935 -10.16931
 Alpha  occ. eigenvalues --   -1.03105  -0.84237  -0.79010  -0.75250  -0.68897
 Alpha  occ. eigenvalues --   -0.68021  -0.65508  -0.59895  -0.57225  -0.51067
 Alpha  occ. eigenvalues --   -0.46806  -0.46034  -0.45221  -0.44206  -0.43451
 Alpha  occ. eigenvalues --   -0.41707  -0.40968  -0.39234  -0.38669  -0.37638
 Alpha  occ. eigenvalues --   -0.36985  -0.36574  -0.35834  -0.34380  -0.34060
 Alpha  occ. eigenvalues --   -0.31949  -0.31574  -0.30843  -0.23195
 Alpha virt. eigenvalues --   -0.01142   0.07682   0.09789   0.10802   0.11881
 Alpha virt. eigenvalues --    0.13138   0.14297   0.15034   0.15706   0.16748
 Alpha virt. eigenvalues --    0.16946   0.17355   0.18064   0.19063   0.19161
 Alpha virt. eigenvalues --    0.20369   0.21251   0.21571   0.22781   0.23226
 Alpha virt. eigenvalues --    0.25894   0.26519   0.27249   0.27741   0.28237
 Alpha virt. eigenvalues --    0.33010   0.37127   0.48941   0.50151   0.51116
 Alpha virt. eigenvalues --    0.51469   0.52519   0.55032   0.55186   0.58752
 Alpha virt. eigenvalues --    0.61050   0.62431   0.63861   0.65337   0.66256
 Alpha virt. eigenvalues --    0.68054   0.69244   0.70821   0.72312   0.73246
 Alpha virt. eigenvalues --    0.76570   0.77896   0.79039   0.82056   0.83266
 Alpha virt. eigenvalues --    0.85556   0.85851   0.87062   0.87328   0.88031
 Alpha virt. eigenvalues --    0.89701   0.90434   0.90913   0.91941   0.92537
 Alpha virt. eigenvalues --    0.92961   0.94209   0.95068   0.95597   0.97373
 Alpha virt. eigenvalues --    0.97699   0.99765   1.00007   1.02169   1.03734
 Alpha virt. eigenvalues --    1.09654   1.11711   1.14563   1.17374   1.22678
 Alpha virt. eigenvalues --    1.28639   1.34866   1.38186   1.42551   1.44777
 Alpha virt. eigenvalues --    1.47805   1.52655   1.59989   1.62275   1.65359
 Alpha virt. eigenvalues --    1.68065   1.70535   1.72815   1.74679   1.78020
 Alpha virt. eigenvalues --    1.80026   1.83144   1.83671   1.86347   1.87338
 Alpha virt. eigenvalues --    1.88998   1.91679   1.92784   1.93971   1.97309
 Alpha virt. eigenvalues --    1.98904   2.00674   2.01270   2.03452   2.04768
 Alpha virt. eigenvalues --    2.08831   2.12749   2.14229   2.17464   2.21702
 Alpha virt. eigenvalues --    2.22807   2.24666   2.25656   2.25851   2.28528
 Alpha virt. eigenvalues --    2.29918   2.36223   2.39558   2.42335   2.46265
 Alpha virt. eigenvalues --    2.48342   2.50789   2.52399   2.57950   2.64192
 Alpha virt. eigenvalues --    2.66633   2.72620   2.73904   2.76605   2.81600
 Alpha virt. eigenvalues --    2.83437   2.99247   3.03932   4.05913   4.12223
 Alpha virt. eigenvalues --    4.22361   4.25399   4.33380   4.34179   4.40205
 Alpha virt. eigenvalues --    4.60709   4.61455   4.75739
          Condensed to atoms (all electrons):
               1          2          3          4          5          6
     1  O    8.018643   0.577726  -0.089198  -0.001020   0.003350   0.001909
     2  C    0.577726   4.542832   0.303251  -0.045943  -0.038274  -0.030732
     3  C   -0.089198   0.303251   5.110558   0.359024   0.355260   0.348342
     4  C   -0.001020  -0.045943   0.359024   5.164822  -0.055874  -0.051629
     5  C    0.003350  -0.038274   0.355260  -0.055874   5.133229  -0.053931
     6  C    0.001909  -0.030732   0.348342  -0.051629  -0.053931   5.123316
     7  C    0.000163  -0.014666  -0.026481  -0.003634   0.003914   0.377234
     8  C    0.000001   0.000434   0.003518   0.000132  -0.000132  -0.043980
     9  C    0.001251  -0.027022  -0.000386  -0.001859  -0.000007  -0.048980
    10  C   -0.077712   0.342638  -0.133292   0.001495   0.006978  -0.006239
    11  H   -0.000034  -0.004882  -0.030117   0.364898   0.005551  -0.005186
    12  H    0.001476  -0.001291  -0.032968   0.368517  -0.004480   0.005354
    13  H   -0.000072   0.003840  -0.028787   0.368624  -0.005298  -0.005717
    14  H    0.002428  -0.004365  -0.028350   0.005452   0.370073  -0.004860
    15  H    0.000554   0.005289  -0.031158  -0.005343   0.360158  -0.004311
    16  H    0.006661  -0.006074  -0.025873  -0.003878   0.367715   0.004957
    17  H   -0.000079   0.003608  -0.029329  -0.009113  -0.003010   0.356082
    18  H    0.000176  -0.003448  -0.038164   0.005971  -0.005473   0.363201
    19  H   -0.000009  -0.001764  -0.003583   0.002262  -0.000007  -0.048982
    20  H   -0.000000  -0.000034   0.000039   0.000001  -0.000006  -0.006406
    21  H   -0.000000  -0.000006   0.000035  -0.000011  -0.000001  -0.003849
    22  H   -0.000000  -0.000006  -0.000123   0.000002   0.000002   0.004574
    23  H   -0.000065   0.003249  -0.000184  -0.000024   0.000012   0.005473
    24  H    0.000417  -0.002771   0.000397   0.000059  -0.000111  -0.006909
    25  H    0.001257  -0.029516   0.001846   0.000710  -0.000063  -0.001148
    26  H    0.005420  -0.024114   0.006438  -0.000029  -0.000166  -0.000149
               7          8          9         10         11         12
     1  O    0.000163   0.000001   0.001251  -0.077712  -0.000034   0.001476
     2  C   -0.014666   0.000434  -0.027022   0.342638  -0.004882  -0.001291
     3  C   -0.026481   0.003518  -0.000386  -0.133292  -0.030117  -0.032968
     4  C   -0.003634   0.000132  -0.001859   0.001495   0.364898   0.368517
     5  C    0.003914  -0.000132  -0.000007   0.006978   0.005551  -0.004480
     6  C    0.377234  -0.043980  -0.048980  -0.006239  -0.005186   0.005354
     7  C    4.886325   0.369975   0.383332  -0.037229   0.001573   0.000052
     8  C    0.369975   5.110021  -0.045887   0.004108  -0.000114   0.000001
     9  C    0.383332  -0.045887   5.060072   0.329289  -0.000209   0.000009
    10  C   -0.037229   0.004108   0.329289   5.296431   0.002340   0.000189
    11  H    0.001573  -0.000114  -0.000209   0.002340   0.572456  -0.029843
    12  H    0.000052   0.000001   0.000009   0.000189  -0.029843   0.558923
    13  H   -0.000214  -0.000034   0.000069  -0.000281  -0.029618  -0.028596
    14  H    0.000022  -0.000003  -0.000047   0.000141  -0.000186  -0.000039
    15  H    0.000056  -0.000002  -0.000010  -0.000100  -0.000040  -0.000098
    16  H   -0.000141   0.000002  -0.000006   0.000185  -0.000023   0.004472
    17  H   -0.032077  -0.004013   0.005744  -0.000329  -0.000046  -0.000040
    18  H   -0.040046  -0.005318  -0.007577   0.000276  -0.000054  -0.000169
    19  H    0.377264  -0.044358  -0.051140  -0.002070   0.003836  -0.000116
    20  H   -0.032806   0.372711  -0.006374   0.000070   0.000001   0.000000
    21  H   -0.028355   0.369022   0.004756  -0.000158   0.000003  -0.000000
    22  H   -0.028489   0.368779  -0.003734   0.000022   0.000006  -0.000000
    23  H   -0.031679  -0.003699   0.364643  -0.027924   0.000011   0.000000
    24  H   -0.039535  -0.004958   0.370291  -0.041847  -0.000002   0.000000
    25  H   -0.004145   0.000026  -0.034779   0.351842   0.002251   0.000008
    26  H    0.003841  -0.000125  -0.024981   0.343236  -0.000051  -0.000030
              13         14         15         16         17         18
     1  O   -0.000072   0.002428   0.000554   0.006661  -0.000079   0.000176
     2  C    0.003840  -0.004365   0.005289  -0.006074   0.003608  -0.003448
     3  C   -0.028787  -0.028350  -0.031158  -0.025873  -0.029329  -0.038164
     4  C    0.368624   0.005452  -0.005343  -0.003878  -0.009113   0.005971
     5  C   -0.005298   0.370073   0.360158   0.367715  -0.003010  -0.005473
     6  C   -0.005717  -0.004860  -0.004311   0.004957   0.356082   0.363201
     7  C   -0.000214   0.000022   0.000056  -0.000141  -0.032077  -0.040046
     8  C   -0.000034  -0.000003  -0.000002   0.000002  -0.004013  -0.005318
     9  C    0.000069  -0.000047  -0.000010  -0.000006   0.005744  -0.007577
    10  C   -0.000281   0.000141  -0.000100   0.000185  -0.000329   0.000276
    11  H   -0.029618  -0.000186  -0.000040  -0.000023  -0.000046  -0.000054
    12  H   -0.028596  -0.000039  -0.000098   0.004472  -0.000040  -0.000169
    13  H    0.565859  -0.000025   0.003791  -0.000325   0.005683   0.000010
    14  H   -0.000025   0.563956  -0.030842  -0.026704  -0.000317   0.005645
    15  H    0.003791  -0.030842   0.597326  -0.030320   0.003344  -0.000205
    16  H   -0.000325  -0.026704  -0.030320   0.549920  -0.000145   0.000063
    17  H    0.005683  -0.000317   0.003344  -0.000145   0.609175  -0.036538
    18  H    0.000010   0.005645  -0.000205   0.000063  -0.036538   0.611694
    19  H    0.000283   0.000002  -0.000004   0.000003  -0.004289   0.006425
    20  H    0.000000  -0.000000   0.000000   0.000000  -0.000306   0.005518
    21  H    0.000004   0.000000   0.000000   0.000000   0.004384  -0.000295
    22  H    0.000000   0.000000   0.000000  -0.000000  -0.000062  -0.000024
    23  H   -0.000001   0.000000  -0.000000  -0.000000  -0.000198  -0.000039
    24  H    0.000003   0.000010  -0.000000  -0.000000  -0.000020   0.005389
    25  H    0.000046  -0.000004  -0.000000  -0.000016  -0.000009   0.000070
    26  H    0.000004  -0.000005   0.000002  -0.000005   0.000019  -0.000031
              19         20         21         22         23         24
     1  O   -0.000009  -0.000000  -0.000000  -0.000000  -0.000065   0.000417
     2  C   -0.001764  -0.000034  -0.000006  -0.000006   0.003249  -0.002771
     3  C   -0.003583   0.000039   0.000035  -0.000123  -0.000184   0.000397
     4  C    0.002262   0.000001  -0.000011   0.000002  -0.000024   0.000059
     5  C   -0.000007  -0.000006  -0.000001   0.000002   0.000012  -0.000111
     6  C   -0.048982  -0.006406  -0.003849   0.004574   0.005473  -0.006909
     7  C    0.377264  -0.032806  -0.028355  -0.028489  -0.031679  -0.039535
     8  C   -0.044358   0.372711   0.369022   0.368779  -0.003699  -0.004958
     9  C   -0.051140  -0.006374   0.004756  -0.003734   0.364643   0.370291
    10  C   -0.002070   0.000070  -0.000158   0.000022  -0.027924  -0.041847
    11  H    0.003836   0.000001   0.000003   0.000006   0.000011  -0.000002
    12  H   -0.000116   0.000000  -0.000000  -0.000000   0.000000   0.000000
    13  H    0.000283   0.000000   0.000004   0.000000  -0.000001   0.000003
    14  H    0.000002  -0.000000   0.000000   0.000000   0.000000   0.000010
    15  H   -0.000004   0.000000   0.000000   0.000000  -0.000000  -0.000000
    16  H    0.000003   0.000000   0.000000  -0.000000  -0.000000  -0.000000
    17  H   -0.004289  -0.000306   0.004384  -0.000062  -0.000198  -0.000020
    18  H    0.006425   0.005518  -0.000295  -0.000024  -0.000039   0.005389
    19  H    0.637119   0.005650  -0.003364  -0.003121  -0.004540   0.006425
    20  H    0.005650   0.576546  -0.031130  -0.031119  -0.000272   0.005240
    21  H   -0.003364  -0.031130   0.575378  -0.030032  -0.000076  -0.000047
    22  H   -0.003121  -0.031119  -0.030032   0.576311   0.004182  -0.000273
    23  H   -0.004540  -0.000272  -0.000076   0.004182   0.598499  -0.037324
    24  H    0.006425   0.005240  -0.000047  -0.000273  -0.037324   0.604244
    25  H    0.003954   0.000005   0.000001  -0.000007  -0.006129   0.005609
    26  H   -0.000011   0.000001   0.000002  -0.000001  -0.002407  -0.003444
              25         26
     1  O    0.001257   0.005420
     2  C   -0.029516  -0.024114
     3  C    0.001846   0.006438
     4  C    0.000710  -0.000029
     5  C   -0.000063  -0.000166
     6  C   -0.001148  -0.000149
     7  C   -0.004145   0.003841
     8  C    0.000026  -0.000125
     9  C   -0.034779  -0.024981
    10  C    0.351842   0.343236
    11  H    0.002251  -0.000051
    12  H    0.000008  -0.000030
    13  H    0.000046   0.000004
    14  H   -0.000004  -0.000005
    15  H   -0.000000   0.000002
    16  H   -0.000016  -0.000005
    17  H   -0.000009   0.000019
    18  H    0.000070  -0.000031
    19  H    0.003954  -0.000011
    20  H    0.000005   0.000001
    21  H    0.000001   0.000002
    22  H   -0.000007  -0.000001
    23  H   -0.006129  -0.002407
    24  H    0.005609  -0.003444
    25  H    0.579491  -0.027218
    26  H   -0.027218   0.560989
 Mulliken charges:
               1
     1  O   -0.453245
     2  C    0.452043
     3  C    0.009286
     4  C   -0.463611
     5  C   -0.439409
     6  C   -0.267434
     7  C   -0.084253
     8  C   -0.446105
     9  C   -0.266457
    10  C   -0.352055
    11  H    0.147480
    12  H    0.158669
    13  H    0.150754
    14  H    0.148017
    15  H    0.131914
    16  H    0.159535
    17  H    0.131884
    18  H    0.132944
    19  H    0.124135
    20  H    0.142671
    21  H    0.143740
    22  H    0.143112
    23  H    0.138493
    24  H    0.139160
    25  H    0.155917
    26  H    0.162816
 Sum of Mulliken charges =  -0.00000
 Mulliken charges with hydrogens summed into heavy atoms:
               1
     1  O   -0.453245
     2  C    0.452043
     3  C    0.009286
     4  C   -0.006709
     5  C    0.000057
     6  C   -0.002606
     7  C    0.039881
     8  C   -0.016582
     9  C    0.011196
    10  C   -0.033322
 APT charges:
               1
     1  O   -0.629027
     2  C    0.680501
     3  C   -0.036284
     4  C    0.052349
     5  C    0.048848
     6  C    0.092657
     7  C    0.097182
     8  C    0.085901
     9  C    0.130474
    10  C   -0.052867
    11  H   -0.015783
    12  H   -0.012661
    13  H   -0.017706
    14  H   -0.015564
    15  H   -0.025887
    16  H   -0.006435
    17  H   -0.049344
    18  H   -0.040886
    19  H   -0.065164
    20  H   -0.023351
    21  H   -0.030555
    22  H   -0.035776
    23  H   -0.052893
    24  H   -0.039256
    25  H   -0.007775
    26  H   -0.030699
 Sum of APT charges =  -0.00000
 APT charges with hydrogens summed into heavy atoms:
               1
     1  O   -0.629027
     2  C    0.680501
     3  C   -0.036284
     4  C    0.006199
     5  C    0.000962
     6  C    0.002427
     7  C    0.032018
     8  C   -0.003780
     9  C    0.038325
    10  C   -0.091340
 Electronic spatial extent (au):  <R**2>=           1555.7544
 Charge=             -0.0000 electrons
 Dipole moment (field-independent basis, Debye):
    X=             -2.3414    Y=             -1.2131    Z=              1.2060  Tot=              2.8997
 Quadrupole moment (field-independent basis, Debye-Ang):
   XX=            -68.2925   YY=            -64.0678   ZZ=            -62.3743
   XY=             -4.7216   XZ=              2.4453   YZ=              1.5397
 Traceless Quadrupole moment (field-independent basis, Debye-Ang):
   XX=             -3.3810   YY=              0.8437   ZZ=              2.5372
   XY=             -4.7216   XZ=              2.4453   YZ=              1.5397
 Octapole moment (field-independent basis, Debye-Ang**2):
  XXX=             -4.0280  YYY=              2.2385  ZZZ=             -2.9951  XYY=             -5.1497
  XXY=             -7.2220  XXZ=              6.8338  XZZ=              1.0839  YZZ=              2.5780
  YYZ=              3.1174  XYZ=              3.2236
 Hexadecapole moment (field-independent basis, Debye-Ang**3):
 XXXX=          -1191.0485 YYYY=           -607.6404 ZZZZ=           -294.5745 XXXY=            -16.9688
 XXXZ=              5.4053 YYYX=              1.4734 YYYZ=             -3.2789 ZZZX=             -4.2918
 ZZZY=             -0.8418 XXYY=           -314.4497 XXZZ=           -246.1597 YYZZ=           -155.8859
 XXYZ=              6.6595 YYXZ=              2.9120 ZZXY=              1.7032
 N-N= 5.749804800946D+02 E-N=-2.142005184892D+03  KE= 4.236887097813D+02
  Exact polarizability: 103.391  -0.190  93.270  -2.134  -0.524  82.106
 Approx polarizability: 136.721   5.279 130.008  -7.674  -4.164 126.110
 Calling FoFJK, ICntrl=    100127 FMM=F ISym2X=0 I1Cent= 0 IOpClX= 0 NMat=1 NMatS=1 NMatT=0.
 Full mass-weighted force constant matrix:
 Low frequencies ---   -6.9082   -1.5358    0.0003    0.0005    0.0008    6.5474
 Low frequencies ---   69.5966  132.0110  177.7382
 Diagonal vibrational polarizability:
        4.5740115       5.1749071      14.5209683
 Harmonic frequencies (cm**-1), IR intensities (KM/Mole), Raman scattering
 activities (A**4/AMU), depolarization ratios for plane and unpolarized
 incident light, reduced masses (AMU), force constants (mDyne/A),
 and normal coordinates:
                      1                      2                      3
                      A                      A                      A
 Frequencies --     69.5930               132.0101               177.7381
 Red. masses --      4.9558                 2.3237                 2.2920
 Frc consts  --      0.0141                 0.0239                 0.0427
 IR Inten    --      2.7232                 0.0630                 0.2826
  Atom  AN      X      Y      Z        X      Y      Z        X      Y      Z
     1   8     0.19   0.01   0.35    -0.05   0.00   0.00     0.08  -0.02   0.07
     2   6     0.02   0.01   0.02    -0.02  -0.01   0.04     0.01  -0.00  -0.06
     3   6    -0.03   0.01  -0.06     0.00  -0.01   0.04    -0.01   0.01  -0.03
     4   6     0.06  -0.01  -0.07     0.18   0.01   0.01     0.05   0.14  -0.01
     5   6    -0.07   0.03  -0.12    -0.07   0.02  -0.08    -0.06  -0.07  -0.02
     6   6    -0.04  -0.02   0.02    -0.02  -0.07   0.17    -0.02  -0.00   0.02
     7   6    -0.02   0.02   0.01    -0.04   0.03   0.00    -0.04  -0.06   0.05
     8   6    -0.05  -0.06   0.17     0.00   0.05  -0.13     0.01  -0.00  -0.14
     9   6    -0.04  -0.02  -0.17     0.03   0.00  -0.08    -0.06  -0.02   0.18
    10   6    -0.06   0.05  -0.19    -0.02  -0.03   0.07     0.01   0.01  -0.06
    11   1     0.10  -0.00  -0.03     0.15  -0.11   0.07     0.12   0.25  -0.01
    12   1     0.08  -0.03  -0.14     0.16   0.16  -0.06     0.09   0.13  -0.11
    13   1     0.05  -0.01  -0.08     0.36  -0.01   0.01     0.01   0.16   0.12
    14   1    -0.13   0.04  -0.12    -0.17   0.07  -0.06    -0.17  -0.23  -0.05
    15   1    -0.05   0.02  -0.13    -0.08   0.01  -0.12    -0.00  -0.06   0.15
    16   1    -0.05   0.04  -0.18    -0.04  -0.01  -0.16    -0.04   0.02  -0.16
    17   1    -0.03  -0.00   0.09    -0.03  -0.03   0.36     0.01  -0.01   0.00
    18   1    -0.09  -0.08   0.02    -0.04  -0.27   0.15    -0.04   0.01   0.02
    19   1     0.06   0.14   0.03    -0.16   0.11   0.01    -0.11  -0.17   0.03
    20   1    -0.13  -0.20   0.16     0.15  -0.03  -0.15     0.11   0.19  -0.12
    21   1    -0.01  -0.04   0.31    -0.08   0.08  -0.07     0.02  -0.05  -0.34
    22   1    -0.02  -0.02   0.16    -0.03   0.12  -0.29    -0.04  -0.10  -0.11
    23   1    -0.05   0.03  -0.26    -0.01   0.06  -0.21     0.01  -0.08   0.37
    24   1    -0.02  -0.15  -0.19     0.18  -0.06  -0.10    -0.27   0.07   0.20
    25   1    -0.10   0.19  -0.19    -0.10  -0.12   0.06     0.17   0.13  -0.06
    26   1    -0.04   0.02  -0.30     0.01  -0.01   0.16    -0.04  -0.01  -0.18
                      4                      5                      6
                      A                      A                      A
 Frequencies --    213.6378               231.2609               240.2861
 Red. masses --      1.0573                 1.2994                 1.1446
 Frc consts  --      0.0284                 0.0409                 0.0389
 IR Inten    --      0.0894                 0.0218                 0.0558
  Atom  AN      X      Y      Z        X      Y      Z        X      Y      Z
     1   8     0.02  -0.02   0.01    -0.00   0.01   0.02     0.01   0.00   0.02
     2   6     0.00  -0.00  -0.02    -0.01  -0.01  -0.01     0.00  -0.01  -0.02
     3   6    -0.01   0.00  -0.01    -0.01  -0.01  -0.03    -0.01  -0.01  -0.04
     4   6    -0.01   0.04  -0.00     0.00   0.05  -0.01    -0.02   0.05  -0.02
     5   6     0.00  -0.00   0.00     0.04   0.00   0.02     0.03  -0.01   0.01
     6   6    -0.00  -0.01  -0.00    -0.01  -0.05  -0.02    -0.01  -0.01  -0.04
     7   6    -0.00  -0.01   0.00     0.00  -0.02  -0.03    -0.00  -0.01  -0.01
     8   6    -0.01   0.00   0.01    -0.06   0.07   0.04    -0.02   0.02   0.02
     9   6    -0.01  -0.01   0.02     0.03  -0.03  -0.04     0.01  -0.01   0.03
    10   6     0.01   0.00  -0.02    -0.00  -0.04   0.03     0.01  -0.03   0.03
    11   1    -0.25  -0.26  -0.05    -0.10  -0.07  -0.04    -0.18  -0.12  -0.07
    12   1    -0.15   0.41   0.11    -0.06   0.23   0.02    -0.12   0.28   0.05
    13   1     0.40   0.00  -0.05     0.19   0.04   0.01     0.22   0.03  -0.03
    14   1     0.25   0.30   0.05    -0.09  -0.23  -0.02    -0.07  -0.19  -0.03
    15   1    -0.26  -0.00  -0.29     0.26   0.00   0.24     0.18  -0.00   0.18
    16   1     0.01  -0.31   0.26     0.01   0.26  -0.12     0.01   0.18  -0.09
    17   1     0.00  -0.01   0.01    -0.00  -0.04   0.03    -0.01  -0.02  -0.05
    18   1    -0.01  -0.03  -0.01    -0.01  -0.09  -0.02    -0.02   0.01  -0.03
    19   1    -0.00  -0.03  -0.00     0.03  -0.01  -0.03     0.01  -0.03  -0.01
    20   1    -0.04   0.08   0.02    -0.26   0.45   0.09     0.12  -0.39  -0.03
    21   1     0.01  -0.02  -0.07     0.03  -0.02  -0.30    -0.24   0.14   0.41
    22   1    -0.00  -0.04   0.07     0.00  -0.12   0.39     0.03   0.34  -0.30
    23   1     0.01  -0.02   0.06     0.00  -0.01  -0.11     0.02  -0.02   0.07
    24   1    -0.04   0.01   0.03     0.10  -0.05  -0.05    -0.01   0.04   0.04
    25   1     0.04   0.01  -0.02    -0.03  -0.11   0.03     0.03  -0.08   0.03
    26   1    -0.00  -0.00  -0.03     0.00  -0.02   0.10     0.01  -0.01   0.08
                      7                      8                      9
                      A                      A                      A
 Frequencies --    260.0176               273.3025               308.7453
 Red. masses --      2.0719                 1.6994                 2.6548
 Frc consts  --      0.0825                 0.0748                 0.1491
 IR Inten    --      1.2373                 0.0325                 1.2553
  Atom  AN      X      Y      Z        X      Y      Z        X      Y      Z
     1   8     0.01   0.07   0.03    -0.01   0.00   0.01    -0.05   0.06   0.02
     2   6     0.02   0.01  -0.00    -0.02  -0.01  -0.01    -0.03  -0.01   0.00
     3   6    -0.01   0.02  -0.05     0.01  -0.01  -0.02     0.04  -0.02   0.03
     4   6    -0.01   0.17  -0.02     0.03   0.03  -0.01     0.22  -0.07  -0.01
     5   6    -0.07  -0.12  -0.01     0.09   0.06   0.02     0.04  -0.15   0.11
     6   6    -0.00   0.01  -0.05     0.00  -0.09  -0.00     0.02   0.09  -0.08
     7   6     0.01  -0.00  -0.04    -0.01  -0.07   0.00    -0.03   0.04  -0.06
     8   6    -0.00  -0.05   0.03    -0.09   0.14   0.01    -0.06   0.04   0.01
     9   6     0.05  -0.01  -0.05    -0.00  -0.07   0.02    -0.10   0.05  -0.01
    10   6     0.01  -0.07   0.13    -0.02  -0.02  -0.02    -0.08  -0.01  -0.04
    11   1     0.12   0.41  -0.05     0.22   0.29   0.02     0.29  -0.16   0.13
    12   1     0.06   0.03  -0.12     0.14  -0.21  -0.13     0.25  -0.00  -0.16
    13   1    -0.21   0.20   0.16    -0.26   0.07   0.09     0.34  -0.09  -0.05
    14   1     0.07  -0.03  -0.00     0.30   0.28   0.05     0.14  -0.25   0.08
    15   1    -0.32  -0.11  -0.09     0.01   0.05  -0.21    -0.07  -0.13   0.21
    16   1    -0.03  -0.38   0.09     0.06  -0.06   0.25     0.04  -0.23   0.17
    17   1     0.02   0.01  -0.05     0.04  -0.08   0.05    -0.04   0.06  -0.26
    18   1    -0.00   0.01  -0.05    -0.01  -0.13  -0.01     0.12   0.26  -0.08
    19   1     0.04   0.01  -0.04    -0.01  -0.10  -0.00     0.03   0.02  -0.06
    20   1    -0.07  -0.12   0.03    -0.05   0.10   0.00    -0.12   0.01   0.01
    21   1     0.04  -0.05   0.10    -0.33   0.19   0.07    -0.09   0.06   0.06
    22   1     0.00  -0.06   0.05     0.04   0.35  -0.03    -0.01   0.09   0.05
    23   1     0.02   0.01  -0.14    -0.01  -0.10   0.03    -0.07   0.01   0.09
    24   1     0.19  -0.01  -0.05    -0.03  -0.08   0.02    -0.18   0.12   0.00
    25   1    -0.06  -0.28   0.12     0.01   0.03  -0.02    -0.09  -0.03  -0.04
    26   1     0.02  -0.02   0.34    -0.05  -0.03  -0.07    -0.03  -0.02  -0.02
                     10                     11                     12
                      A                      A                      A
 Frequencies --    343.3572               369.5869               402.3152
 Red. masses --      3.1389                 2.1344                 4.4341
 Frc consts  --      0.2180                 0.1718                 0.4228
 IR Inten    --      2.8178                 0.4917                 1.3780
  Atom  AN      X      Y      Z        X      Y      Z        X      Y      Z
     1   8    -0.02   0.24   0.00     0.02   0.04   0.02    -0.19  -0.07   0.10
     2   6     0.04   0.10  -0.03    -0.01  -0.00  -0.08    -0.19  -0.09   0.05
     3   6     0.05   0.03  -0.03    -0.01  -0.01  -0.10    -0.03  -0.11  -0.06
     4   6    -0.10  -0.10  -0.04    -0.02  -0.03  -0.12    -0.03   0.06  -0.03
     5   6    -0.05  -0.16   0.01     0.13  -0.03   0.06     0.02  -0.07  -0.05
     6   6     0.04  -0.06   0.07    -0.07  -0.04   0.10     0.04  -0.11  -0.05
     7   6     0.05  -0.06   0.08    -0.05   0.09   0.01     0.21   0.06  -0.02
     8   6     0.04   0.09  -0.01     0.00  -0.06  -0.01     0.26   0.09   0.03
     9   6     0.03  -0.09   0.00    -0.04   0.10   0.02    -0.02   0.09   0.01
    10   6    -0.02   0.03  -0.05     0.01  -0.02   0.02    -0.08   0.10   0.01
    11   1    -0.23  -0.24  -0.08     0.01  -0.01  -0.10    -0.02   0.17  -0.10
    12   1    -0.16  -0.12   0.17     0.00  -0.12  -0.11    -0.03   0.14  -0.10
    13   1    -0.08  -0.13  -0.21    -0.11  -0.03  -0.16    -0.01   0.08   0.15
    14   1    -0.06  -0.28  -0.02     0.36  -0.08   0.03     0.03  -0.07  -0.05
    15   1    -0.21  -0.13   0.14     0.15  -0.03   0.10     0.02  -0.07  -0.06
    16   1     0.00  -0.29  -0.06     0.06   0.02   0.28     0.01  -0.08  -0.03
    17   1     0.13  -0.04   0.19    -0.09   0.03   0.41    -0.09  -0.06   0.09
    18   1    -0.05  -0.17   0.07    -0.18  -0.35   0.08     0.02  -0.22  -0.06
    19   1     0.01  -0.06   0.08    -0.09   0.15   0.02     0.29   0.07  -0.02
    20   1     0.13   0.16  -0.01     0.01  -0.08  -0.01     0.28   0.09   0.03
    21   1    -0.13   0.10  -0.08     0.17  -0.08  -0.01     0.24   0.09   0.03
    22   1     0.09   0.19  -0.04    -0.10  -0.19  -0.03     0.26   0.11   0.01
    23   1    -0.01  -0.09  -0.07     0.01   0.11   0.11    -0.10  -0.08   0.09
    24   1     0.04  -0.20  -0.01    -0.08   0.18   0.04    -0.08   0.16   0.03
    25   1     0.02   0.12  -0.05     0.05  -0.17   0.01    -0.11   0.28   0.01
    26   1    -0.10   0.03  -0.14     0.06   0.01   0.15     0.08   0.02  -0.17
                     13                     14                     15
                      A                      A                      A
 Frequencies --    441.2443               453.9006               514.7384
 Red. masses --      2.1268                 2.6726                 2.2513
 Frc consts  --      0.2440                 0.3244                 0.3514
 IR Inten    --      1.3411                 1.8482                 2.2507
  Atom  AN      X      Y      Z        X      Y      Z        X      Y      Z
     1   8    -0.00  -0.06  -0.00    -0.03   0.02   0.02    -0.09   0.08   0.01
     2   6    -0.04   0.03   0.01     0.00  -0.10  -0.04     0.02  -0.05   0.10
     3   6    -0.10   0.04  -0.06     0.09  -0.07  -0.01     0.03  -0.09  -0.02
     4   6     0.04   0.00  -0.12    -0.04   0.04   0.03     0.01   0.02   0.02
     5   6    -0.01   0.02   0.11     0.10  -0.03  -0.09     0.09  -0.06  -0.06
     6   6    -0.08   0.04  -0.03    -0.00   0.14   0.05    -0.06  -0.01  -0.02
     7   6    -0.00  -0.03   0.14    -0.04   0.06   0.18    -0.08   0.01   0.01
     8   6     0.06  -0.00  -0.02     0.06   0.05  -0.00    -0.11  -0.07  -0.02
     9   6     0.08  -0.08  -0.01    -0.07  -0.02  -0.05     0.09   0.02   0.03
    10   6     0.00   0.06   0.04    -0.06  -0.16  -0.05     0.09   0.08   0.01
    11   1     0.13  -0.06   0.02    -0.14   0.11  -0.12    -0.03   0.10  -0.09
    12   1     0.08   0.02  -0.26    -0.09   0.08   0.15    -0.02   0.10   0.02
    13   1     0.11  -0.01  -0.17    -0.07   0.05   0.14     0.03   0.04   0.18
    14   1     0.17  -0.08   0.06     0.08   0.07  -0.06     0.09  -0.02  -0.05
    15   1    -0.02   0.03   0.19     0.16  -0.04  -0.18     0.15  -0.07  -0.11
    16   1    -0.07   0.05   0.27     0.09   0.01  -0.08     0.07  -0.02  -0.04
    17   1    -0.03  -0.01  -0.23    -0.06   0.09  -0.23    -0.10  -0.02  -0.10
    18   1    -0.17   0.26  -0.01    -0.08   0.42   0.08    -0.06   0.08  -0.01
    19   1     0.00  -0.06   0.14    -0.07   0.11   0.18    -0.13  -0.03   0.00
    20   1     0.26   0.05  -0.02     0.26   0.15  -0.01    -0.12  -0.12  -0.03
    21   1     0.03  -0.02  -0.11     0.02   0.03  -0.13    -0.01  -0.07   0.01
    22   1    -0.02  -0.03  -0.14    -0.02   0.02  -0.12    -0.16  -0.13  -0.04
    23   1    -0.01   0.04  -0.32    -0.03   0.12  -0.17     0.08   0.13  -0.13
    24   1     0.28  -0.34  -0.07    -0.03  -0.23  -0.08     0.24  -0.05   0.01
    25   1     0.00   0.13   0.04    -0.10  -0.27  -0.06     0.11   0.56   0.03
    26   1    -0.05   0.05  -0.04     0.01  -0.14   0.07     0.16  -0.06  -0.44
                     16                     17                     18
                      A                      A                      A
 Frequencies --    562.0986               667.6943               725.1275
 Red. masses --      3.6925                 3.2465                 3.3832
 Frc consts  --      0.6874                 0.8527                 1.0481
 IR Inten    --      3.5183                 2.0697                 0.7343
  Atom  AN      X      Y      Z        X      Y      Z        X      Y      Z
     1   8    -0.06   0.19   0.05     0.12   0.03  -0.04     0.06   0.05  -0.11
     2   6    -0.02  -0.06  -0.13     0.02   0.14  -0.10     0.24  -0.00   0.26
     3   6    -0.14  -0.09   0.05    -0.05  -0.14   0.01    -0.05  -0.05  -0.01
     4   6     0.03  -0.03   0.09     0.02  -0.06   0.16    -0.01   0.01  -0.06
     5   6    -0.11   0.09   0.09     0.07  -0.07  -0.07    -0.03   0.01   0.03
     6   6    -0.11  -0.06  -0.06    -0.11  -0.12  -0.07    -0.12  -0.00  -0.05
     7   6     0.03   0.02  -0.01    -0.00  -0.01   0.05     0.00   0.03  -0.02
     8   6     0.08   0.00   0.01     0.02   0.00   0.01     0.09   0.04   0.03
     9   6     0.11   0.00   0.00    -0.05   0.04  -0.01    -0.10  -0.06  -0.05
    10   6     0.14  -0.14  -0.13    -0.08   0.18   0.07    -0.05  -0.08   0.01
    11   1     0.15  -0.04   0.22     0.05   0.02   0.15     0.04   0.10  -0.07
    12   1     0.08   0.02  -0.13     0.02   0.03   0.06    -0.01   0.15  -0.20
    13   1     0.11  -0.03   0.14     0.08  -0.04   0.35     0.10   0.03   0.15
    14   1    -0.09   0.24   0.12     0.06   0.05  -0.04     0.02   0.05   0.03
    15   1     0.07   0.06  -0.08     0.22  -0.10  -0.21     0.09  -0.00  -0.01
    16   1    -0.17   0.23   0.16     0.04   0.03  -0.04    -0.09   0.13   0.10
    17   1    -0.21  -0.07  -0.16    -0.25  -0.14  -0.23    -0.15   0.04   0.16
    18   1    -0.06   0.05  -0.06    -0.12   0.06  -0.06    -0.18  -0.19  -0.05
    19   1     0.10   0.01  -0.01     0.06  -0.02   0.04     0.10   0.07  -0.02
    20   1     0.11  -0.02   0.01     0.14   0.02   0.00     0.16   0.06   0.02
    21   1     0.16  -0.01   0.01     0.03  -0.01  -0.05     0.10   0.03  -0.01
    22   1     0.02  -0.06  -0.02    -0.05  -0.04  -0.08     0.06   0.02  -0.02
    23   1     0.23   0.03   0.16    -0.16  -0.02  -0.13     0.00  -0.13   0.23
    24   1    -0.04   0.08   0.02     0.02  -0.05  -0.03    -0.35   0.08  -0.01
    25   1     0.25  -0.27  -0.13    -0.06  -0.14   0.06    -0.40   0.22   0.02
    26   1     0.20  -0.13  -0.03    -0.21   0.29   0.36    -0.08  -0.12  -0.17
                     19                     20                     21
                      A                      A                      A
 Frequencies --    808.3301               846.8708               861.5942
 Red. masses --      1.9290                 2.1754                 2.0568
 Frc consts  --      0.7426                 0.9192                 0.8996
 IR Inten    --      1.5553                 2.3704                 6.6386
  Atom  AN      X      Y      Z        X      Y      Z        X      Y      Z
     1   8     0.03  -0.00  -0.00    -0.04  -0.04   0.01    -0.03  -0.03   0.01
     2   6    -0.01  -0.02  -0.08    -0.03   0.02   0.07    -0.05   0.08   0.04
     3   6    -0.01   0.03  -0.02     0.02   0.16  -0.05    -0.04   0.02   0.01
     4   6     0.01  -0.01   0.09     0.02   0.01   0.14    -0.00   0.00   0.01
     5   6     0.02  -0.01  -0.02     0.07   0.01  -0.06     0.06  -0.04  -0.07
     6   6    -0.05   0.10  -0.03    -0.09  -0.03  -0.14    -0.08   0.06   0.11
     7   6    -0.01   0.07  -0.09    -0.02   0.00   0.06     0.01   0.01  -0.07
     8   6     0.06   0.04  -0.00    -0.02   0.00   0.03     0.03   0.02  -0.03
     9   6    -0.01  -0.10   0.09     0.03   0.00  -0.02     0.14  -0.13  -0.03
    10   6    -0.07  -0.07   0.06     0.04  -0.03  -0.05     0.00   0.03  -0.05
    11   1     0.03  -0.06   0.14     0.05  -0.11   0.25    -0.00  -0.01   0.01
    12   1     0.03  -0.05   0.07     0.04  -0.10   0.17    -0.00  -0.01   0.02
    13   1     0.02  -0.03  -0.00    -0.00  -0.02  -0.09    -0.02   0.00   0.01
    14   1     0.04  -0.01  -0.03     0.08  -0.22  -0.12     0.17  -0.11  -0.09
    15   1     0.03  -0.01  -0.01    -0.23   0.06   0.18     0.07  -0.04  -0.00
    16   1     0.00   0.02   0.00     0.17  -0.24  -0.15     0.03  -0.03   0.02
    17   1    -0.13   0.18   0.31     0.05   0.02   0.17    -0.14   0.01  -0.13
    18   1    -0.05  -0.24  -0.06    -0.23  -0.30  -0.15    -0.08   0.29   0.13
    19   1    -0.01  -0.09  -0.11     0.19  -0.04   0.05    -0.20   0.12  -0.05
    20   1    -0.12  -0.09  -0.00     0.27   0.05   0.01    -0.23  -0.11  -0.02
    21   1     0.23   0.05   0.16     0.02  -0.04  -0.11     0.19   0.04   0.16
    22   1     0.08  -0.01   0.09    -0.19  -0.08  -0.18     0.09  -0.02   0.15
    23   1    -0.14  -0.02  -0.24     0.17   0.07   0.11     0.24  -0.31   0.39
    24   1     0.34  -0.19   0.05    -0.14  -0.01  -0.01    -0.22   0.15   0.04
    25   1     0.21   0.26   0.06    -0.09  -0.13  -0.06    -0.12  -0.15  -0.05
    26   1    -0.27  -0.14  -0.30     0.09  -0.02   0.05    -0.20   0.11   0.12
                     22                     23                     24
                      A                      A                      A
 Frequencies --    919.8593               941.6727               964.1825
 Red. masses --      1.8502                 1.7252                 1.4729
 Frc consts  --      0.9224                 0.9013                 0.8068
 IR Inten    --      1.2220                 1.9837                 1.3471
  Atom  AN      X      Y      Z        X      Y      Z        X      Y      Z
     1   8    -0.02   0.01   0.00     0.02   0.01  -0.00    -0.00  -0.01   0.00
     2   6     0.00  -0.02   0.02     0.01  -0.05  -0.04    -0.00   0.01   0.01
     3   6    -0.10  -0.00  -0.05    -0.00   0.06  -0.07     0.04  -0.03  -0.09
     4   6    -0.04  -0.03   0.07     0.04   0.02   0.07     0.07  -0.08   0.03
     5   6    -0.01  -0.05  -0.06    -0.02   0.03  -0.03    -0.09   0.07  -0.01
     6   6     0.04   0.16   0.03    -0.07  -0.05   0.06     0.03   0.01  -0.01
     7   6     0.05  -0.08  -0.00    -0.01  -0.06  -0.03     0.01   0.02   0.01
     8   6    -0.01  -0.07  -0.02     0.07  -0.03   0.00    -0.02   0.01  -0.01
     9   6    -0.03   0.01  -0.02    -0.06   0.04  -0.07     0.02  -0.01   0.02
    10   6     0.07   0.05  -0.01     0.03  -0.02   0.09    -0.02   0.01  -0.02
    11   1     0.11  -0.01   0.21    -0.06  -0.09   0.04    -0.15   0.22  -0.42
    12   1     0.01   0.08  -0.19     0.02  -0.15   0.30    -0.06   0.09   0.30
    13   1     0.11  -0.03   0.17    -0.10   0.00  -0.18    -0.07  -0.02   0.45
    14   1     0.23  -0.04  -0.08     0.19  -0.14  -0.09     0.26  -0.19  -0.11
    15   1     0.21  -0.07  -0.05    -0.07   0.05   0.15    -0.13   0.10   0.29
    16   1    -0.13   0.17   0.18    -0.06   0.00   0.13    -0.18   0.07   0.30
    17   1     0.11   0.22   0.34    -0.01  -0.13  -0.27     0.03   0.02   0.03
    18   1    -0.06  -0.17   0.01    -0.13   0.27   0.09    -0.01  -0.04  -0.02
    19   1     0.10  -0.15  -0.01    -0.11   0.17  -0.00    -0.02  -0.03   0.01
    20   1    -0.06   0.11   0.01    -0.02   0.10   0.02    -0.04  -0.05  -0.01
    21   1    -0.38  -0.03  -0.09    -0.19   0.00  -0.03     0.07   0.00   0.03
    22   1     0.23   0.19   0.08     0.26   0.16   0.12    -0.07  -0.05  -0.01
    23   1    -0.04   0.01  -0.04    -0.13  -0.11   0.02     0.04   0.02   0.01
    24   1    -0.07  -0.08  -0.03    -0.01   0.25  -0.04    -0.01  -0.06   0.01
    25   1    -0.00  -0.10  -0.02     0.05   0.28   0.10    -0.05  -0.06  -0.02
    26   1     0.20   0.06   0.13     0.18  -0.13  -0.20    -0.05   0.04   0.06
                     25                     26                     27
                      A                      A                      A
 Frequencies --    968.0543               996.6042              1020.0374
 Red. masses --      1.5248                 1.7723                 1.5923
 Frc consts  --      0.8419                 1.0371                 0.9761
 IR Inten    --      3.3505                 0.2934                 9.5489
  Atom  AN      X      Y      Z        X      Y      Z        X      Y      Z
     1   8     0.02   0.00  -0.00     0.01   0.00  -0.02     0.02  -0.01  -0.01
     2   6    -0.01   0.00  -0.05     0.02   0.01   0.05    -0.01   0.06   0.02
     3   6    -0.04  -0.01  -0.03    -0.09   0.04  -0.05    -0.01   0.00   0.01
     4   6    -0.02  -0.00   0.03    -0.06   0.00   0.06    -0.03  -0.05  -0.01
     5   6    -0.03  -0.03  -0.01    -0.01  -0.02  -0.07     0.04   0.03  -0.00
     6   6     0.08   0.01   0.01     0.13  -0.09   0.01    -0.02  -0.01   0.01
     7   6     0.04   0.05   0.01    -0.06   0.01   0.03    -0.00  -0.03   0.01
     8   6    -0.09  -0.02   0.04     0.03   0.07  -0.02     0.04  -0.08  -0.01
     9   6     0.07  -0.03  -0.04    -0.02   0.05   0.03     0.07   0.10   0.03
    10   6    -0.07  -0.04   0.06    -0.02  -0.05  -0.03    -0.09  -0.09  -0.04
    11   1     0.04  -0.04   0.12     0.13  -0.08   0.31     0.06   0.10  -0.01
    12   1     0.01  -0.00  -0.06     0.03   0.02  -0.24    -0.02   0.13  -0.21
    13   1     0.03  -0.01  -0.01     0.11  -0.02  -0.01     0.09  -0.02   0.26
    14   1     0.09   0.03  -0.01     0.24  -0.13  -0.12    -0.05  -0.09  -0.02
    15   1     0.14  -0.04  -0.06     0.07  -0.02   0.05    -0.16   0.06   0.09
    16   1    -0.11   0.13   0.11    -0.10   0.07   0.15     0.12  -0.16  -0.10
    17   1     0.15   0.00  -0.00     0.36  -0.16  -0.19    -0.05  -0.02  -0.03
    18   1     0.09   0.01   0.01     0.13   0.08   0.02    -0.09   0.04   0.02
    19   1     0.26   0.33   0.05    -0.29  -0.05   0.03    -0.05   0.01   0.01
    20   1     0.29   0.08   0.02    -0.17  -0.16  -0.03    -0.06   0.13   0.02
    21   1    -0.10  -0.07  -0.21     0.34   0.07   0.20    -0.34  -0.03  -0.07
    22   1    -0.29  -0.09  -0.25    -0.05  -0.12   0.08     0.29   0.20   0.11
    23   1     0.12  -0.15   0.21     0.04   0.21  -0.07     0.23   0.34  -0.00
    24   1     0.00   0.31   0.02     0.02  -0.08   0.00     0.24   0.21   0.04
    25   1    -0.06   0.23   0.07    -0.07   0.00  -0.02     0.00   0.03  -0.03
    26   1    -0.23  -0.08  -0.20     0.00  -0.06  -0.04    -0.34  -0.06  -0.12
                     28                     29                     30
                      A                      A                      A
 Frequencies --   1036.4588              1060.9335              1089.8004
 Red. masses --      1.4418                 1.9190                 2.0243
 Frc consts  --      0.9126                 1.2726                 1.4165
 IR Inten    --      0.0583                 9.8926                 3.0063
  Atom  AN      X      Y      Z        X      Y      Z        X      Y      Z
     1   8     0.00   0.01   0.01    -0.01  -0.02   0.00     0.00   0.01  -0.02
     2   6    -0.02   0.01  -0.03    -0.03   0.11   0.06     0.05  -0.02   0.05
     3   6    -0.01   0.00   0.01    -0.04   0.02   0.10    -0.04  -0.01   0.03
     4   6    -0.06  -0.08  -0.01     0.02   0.01  -0.05    -0.03   0.04  -0.01
     5   6     0.05   0.06   0.00     0.00  -0.04  -0.07     0.02   0.05  -0.07
     6   6     0.02   0.00   0.02    -0.00  -0.02   0.02    -0.03  -0.05   0.07
     7   6    -0.01   0.02  -0.01    -0.10  -0.02  -0.09     0.19   0.07  -0.01
     8   6    -0.00   0.02   0.01     0.05   0.01   0.10    -0.10  -0.03  -0.05
     9   6    -0.07  -0.07  -0.04    -0.07  -0.02   0.01    -0.03   0.01   0.08
    10   6     0.08   0.01   0.05     0.07  -0.04  -0.04    -0.02  -0.02  -0.05
    11   1     0.12   0.14   0.04    -0.07   0.04  -0.17     0.02  -0.08   0.13
    12   1    -0.03   0.21  -0.38    -0.03   0.00   0.11     0.01  -0.05  -0.04
    13   1     0.17  -0.04   0.39    -0.08   0.02   0.01    -0.01   0.02  -0.18
    14   1    -0.08  -0.14  -0.03     0.24  -0.09  -0.11     0.20  -0.23  -0.15
    15   1    -0.29   0.11   0.17     0.16  -0.05   0.01    -0.15   0.09   0.22
    16   1     0.18  -0.24  -0.15    -0.09   0.07   0.14     0.02  -0.12   0.08
    17   1     0.07  -0.01  -0.02    -0.08  -0.02  -0.04    -0.42  -0.03  -0.11
    18   1    -0.06   0.05   0.03     0.37  -0.00   0.00     0.16   0.17   0.07
    19   1    -0.04   0.23   0.01     0.13   0.01  -0.09     0.36   0.02  -0.01
    20   1     0.06   0.00   0.01     0.42   0.16   0.09    -0.15  -0.06  -0.05
    21   1     0.07   0.01  -0.01    -0.03  -0.03  -0.15    -0.11  -0.03  -0.05
    22   1    -0.07  -0.04  -0.04    -0.05   0.04  -0.14    -0.12  -0.05  -0.06
    23   1    -0.19  -0.25   0.00    -0.03   0.13  -0.11    -0.24  -0.08  -0.17
    24   1    -0.04   0.06  -0.02     0.18   0.07   0.01     0.15  -0.19   0.03
    25   1     0.28   0.04   0.04     0.45  -0.11  -0.04     0.09  -0.13  -0.06
    26   1     0.13  -0.03  -0.04    -0.09  -0.00  -0.01     0.01  -0.00   0.05
                     31                     32                     33
                      A                      A                      A
 Frequencies --   1134.8331              1156.5102              1167.7736
 Red. masses --      1.8183                 1.6505                 2.1128
 Frc consts  --      1.3796                 1.3006                 1.6976
 IR Inten    --     14.7587                18.8722                 9.7851
  Atom  AN      X      Y      Z        X      Y      Z        X      Y      Z
     1   8    -0.02  -0.03  -0.00    -0.02   0.01  -0.00     0.03  -0.02  -0.01
     2   6    -0.03   0.12   0.09     0.06  -0.10   0.04    -0.06   0.11  -0.02
     3   6     0.02   0.03  -0.07     0.04   0.04  -0.00    -0.01   0.09   0.05
     4   6     0.03   0.00   0.02    -0.01  -0.01   0.00     0.01  -0.06  -0.03
     5   6    -0.03  -0.06   0.05    -0.01  -0.02   0.00     0.01  -0.05   0.00
     6   6     0.03  -0.04  -0.05    -0.06   0.02   0.02    -0.07   0.02   0.04
     7   6     0.07   0.08   0.06     0.01  -0.08  -0.05     0.12  -0.11   0.02
     8   6    -0.02  -0.04  -0.06    -0.01   0.03   0.03    -0.05   0.07  -0.03
     9   6    -0.06  -0.03   0.00     0.05   0.06   0.04    -0.02   0.08  -0.05
    10   6     0.04  -0.05  -0.03    -0.09   0.04  -0.08    -0.01  -0.10   0.04
    11   1    -0.02  -0.01  -0.02     0.02   0.03   0.00    -0.01   0.13  -0.18
    12   1     0.01  -0.03   0.12    -0.00   0.04  -0.06    -0.06   0.12   0.03
    13   1    -0.03   0.00   0.03     0.04  -0.01   0.05     0.00  -0.02   0.25
    14   1    -0.11   0.20   0.12     0.00   0.06   0.02     0.00   0.08   0.03
    15   1     0.19  -0.10  -0.21     0.06  -0.02  -0.03     0.16  -0.08  -0.14
    16   1    -0.07   0.15  -0.02    -0.03   0.06   0.02    -0.00   0.06  -0.04
    17   1     0.09  -0.05  -0.05     0.41  -0.05  -0.02     0.01  -0.00   0.01
    18   1    -0.35   0.01  -0.03    -0.31   0.06   0.04    -0.09   0.08   0.05
    19   1    -0.07   0.43   0.10    -0.03   0.04  -0.03     0.26  -0.38  -0.01
    20   1    -0.25  -0.01  -0.04     0.14  -0.03   0.01    -0.11  -0.21  -0.06
    21   1    -0.14   0.01   0.04     0.14  -0.00  -0.02     0.26   0.04   0.09
    22   1     0.12   0.05   0.09    -0.13  -0.07  -0.07    -0.20  -0.18  -0.01
    23   1    -0.11  -0.07  -0.04    -0.32  -0.32  -0.11    -0.00   0.06   0.00
    24   1     0.10   0.04   0.01     0.37   0.31   0.06    -0.04   0.06  -0.05
    25   1     0.48  -0.11  -0.03     0.22  -0.22  -0.08    -0.04   0.17   0.04
    26   1    -0.08  -0.03  -0.03    -0.03   0.09   0.13     0.35  -0.24  -0.20
                     34                     35                     36
                      A                      A                      A
 Frequencies --   1221.5333              1240.9385              1246.3217
 Red. masses --      2.7378                 2.0934                 1.9251
 Frc consts  --      2.4070                 1.8993                 1.7618
 IR Inten    --      2.0858                 3.1345                 0.9720
  Atom  AN      X      Y      Z        X      Y      Z        X      Y      Z
     1   8     0.01   0.01   0.01    -0.01  -0.02   0.01     0.01  -0.01   0.00
     2   6     0.01  -0.06  -0.05    -0.03   0.05   0.01    -0.03   0.01  -0.04
     3   6     0.01   0.02   0.28     0.24  -0.08  -0.02     0.14   0.12   0.04
     4   6    -0.00   0.02  -0.07    -0.09   0.04   0.01    -0.05  -0.04  -0.01
     5   6    -0.02   0.00  -0.11    -0.09   0.03  -0.02    -0.06  -0.04  -0.02
     6   6    -0.04  -0.00  -0.14     0.00   0.01   0.00    -0.05  -0.07  -0.00
     7   6    -0.00   0.02   0.15    -0.00  -0.07   0.01    -0.02   0.09  -0.07
     8   6     0.02  -0.01  -0.08    -0.00   0.04   0.01     0.01  -0.05   0.03
     9   6     0.02   0.00  -0.06    -0.02   0.00  -0.06     0.03  -0.03   0.09
    10   6    -0.02   0.01   0.04     0.01   0.01   0.02    -0.02   0.00  -0.01
    11   1    -0.03   0.03  -0.11     0.13  -0.08   0.33     0.10   0.11   0.05
    12   1    -0.02   0.03  -0.04     0.05  -0.07  -0.29    -0.03   0.12  -0.23
    13   1    -0.03   0.02  -0.07     0.18   0.00  -0.16     0.14  -0.03   0.14
    14   1     0.35  -0.18  -0.18     0.13  -0.00  -0.04     0.15   0.09  -0.01
    15   1     0.13   0.01   0.17     0.01   0.04   0.17     0.20  -0.06  -0.02
    16   1    -0.10  -0.01   0.21    -0.18   0.11   0.24    -0.15   0.17   0.11
    17   1     0.25   0.02   0.15    -0.42   0.07   0.03    -0.02  -0.09  -0.11
    18   1    -0.00  -0.25  -0.15    -0.20   0.01   0.01    -0.02   0.06  -0.00
    19   1    -0.08   0.20   0.17    -0.03  -0.20  -0.01    -0.07   0.19  -0.05
    20   1    -0.29  -0.05  -0.05     0.03  -0.07  -0.01     0.07   0.13   0.04
    21   1    -0.05   0.04   0.13     0.12   0.02   0.02    -0.17  -0.04  -0.09
    22   1     0.15   0.01   0.15    -0.08  -0.07  -0.00     0.09   0.11  -0.04
    23   1    -0.04  -0.20   0.09     0.14   0.13   0.05    -0.07  -0.07  -0.04
    24   1    -0.06   0.16  -0.03    -0.01   0.18  -0.04    -0.03  -0.31   0.05
    25   1     0.19   0.04   0.04     0.29  -0.00   0.01    -0.42   0.01  -0.01
    26   1    -0.09   0.00  -0.03    -0.13   0.02  -0.02     0.44  -0.08   0.00
                     37                     38                     39
                      A                      A                      A
 Frequencies --   1283.6100              1321.5330              1345.1357
 Red. masses --      1.4635                 1.5429                 1.2850
 Frc consts  --      1.4207                 1.5876                 1.3699
 IR Inten    --      4.7083                 2.1372                 2.9731
  Atom  AN      X      Y      Z        X      Y      Z        X      Y      Z
     1   8     0.03  -0.00  -0.02    -0.01  -0.00  -0.00     0.00   0.00   0.00
     2   6    -0.03   0.09   0.03     0.03  -0.05   0.02    -0.01   0.00  -0.01
     3   6    -0.03  -0.08  -0.01     0.02   0.09  -0.09     0.02  -0.00  -0.02
     4   6     0.01   0.03   0.00    -0.02  -0.03   0.01    -0.01  -0.00  -0.00
     5   6     0.01   0.02  -0.00    -0.01  -0.03   0.03    -0.00   0.00   0.00
     6   6     0.06   0.03  -0.04    -0.04  -0.03   0.01    -0.01   0.01   0.00
     7   6    -0.04  -0.01   0.04    -0.06   0.04   0.08    -0.06  -0.06   0.04
     8   6     0.01  -0.01   0.02     0.02  -0.01  -0.03     0.01   0.02  -0.06
     9   6     0.06   0.01   0.01     0.05   0.01  -0.05    -0.06  -0.07   0.04
    10   6    -0.08  -0.03  -0.03    -0.06   0.02   0.01     0.03   0.02  -0.03
    11   1    -0.03  -0.07   0.02     0.07   0.07   0.04     0.04   0.01   0.04
    12   1     0.03  -0.07   0.04    -0.03   0.07  -0.02    -0.02   0.01   0.03
    13   1    -0.04   0.02  -0.08     0.06  -0.02   0.12     0.02  -0.00   0.01
    14   1    -0.02  -0.06  -0.02    -0.01   0.09   0.05    -0.01   0.01   0.01
    15   1    -0.06   0.03   0.03     0.02  -0.03  -0.08    -0.02   0.00   0.00
    16   1     0.03  -0.06   0.00    -0.01   0.09  -0.07    -0.00   0.01  -0.00
    17   1    -0.27   0.10   0.09    -0.23  -0.01  -0.03    -0.05   0.01   0.01
    18   1     0.07  -0.11  -0.05     0.70  -0.04  -0.03     0.20  -0.03  -0.01
    19   1    -0.35   0.01   0.05     0.15  -0.25   0.04     0.49   0.37   0.09
    20   1     0.06   0.04   0.02    -0.09   0.02  -0.01    -0.09  -0.05  -0.05
    21   1    -0.03  -0.01  -0.00    -0.06   0.02   0.08     0.11   0.05   0.14
    22   1    -0.00   0.00  -0.00     0.09   0.01   0.08     0.08  -0.03   0.14
    23   1    -0.21  -0.35   0.01    -0.08  -0.23   0.06     0.08   0.16  -0.02
    24   1     0.19   0.20   0.04    -0.10   0.08  -0.03     0.39   0.36   0.08
    25   1    -0.05  -0.04  -0.03     0.36  -0.06   0.00    -0.33  -0.01  -0.03
    26   1     0.63  -0.17  -0.05    -0.00   0.01   0.01     0.15   0.03   0.05
                     40                     41                     42
                      A                      A                      A
 Frequencies --   1350.6042              1369.0342              1400.6241
 Red. masses --      1.4095                 1.5467                 1.4501
 Frc consts  --      1.5149                 1.7080                 1.6760
 IR Inten    --      0.9124                10.7549                 0.6090
  Atom  AN      X      Y      Z        X      Y      Z        X      Y      Z
     1   8     0.01  -0.00  -0.01    -0.01  -0.01   0.01    -0.00  -0.01   0.00
     2   6    -0.01   0.05   0.02    -0.04   0.08  -0.00    -0.01   0.02   0.00
     3   6     0.02  -0.10  -0.01     0.04  -0.08  -0.02     0.03  -0.02  -0.03
     4   6    -0.01   0.03  -0.01    -0.02   0.02  -0.01    -0.01   0.00   0.00
     5   6     0.00   0.03   0.00    -0.01   0.02   0.00    -0.01   0.01   0.01
     6   6    -0.06   0.02   0.03    -0.06   0.01   0.01    -0.08   0.04  -0.02
     7   6    -0.05   0.02  -0.03    -0.03   0.06   0.03     0.05  -0.13  -0.01
     8   6     0.01  -0.01  -0.02     0.01  -0.02  -0.01    -0.01   0.03   0.00
     9   6     0.04  -0.00   0.01     0.01   0.06   0.00     0.02   0.08   0.03
    10   6    -0.09   0.01   0.02     0.12  -0.06  -0.02     0.02  -0.03   0.00
    11   1     0.01  -0.10   0.10     0.03  -0.07   0.11     0.01  -0.02   0.04
    12   1     0.02  -0.10   0.05     0.01  -0.09   0.04     0.01  -0.04  -0.02
    13   1     0.02   0.02  -0.01     0.06   0.01   0.02     0.04   0.00   0.02
    14   1    -0.05  -0.05  -0.01    -0.02  -0.02  -0.00     0.02  -0.00   0.00
    15   1    -0.05   0.03   0.05    -0.01   0.02   0.03    -0.01   0.00  -0.01
    16   1     0.01  -0.07   0.04    -0.00  -0.03   0.03     0.01  -0.00  -0.04
    17   1     0.53  -0.08  -0.06     0.36  -0.05  -0.03     0.01   0.04   0.02
    18   1     0.02  -0.00   0.02     0.16  -0.03  -0.00     0.45  -0.15  -0.06
    19   1     0.45   0.07  -0.04     0.12  -0.33  -0.02    -0.29   0.63   0.09
    20   1    -0.03   0.03  -0.02    -0.04   0.06   0.00     0.06  -0.13  -0.02
    21   1     0.03   0.00   0.04    -0.06   0.01   0.04     0.05  -0.00  -0.05
    22   1     0.09   0.06   0.04     0.04   0.02   0.01    -0.04  -0.06   0.05
    23   1     0.13   0.10   0.04    -0.39  -0.42  -0.06    -0.08  -0.02  -0.02
    24   1    -0.24  -0.28  -0.02     0.09   0.06  -0.00    -0.16  -0.35  -0.02
    25   1     0.33  -0.02   0.02    -0.39   0.04  -0.02    -0.02   0.07   0.01
    26   1     0.35  -0.08  -0.01    -0.34   0.01  -0.08    -0.16   0.01   0.02
                     43                     44                     45
                      A                      A                      A
 Frequencies --   1415.4567              1425.7900              1440.3151
 Red. masses --      1.5650                 1.2245                 1.2349
 Frc consts  --      1.8474                 1.4666                 1.5094
 IR Inten    --      0.0938                 4.2977                 2.1333
  Atom  AN      X      Y      Z        X      Y      Z        X      Y      Z
     1   8    -0.00  -0.00   0.00     0.00   0.00   0.00     0.00   0.00  -0.00
     2   6     0.01   0.00   0.00     0.00  -0.02  -0.01     0.00  -0.00   0.00
     3   6    -0.02   0.02   0.02    -0.01   0.02   0.01    -0.01   0.01   0.01
     4   6     0.01  -0.01   0.01    -0.01   0.02  -0.10     0.00  -0.00   0.00
     5   6     0.01  -0.02  -0.02     0.06  -0.04  -0.05     0.02  -0.02  -0.01
     6   6     0.11  -0.01   0.01     0.01  -0.01  -0.01     0.01  -0.00  -0.00
     7   6    -0.13  -0.06  -0.01     0.01  -0.00  -0.00     0.01   0.00   0.01
     8   6     0.04   0.02  -0.02     0.01   0.01   0.01    -0.12  -0.04  -0.05
     9   6     0.07   0.09   0.02    -0.00  -0.00   0.00     0.01   0.02  -0.00
    10   6     0.01  -0.03  -0.00    -0.00   0.01   0.01     0.00  -0.01   0.00
    11   1    -0.02   0.03  -0.05     0.20  -0.20   0.32    -0.00   0.00  -0.01
    12   1    -0.01   0.08  -0.03    -0.09  -0.18   0.40    -0.00   0.01  -0.00
    13   1    -0.07  -0.01  -0.05     0.10   0.07   0.44    -0.01  -0.00   0.00
    14   1    -0.06   0.05   0.01    -0.25   0.22   0.06    -0.06   0.07   0.02
    15   1    -0.05  -0.00   0.04    -0.28   0.03   0.22    -0.08   0.00   0.06
    16   1    -0.04   0.07   0.07    -0.11   0.24   0.24    -0.03   0.07   0.06
    17   1    -0.37   0.04  -0.03    -0.04   0.01   0.04    -0.06  -0.00  -0.02
    18   1    -0.37   0.01   0.03    -0.02   0.03  -0.00    -0.06  -0.02  -0.01
    19   1     0.50   0.20   0.02    -0.09   0.02   0.00    -0.01  -0.01   0.01
    20   1    -0.12  -0.05  -0.02    -0.04  -0.03   0.01     0.52   0.21  -0.04
    21   1    -0.05   0.05   0.04    -0.05   0.00  -0.04     0.49  -0.05   0.25
    22   1    -0.01  -0.08   0.03    -0.04  -0.03  -0.04     0.34   0.32   0.30
    23   1    -0.25  -0.27  -0.07     0.02   0.03  -0.00    -0.05  -0.04  -0.02
    24   1    -0.25  -0.27  -0.02    -0.00   0.01   0.00    -0.06  -0.03  -0.01
    25   1    -0.00   0.06   0.00    -0.02  -0.04   0.00     0.01   0.01   0.00
    26   1    -0.14   0.00   0.02     0.00  -0.01  -0.04    -0.05  -0.00  -0.01
                     46                     47                     48
                      A                      A                      A
 Frequencies --   1447.5160              1498.2609              1507.5419
 Red. masses --      1.2239                 1.0850                 1.0742
 Frc consts  --      1.5109                 1.4351                 1.4384
 IR Inten    --      7.2803                 8.7593                 0.7077
  Atom  AN      X      Y      Z        X      Y      Z        X      Y      Z
     1   8    -0.01  -0.00   0.00    -0.00  -0.00   0.00     0.00  -0.00  -0.00
     2   6     0.02  -0.01  -0.01    -0.00   0.00  -0.01    -0.00   0.01   0.00
     3   6    -0.00   0.01   0.00    -0.00   0.00   0.00     0.00  -0.01   0.01
     4   6    -0.01   0.02  -0.08    -0.01  -0.00  -0.01    -0.02   0.01   0.01
     5   6    -0.07   0.05   0.05     0.01   0.00   0.00     0.02   0.00   0.02
     6   6     0.03  -0.01  -0.00     0.00  -0.01  -0.00    -0.01  -0.04  -0.04
     7   6    -0.02  -0.01  -0.00    -0.00   0.01   0.00    -0.01  -0.00  -0.00
     8   6    -0.01  -0.00  -0.00    -0.00  -0.01   0.00    -0.00   0.01   0.00
     9   6     0.01   0.01   0.00    -0.01  -0.00  -0.01     0.02  -0.01   0.02
    10   6    -0.00   0.01   0.00    -0.01  -0.06  -0.05     0.00   0.00   0.01
    11   1     0.15  -0.15   0.24     0.06   0.12  -0.01    -0.04   0.14  -0.12
    12   1    -0.07  -0.17   0.31    -0.01  -0.10   0.10     0.05  -0.18  -0.01
    13   1     0.10   0.05   0.33     0.18  -0.02  -0.03     0.24  -0.02  -0.07
    14   1     0.31  -0.26  -0.07    -0.03  -0.06  -0.01    -0.01  -0.23  -0.04
    15   1     0.37  -0.03  -0.26    -0.03  -0.00  -0.06    -0.22  -0.00  -0.26
    16   1     0.14  -0.30  -0.28    -0.01   0.02   0.03    -0.05   0.22   0.03
    17   1    -0.12   0.03   0.06     0.01   0.01   0.05     0.06   0.08   0.48
    18   1    -0.11   0.07   0.01    -0.01   0.05   0.00     0.06   0.49   0.01
    19   1     0.03   0.02  -0.00    -0.01  -0.04  -0.01     0.02   0.03   0.00
    20   1     0.07   0.02  -0.01    -0.02   0.04   0.01     0.04  -0.10  -0.01
    21   1     0.07  -0.00   0.03     0.02  -0.00   0.02    -0.01  -0.01  -0.08
    22   1     0.04   0.03   0.04    -0.00   0.02  -0.03     0.04   0.01   0.07
    23   1    -0.03  -0.02  -0.03     0.02  -0.03   0.07    -0.07   0.06  -0.22
    24   1    -0.05  -0.02   0.00     0.08  -0.02  -0.01    -0.20   0.13   0.04
    25   1    -0.00  -0.03   0.00     0.10   0.65  -0.01    -0.02  -0.09   0.00
    26   1    -0.03   0.00  -0.03     0.05   0.14   0.66    -0.00  -0.03  -0.09
                     49                     50                     51
                      A                      A                      A
 Frequencies --   1516.4153              1517.8668              1526.8542
 Red. masses --      1.0511                 1.0581                 1.0589
 Frc consts  --      1.4241                 1.4364                 1.4545
 IR Inten    --      1.0897                 2.3906                 1.9970
  Atom  AN      X      Y      Z        X      Y      Z        X      Y      Z
     1   8     0.00   0.00  -0.00     0.00   0.00  -0.00     0.00   0.00  -0.00
     2   6    -0.00   0.00  -0.00    -0.00  -0.01  -0.00    -0.00  -0.00   0.00
     3   6    -0.01  -0.01  -0.01    -0.00  -0.00   0.02     0.00  -0.00  -0.01
     4   6     0.02   0.02   0.01    -0.01   0.02   0.00     0.01  -0.00   0.00
[...]
 503,-0.00019877,-0.00936936,0.00148600,0.01678770,-0.10033998,0.003357
 65,0.09953940,0.00952489,-0.00071908,-0.02375372,-0.01074186,-0.000769
 25,0.01864962,0.00065034,0.00071182,0.00105467,-0.00006366,-0.00004602
 ,-0.00121333,0.00026318,-0.00032347,-0.00017147,0.00001692,-0.00009036
 ,-0.00005487,0.00016734,-0.00008580,-0.00015210,0.00001949,-0.00002702
 ,0.00003294,-0.00005947,0.00004021,-0.00011913,0.00080462,-0.00007374,
 -0.00060306,-0.00143952,0.00331947,-0.00009279,0.11269073,0.00000732,0
 .00020692,-0.00001321,0.00005002,-0.00047684,0.00001352,-0.00062287,0.
 00090113,-0.00018937,0.00035157,-0.00015809,0.00018015,-0.00003041,-0.
 00002448,0.00004042,0.01415228,-0.00233708,-0.02675186,0.00332183,-0.0
 4982654,-0.00684286,0.00000112,0.00001973,0.00018511,-0.01474966,-0.00
 134941,0.02557360,0.00102104,0.00099265,0.00049686,0.00032129,0.000117
 45,0.00079738,-0.00018864,0.00009109,0.00011951,0.00000040,-0.00013201
 ,0.00004019,-0.00019588,0.00005602,0.00012757,-0.00001656,0.00002147,-
 0.00004268,0.00002162,-0.00002616,0.00018058,-0.00084041,0.00109755,0.
 00004745,0.00375904,-0.00458902,-0.00050372,-0.00354593,0.05755203,0.0
 0006192,0.00001440,-0.00009696,-0.00011043,0.00001475,0.00015840,-0.00
 010640,-0.00030816,-0.00040247,-0.00036165,0.00007713,-0.00105994,0.00
 022373,0.00001815,0.00019861,0.00161595,-0.00080787,-0.00192495,0.1001
 0693,-0.00691914,-0.24203767,0.00935773,-0.00072050,-0.02357697,0.0016
 0870,0.00050174,-0.00337519,-0.00034391,-0.00018898,0.00058245,-0.0011
 0394,0.00121065,-0.00032749,-0.00027756,0.00020155,0.00020375,0.000003
 65,0.00003676,0.00003871,-0.00005035,0.00000472,0.00008834,-0.00001471
 ,0.00000488,-0.00002195,0.00009246,-0.00007924,0.00000461,-0.00003707,
 -0.00050256,0.00034625,-0.00031872,-0.00048312,0.00110012,-0.10662584,
 0.00656386,0.26862397,0.00005396,-0.00000324,-0.00002162,-0.00000470,0
 .00000411,0.00002209,0.00010423,-0.00020026,-0.00003026,-0.00004525,-0
 .00005222,-0.00014801,0.00001369,0.00002435,0.00006767,0.00159597,-0.0
 0080022,-0.00068419,0.01005049,-0.00064002,-0.02261423,-0.09426532,0.0
 0306457,0.09825360,0.00167111,0.00061944,-0.00059670,0.00005964,0.0001
 2442,-0.00007339,-0.00004681,0.00004735,0.00014119,-0.00004528,0.00007
 655,0.00002770,-0.00000434,0.00002116,0.00000419,-0.00001443,0.0000143
 7,0.00000709,-0.00000901,-0.00000304,0.00000052,0.00002041,-0.00001902
 ,0.00000585,-0.00008985,0.00010849,0.00009405,-0.00009722,0.00002430,0
 .00047460,-0.00286645,0.00002389,-0.00401729,0.10046514,-0.00000045,-0
 .00010509,0.00000064,-0.00000552,0.00025033,0.00000299,0.00003686,-0.0
 0006584,-0.00007660,-0.00002604,-0.00004039,-0.00000181,-0.00001879,-0
 .00002884,-0.00001011,-0.00063338,0.00018437,0.00104163,-0.00015098,-0
 .00106187,0.00013778,0.00311666,-0.05040902,-0.00677176,0.00065791,0.0
 0013957,-0.00097118,-0.00007574,-0.00011241,0.00007978,0.00001936,-0.0
 0001691,-0.00003100,0.00001748,-0.00000464,-0.00002202,-0.00000805,0.0
 0000576,0.00000559,0.00002791,0.00000245,-0.00000700,0.00000328,-0.000
 01420,0.00001076,-0.00001135,0.00001147,-0.00002035,-0.00003596,-0.000
 00182,0.00009464,0.00031237,0.00016449,-0.00005653,0.00001179,0.000664
 51,0.00006549,-0.00351072,0.04837642,-0.00011195,0.00000513,0.00001918
 ,0.00017985,0.00000075,-0.00003453,-0.00030133,0.00000109,0.00031616,0
 .00020442,-0.00015413,-0.00005452,-0.00006244,-0.00001087,-0.00005807,
 0.00167244,-0.00100014,0.00043952,0.00971493,-0.00065320,-0.02362379,0
 .09789360,-0.00672684,-0.26217562,0.00153671,0.00080355,0.00044630,-0.
 00031344,-0.00000218,0.00039466,-0.00005542,0.00012581,0.00018662,-0.0
 0008846,0.00005592,0.00008216,-0.00000707,0.00001361,0.00000921,-0.000
 03870,0.00001319,0.00002478,0.00000515,-0.00000172,-0.00000752,-0.0000
 1645,0.00002127,0.00001521,-0.00006757,0.00002108,0.00000087,-0.000936
 40,0.00075727,0.00061293,-0.00440757,0.00002487,-0.00246789,-0.1055206
 5,0.00751975,0.28793281,-0.00010359,0.00044359,-0.00001024,0.00035852,
 -0.00104115,0.00016361,0.00023387,0.00044229,-0.00011458,0.00004177,-0
 .00003806,-0.00000643,0.00002792,0.00003017,0.00002947,0.00058029,-0.0
 0159748,0.00084724,-0.01459371,-0.01838818,0.00391652,-0.14371610,-0.1
 2429108,0.01634415,-0.00259034,0.00188189,-0.00439256,-0.00054361,-0.0
 0134691,0.00040325,-0.00005258,-0.00000356,0.00003936,0.00000392,0.000
 01326,0.00002471,-0.00000422,0.00006642,-0.00004101,-0.00001067,-0.000
 01130,-0.00000741,-0.00000974,0.00006133,-0.00001408,0.00001718,-0.000
 01746,0.00001032,-0.00000563,0.00110003,-0.00029704,-0.00008028,0.0000
 2745,-0.00001057,0.00104814,0.00035621,0.00005421,-0.00842884,-0.01065
 623,0.00104757,0.15479368,-0.00014849,0.00014233,0.00004663,0.00017432
 ,-0.00028464,-0.00009090,-0.00005758,0.00023327,-0.00011303,-0.0000238
 4,-0.00000730,0.00001527,-0.00001789,-0.00000926,-0.00006182,0.0007318
 3,0.00065561,0.00015182,0.00128953,0.00019255,-0.00053467,-0.12492409,
 -0.21434722,0.02099529,0.00028099,0.00083461,-0.00071822,-0.00005056,0
 .00022188,0.00035077,-0.00002207,-0.00001511,0.00001664,0.00000359,0.0
 0000613,-0.00001034,0.00000084,0.00004077,-0.00000554,0.00000265,-0.00
 000794,-0.00000007,0.00000879,0.00001702,0.00000264,-0.00002475,0.0000
 1284,0.00000317,-0.00017415,0.00043863,0.00008017,0.00000435,-0.000015
 60,-0.00004983,-0.00006696,0.00009951,-0.00052667,0.00202484,0.0017217
 3,0.00022813,0.13777965,0.23049186,-0.00011446,0.00024684,0.00002396,0
 .00019231,-0.00057910,0.00001512,0.00016966,-0.00004860,-0.00010511,0.
 00002422,0.00000620,0.00001883,0.00006551,0.00005019,0.00003852,0.0006
 4430,-0.00078995,0.00059290,-0.01496293,-0.02055891,0.00257596,0.01678
 099,0.02127404,-0.05192392,-0.00286668,0.00141879,-0.00369192,-0.00112
 445,-0.00113765,0.00067485,-0.00003049,-0.00003164,-0.00001405,0.00001
 856,-0.00000205,0.00000636,-0.00000912,0.00004652,-0.00001850,0.000001
 35,0.00000047,-0.00000912,-0.00000980,0.00001772,0.00000807,0.00001075
 ,-0.00003010,-0.00000425,0.00007319,0.00048442,0.00017001,0.00005253,0
 .00018239,-0.00000460,0.00084373,-0.00030280,0.00089196,0.01763945,0.0
 2529057,-0.00194153,-0.01506611,-0.02329358,0.05349848,-0.00007217,-0.
 00038152,-0.00002167,0.00031827,0.00094380,0.00017551,-0.00005117,0.00
 129318,0.00055073,-0.00017780,-0.00002488,0.00003777,-0.00037340,-0.00
 017029,-0.00047858,-0.00293445,-0.00168342,-0.00438516,-0.01362721,0.0
 1931601,0.00305404,-0.12947032,0.11972405,0.01086637,0.00057568,0.0015
 0309,0.00079358,0.00031114,-0.00045618,-0.00008047,0.00004921,-0.00001
 827,-0.00000725,0.00000977,0.00002051,-0.00010608,0.00000884,0.0000030
 3,0.00000774,0.00001752,-0.00000522,0.00002768,0.00003533,-0.00001078,
 0.00000183,-0.00015013,0.00017833,0.00002371,0.00020516,0.00021892,-0.
 00008219,0.00028264,-0.00040621,-0.00006981,0.00102008,-0.00042266,0.0
 0010035,-0.00787922,0.01119737,0.00062007,0.01293857,-0.01695458,-0.00
 189009,0.13910546,0.00015544,0.00014437,-0.00004971,-0.00019215,-0.000
 27597,0.00007132,-0.00008860,0.00020051,-0.00042499,0.00005121,-0.0000
 1601,0.00000684,0.00006669,0.00003722,0.00013164,-0.00005246,0.0008324
 2,0.00087844,-0.00107240,0.00004151,0.00031487,0.12031522,-0.22970113,
 -0.01547762,-0.00066214,0.00068955,-0.00018097,0.00008029,0.00026952,0
 .00010454,-0.00001583,0.00000567,-0.00000994,0.00000782,-0.00000615,0.
 00003686,-0.00001221,0.00000534,-0.00001656,-0.00000999,0.00000183,-0.
 00000811,-0.00001522,0.00000760,-0.00001365,0.00003235,-0.00004168,0.0
 0000063,-0.00010444,0.00040114,-0.00015776,-0.00012771,0.00001499,-0.0
 0009146,0.00004521,0.00014979,0.00057952,-0.00086897,0.00021330,-0.000
 37539,0.01494281,-0.02082619,-0.00249761,-0.13276394,0.24741250,-0.000
 09676,-0.00020845,0.00001397,0.00019729,0.00052873,0.00002624,-0.00079
 535,0.00112167,0.00082393,0.00001333,0.00000369,0.00018684,-0.00035711
 ,-0.00011552,-0.00048235,-0.00299560,-0.00133837,-0.00377011,-0.013794
 40,0.02141772,0.00159951,0.01121600,-0.01576257,-0.05059729,0.00069098
 ,0.00066284,0.00062716,0.00026560,0.00005303,-0.00009256,0.00003458,-0
 .00002728,-0.00002914,0.00000013,-0.00000597,-0.00002979,0.00001145,0.
 00000414,-0.00000382,-0.00000038,-0.00001525,0.00001797,0.00002980,0.0
 0000126,-0.00000074,-0.00014106,0.00017231,0.00002973,0.00017774,-0.00
 026529,-0.00014035,-0.00037338,0.00004393,0.00034949,0.00084842,0.0002
 8356,0.00085545,0.01615969,-0.02634261,-0.00096897,-0.00229741,0.00335
 057,-0.00063548,-0.00892410,0.01714041,0.05203439,-0.00187023,0.001867
 83,0.00084067,-0.00081021,-0.00481839,-0.00404556,-0.00026070,0.000181
 39,0.00049182,-0.00000587,-0.00002210,0.00015334,0.00022752,0.00009128
 ,0.00014068,-0.00261371,-0.00280589,0.00015734,0.01138484,-0.01775032,
 -0.00272071,0.00133127,-0.00045808,0.00034276,-0.12375216,0.11710949,0
 .01444605,-0.01388690,0.02110698,-0.00045292,-0.00003169,-0.00001255,-
 0.00002400,0.00000131,-0.00002898,0.00004503,0.00002756,0.00005911,-0.
 00006382,-0.00002432,-0.00002472,-0.00003396,-0.00001235,0.00014129,-0
 .00000212,0.00004086,-0.00007692,0.00002076,0.00085075,-0.00117873,-0.
 00000311,-0.00001727,-0.00007050,-0.00019123,0.00085090,0.00081813,-0.
 00011993,-0.00009659,0.00003078,-0.00006904,0.00018415,0.00012905,0.00
 018624,-0.00005569,0.00025001,0.00004911,0.13471528,0.00010694,0.00007
 810,0.00012941,-0.00053884,0.00078927,-0.00026594,-0.00041007,0.000567
 81,-0.00025482,0.00012377,-0.00004926,-0.00004022,0.00011638,0.0000634
 6,0.00015948,-0.00561198,-0.00314430,0.00096915,0.01519083,-0.02283580
 ,-0.00329072,0.00159925,0.00060924,0.00037673,0.11600263,-0.22876215,-
 0.01923826,-0.00058675,0.00164475,0.00001500,-0.00002907,0.00000273,-0
 .00000845,0.00001555,-0.00000734,0.00008752,-0.00001411,0.00002146,-0.
 00004359,-0.00001389,0.00000356,-0.00000345,-0.00004760,0.00007234,-0.
 00000855,0.00008168,-0.00005536,0.00001021,0.00100342,-0.00175124,-0.0
 0006508,-0.00006728,0.00035185,-0.00008796,0.00007666,0.00106411,0.000
 48767,-0.00010691,-0.00000202,-0.00001886,-0.00019923,0.00040786,0.000
 24769,-0.00105399,0.00045830,-0.00049420,-0.12557077,0.24915750,-0.002
 35874,0.00182031,0.00092803,-0.00168973,-0.00356546,-0.00384136,0.0000
 1833,-0.00008256,0.00020803,-0.00004963,0.00000548,0.00019010,0.000161
 44,0.00007458,-0.00000598,0.00037225,0.00012599,0.00026455,-0.00133613
 ,0.00391175,-0.00073722,0.00035040,-0.00073609,-0.00000420,0.01436347,
 -0.01995929,-0.05200955,-0.01482128,0.02257713,-0.00048837,-0.00000273
 ,-0.00001376,-0.00003258,0.00000707,-0.00002461,0.00001763,0.00002936,
 0.00003355,-0.00004211,-0.00003610,0.00000453,0.00000099,-0.00000258,0
 .00005851,0.00001938,0.00000654,-0.00004384,0.00003528,0.00000552,0.00
 011247,0.00056787,-0.00025186,0.00039611,0.00034873,-0.00058241,0.0000
 4830,0.00024306,0.00007803,-0.00009720,0.00000516,-0.00007217,0.000145
 24,-0.00013275,-0.00026001,-0.00004714,0.00017379,-0.01171160,0.021156
 53,0.05460708,-0.00020120,-0.00026873,0.00033190,0.00174369,-0.0007436
 4,-0.00044848,-0.00002700,-0.00002276,-0.00023785,0.00005650,0.0001090
 1,0.00009371,0.00008645,0.00003115,0.00005568,0.00028419,0.00129844,-0
 .00037619,-0.01104451,-0.00096700,0.01935002,0.00073356,0.00066460,0.0
 0153385,-0.09493930,0.00137488,0.09724880,0.00958785,0.00032393,-0.024
 05439,-0.00009584,-0.00007327,-0.00006614,0.00005702,-0.00008318,-0.00
 000292,-0.00000387,0.00007389,0.00001929,-0.00000219,0.00000725,0.0000
 0449,-0.00001457,0.00001931,0.00000596,0.00002109,-0.00003085,0.000001
 32,-0.00001290,0.00009015,-0.00028047,0.00059772,-0.00039678,-0.000366
 25,-0.00195438,-0.00396760,-0.00016667,-0.00006876,-0.00028425,-0.0009
 5731,0.00030970,0.00007795,-0.00038446,-0.00008560,-0.00000668,0.00004
 288,-0.00789578,-0.00037891,0.01631698,0.10494644,-0.00019418,0.000143
 97,-0.00015218,-0.00026525,-0.00025612,0.00073157,0.00011608,-0.000145
 94,-0.00018240,-0.00006274,0.00020228,0.00008320,0.00003435,-0.0000096
 8,0.00004642,-0.00056246,0.00168437,0.00136122,-0.01317604,-0.00160631
 ,0.02522648,0.00096696,0.00086211,0.00086287,0.00166999,-0.05211058,0.
 00131280,-0.00031490,-0.00008263,0.00017962,0.00001491,-0.00009617,-0.
 00011301,0.00007673,-0.00004618,-0.00004273,-0.00001163,0.00003808,-0.
 00003299,0.00002978,-0.00002255,-0.00001947,0.00001255,0.00001039,-0.0
 0000076,0.00000744,-0.00001743,-0.00001405,0.00008807,0.00032363,-0.00
 038554,0.00033015,-0.00032379,-0.00066093,-0.00353112,-0.00410862,0.00
 066529,0.00002950,0.00017851,-0.00068383,0.00037003,-0.00001335,-0.000
 02988,-0.00003699,-0.00002310,-0.00018018,0.01185091,0.00076584,-0.025
 83311,0.00267787,0.05349141,-0.00132983,0.00039639,0.00035800,0.002055
 49,-0.00162505,-0.00052446,-0.00019780,0.00027792,-0.00030765,0.000263
 70,-0.00004502,-0.00001772,0.00009379,0.00005748,-0.00009546,-0.000116
 96,-0.00056913,-0.00001851,0.00216368,0.00050932,-0.00364509,-0.000657
 18,-0.00033198,0.00077398,0.09686339,0.00102842,-0.25244131,0.00747534
 ,0.00077697,-0.02122123,-0.00016875,0.00005674,0.00010715,-0.00001054,
 -0.00002103,0.00004154,-0.00002170,0.00010723,0.00001149,-0.00005262,0
 .00004371,0.00004836,-0.00001842,0.00003300,0.00002381,-0.00000522,-0.
 00001339,0.00002622,-0.00016390,0.00009667,0.00034344,-0.00032431,0.00
 069510,0.00035298,0.00003458,0.00059451,0.00113799,0.00049804,0.000079
 48,0.00059666,-0.00004532,0.00010913,0.00032101,-0.00000272,0.00003857
 ,0.00000184,0.00155647,-0.00063672,-0.00234656,-0.10402985,-0.00173692
 ,0.27790028,-0.00116349,0.00379464,-0.00324717,-0.01045296,-0.00017243
 ,0.01659186,0.00004561,0.00027234,-0.00101122,-0.00006799,-0.00024437,
 0.00032109,-0.00008392,0.00004541,-0.00012988,-0.00016503,-0.00028674,
 -0.00000456,0.00163553,0.00039589,-0.00021098,0.00004073,0.00027186,-0
 .00021692,0.00951041,-0.00329604,-0.02520638,-0.09069843,0.01025773,0.
 10316904,0.00043716,-0.00058220,-0.00004216,-0.00010279,0.00013036,-0.
 00000035,0.00014392,-0.00016717,-0.00018560,0.00001800,-0.00003622,-0.
 00004101,0.00004221,0.00004877,-0.00000064,0.00000892,-0.00005822,0.00
 004238,0.00000533,0.00000606,-0.00001039,-0.00008800,0.00008291,0.0000
 0897,-0.00019220,0.00000018,0.00040527,-0.00006972,-0.00000650,0.00019
 056,0.00002006,0.00003075,0.00016176,-0.00002189,-0.00000003,-0.000026
 63,0.00156193,-0.00004873,0.00093189,-0.00330470,-0.00034590,-0.003883
 70,0.10136522,0.00277477,-0.00295631,0.00361209,0.01178986,0.00164405,
 -0.02902516,-0.00115539,-0.00008520,0.00317088,-0.00003940,-0.00201189
 ,-0.00021634,0.00022917,0.00005601,0.00031592,0.00035103,0.00013322,0.
 00015298,0.00040342,0.00004611,-0.00090340,-0.00009921,0.00001773,0.00
 006511,-0.00099444,0.00052983,0.00176415,0.01156190,-0.05444105,-0.030
 27409,-0.00073045,-0.00082345,0.00040922,0.00002373,-0.00001968,0.0000
 5301,-0.00020145,0.00008145,0.00054382,-0.00005915,0.00008421,0.000071
 58,-0.00010393,-0.00000139,0.00002731,-0.00000784,0.00010124,-0.000054
 28,0.00002331,-0.00001532,-0.00001036,0.00000161,0.00007641,0.00006581
 ,-0.00023060,0.00005344,0.00002476,0.00000015,-0.00003365,0.00004262,0
 .00000754,0.00000485,-0.00000625,0.00002996,-0.00001589,0.00000932,-0.
 00058162,0.00020628,0.00036399,0.00057138,0.00102484,0.00045061,-0.013
 56263,0.05240048,-0.00087733,-0.00052454,-0.00077672,0.00091056,-0.000
 33033,0.00108390,0.00065564,-0.00073610,-0.00058519,0.00111469,0.00074
 081,-0.00045452,-0.00010206,-0.00010780,0.00002876,-0.00023231,-0.0000
 7067,-0.00009223,0.00146277,0.00056828,0.00049647,-0.00025650,0.000053
 28,0.00020822,0.00872366,-0.00241302,-0.02468088,0.09879169,-0.0246623
 8,-0.24656351,-0.00046048,0.00078172,0.00050949,-0.00013236,0.00001880
 ,0.00001267,-0.00027082,0.00037643,-0.00003733,-0.00003452,0.00002428,
 0.00003799,0.00002394,-0.00006628,-0.00001151,0.00001503,0.00000394,-0
 .00000634,-0.00000380,-0.00007079,0.00001183,-0.00002631,0.00016824,0.
 00014178,-0.00075911,-0.00063146,0.00054715,0.00013250,0.00007944,0.00
 026388,-0.00007811,-0.00002667,0.00006184,0.00001967,0.00001084,-0.000
 03304,0.00041526,0.00043936,0.00136676,-0.00450650,-0.00002317,-0.0022
 8109,-0.10614710,0.02635009,0.27417667,0.00176684,-0.00073514,0.000087
 02,0.01104667,0.01517110,-0.00279995,-0.00222499,0.00218744,0.00037322
 ,-0.00017867,0.00004493,0.00025400,0.00074448,0.00072384,0.00001092,-0
 .00024650,0.00030001,-0.00005011,-0.00209505,0.00220386,-0.00431493,-0
 .00037537,-0.00149442,0.00043418,-0.01362330,-0.01690202,0.00424635,-0
 .16175359,-0.13327922,0.02338030,0.00009153,-0.00008297,-0.00012636,0.
 00004288,-0.00004191,0.00001286,0.00005002,-0.00000771,-0.00005363,0.0
 0000136,-0.00003878,0.00001639,-0.00016132,0.00034380,0.00010194,0.000
 05311,-0.00005695,-0.00002673,0.00005136,-0.00010659,0.00002099,0.0000
 5801,-0.00005258,-0.00000266,0.00029301,0.00037466,0.00002357,-0.00000
 286,-0.00000778,-0.00011151,-0.00041846,-0.00007415,-0.00040595,0.0000
 2140,0.00004572,0.00006519,0.00015710,0.00036100,0.00053368,0.00122638
 ,0.00022590,0.00002431,-0.00842390,-0.01000174,0.00162190,0.17389986,-
 0.00024557,0.00609783,-0.00081174,-0.02249374,-0.02749652,0.00479535,0
 .00490531,-0.00256175,-0.00059256,0.00031700,0.00029305,-0.00048788,-0
 .00140321,-0.00101527,0.00016073,0.00047876,0.00030764,0.00041123,0.00
 063920,0.00076205,0.00031420,0.00013873,0.00021207,0.00018119,0.002060
 86,0.00269224,-0.00126174,-0.12853540,-0.19912820,0.02730990,-0.000081
 78,0.00011118,0.00008745,-0.00000308,-0.00003789,0.00007331,-0.0001047
 3,0.00001515,0.00004852,0.00002700,0.00000319,-0.00009667,0.00037381,-
 0.00050905,-0.00016401,0.00004598,-0.00002775,0.00007656,-0.00011790,-
 0.00000674,-0.00006143,-0.00003739,-0.00001920,-0.00009189,-0.00002679
 ,-0.00005912,0.00006495,-0.00000285,-0.00001619,-0.00000689,0.00006795
 ,0.00000516,0.00004228,-0.00003931,0.00002057,-0.00003751,-0.00023668,
 0.00034300,-0.00043144,-0.00009615,0.00013702,-0.00037202,0.00347028,0
 .00394366,0.00004769,0.14089969,0.21593385,-0.00081374,0.00022247,-0.0
 0118792,0.00065360,-0.00268779,-0.00034391,0.00013366,-0.00014899,0.00
 096092,0.00028913,-0.00011292,-0.00000834,0.00015333,0.00007718,0.0002
 0993,-0.00010236,0.00057073,-0.00006776,-0.00267126,0.00163506,-0.0037
 2192,-0.00078518,-0.00129884,0.00059361,-0.01530802,-0.01988498,0.0036
 7724,0.02289013,0.02781275,-0.05505591,-0.00037405,0.00004425,0.000217
 17,-0.00003963,0.00001716,0.00000866,-0.00018393,0.00015439,0.00007064
 ,-0.00003273,0.00001108,0.00000954,-0.00005529,0.00002293,-0.00000066,
 0.00002596,-0.00004182,-0.00000171,0.00007741,-0.00008949,0.00004874,0
 .00002954,-0.00003436,-0.00001043,-0.00028024,-0.00003949,0.00027067,0
 .00010007,-0.00000035,-0.00001367,-0.00042737,-0.00006417,-0.00041664,
 0.00002905,0.00003642,0.00004332,0.00059245,0.00037807,0.00066424,0.00
 087261,-0.00037833,0.00085434,0.01854188,0.02299658,-0.00342507,-0.023
 31499,-0.02919757,0.05662493\\0.00005758,0.00000345,-0.00000942,-0.000
 06793,-0.00003009,0.00000346,-0.00001332,-0.00000939,0.00001910,-0.000
 01547,-0.00000598,-0.00003033,0.00000557,-0.00001476,0.00000490,0.0000
 0322,-0.00000551,-0.00005596,0.00002122,0.00001090,0.00001213,-0.00000
 637,-0.00001294,0.00000059,-0.00002504,0.00000425,-0.00000889,0.000012
 12,0.00003777,0.00002866,-0.00002090,-0.00000751,0.00000652,0.00000183
 ,0.00000679,-0.00000977,0.00001052,0.00001271,0.00001071,-0.00000153,0
 .00000395,0.00000341,0.00000063,0.00000508,0.00000075,-0.00000019,0.00
 000061,0.00000331,0.00000831,0.00000840,-0.00000319,-0.00001009,-0.000
 00136,0.00000839,0.00001498,-0.00000508,0.00000052,0.00000137,-0.00001
 082,0.00000569,0.00000159,0.00000449,0.00000639,0.00000975,0.00000253,
 0.00000440,0.00000920,0.00000015,0.00000478,0.00000409,0.00000298,0.00
 000949,0.00000836,0.00000584,-0.00000998,-0.00000949,-0.00000646,-0.00
 000565\\\@


 We find comfort among those who agree with us -- growth among those who don't.
 -- Frank A. Clark
 Job cpu time:       0 days  0 hours  2 minutes 12.3 seconds.
 Elapsed time:       0 days  0 hours  2 minutes 12.5 seconds.
 File lengths (MBytes):  RWF=    106 Int=      0 D2E=      0 Chk=      5 Scr=      1
 Normal termination of Gaussian 16 at Wed Feb 21 19:52:17 2024.
