 Entering Gaussian System, Link 0=g16
 Input=/Volumes/SSD-PMU3/b3lyp_6-31gd_freq/WBNOQNNBFSXWBU-LLVKDONJSA-N_calculating/gaussianinput2.gjf
 Output=/Volumes/SSD-PMU3/b3lyp_6-31gd_freq/WBNOQNNBFSXWBU-LLVKDONJSA-N_calculating/gaussianinput2.log
 Initial command:
 /Applications/g16/l1.exe "/Users/macmini_m1_2022/PycharmProjects/sphere_model/sphere_model_lib/Gau-91629.inp" -scrdir="/Users/macmini_m1_2022/PycharmProjects/sphere_model/sphere_model_lib/"
 Entering Link 1 = /Applications/g16/l1.exe PID=     91630.
  
 Copyright (c) 1988,1990,1992,1993,1995,1998,2003,2009,2016,
            Gaussian, Inc.  All Rights Reserved.
  
 This is part of the Gaussian(R) 16 program.  It is based on
 the Gaussian(R) 09 system (copyright 2009, Gaussian, Inc.),
 the Gaussian(R) 03 system (copyright 2003, Gaussian, Inc.),
 the Gaussian(R) 98 system (copyright 1998, Gaussian, Inc.),
 the Gaussian(R) 94 system (copyright 1995, Gaussian, Inc.),
 the Gaussian 92(TM) system (copyright 1992, Gaussian, Inc.),
 the Gaussian 90(TM) system (copyright 1990, Gaussian, Inc.),
 the Gaussian 88(TM) system (copyright 1988, Gaussian, Inc.),
 the Gaussian 86(TM) system (copyright 1986, Carnegie Mellon
 University), and the Gaussian 82(TM) system (copyright 1983,
 Carnegie Mellon University). Gaussian is a federally registered
 trademark of Gaussian, Inc.
  
 This software contains proprietary and confidential information,
 including trade secrets, belonging to Gaussian, Inc.
  
 This software is provided under written license and may be
 used, copied, transmitted, or stored only in accord with that
 written license.
  
 The following legend is applicable only to US Government
 contracts under FAR:
  
                    RESTRICTED RIGHTS LEGEND
  
 Use, reproduction and disclosure by the US Government is
 subject to restrictions as set forth in subparagraphs (a)
 and (c) of the Commercial Computer Software - Restricted
 Rights clause in FAR 52.227-19.
  
 Gaussian, Inc.
 340 Quinnipiac St., Bldg. 40, Wallingford CT 06492
  
  
 ---------------------------------------------------------------
 Warning -- This program may not be used in any manner that
 competes with the business of Gaussian, Inc. or will provide
 assistance to any competitor of Gaussian, Inc.  The licensee
 of this program is prohibited from giving any competitor of
 Gaussian, Inc. access to this program.  By using this program,
 the user acknowledges that Gaussian, Inc. is engaged in the
 business of creating and licensing software in the field of
 computational chemistry and represents and warrants to the
 licensee that it is not a competitor of Gaussian, Inc. and that
 it will not use this program in any manner prohibited above.
 ---------------------------------------------------------------
  

 Cite this work as:
 Gaussian 16, Revision A.03,
 M. J. Frisch, G. W. Trucks, H. B. Schlegel, G. E. Scuseria, 
 M. A. Robb, J. R. Cheeseman, G. Scalmani, V. Barone, 
 G. A. Petersson, H. Nakatsuji, X. Li, M. Caricato, A. V. Marenich, 
 J. Bloino, B. G. Janesko, R. Gomperts, B. Mennucci, H. P. Hratchian, 
 J. V. Ortiz, A. F. Izmaylov, J. L. Sonnenberg, D. Williams-Young, 
 F. Ding, F. Lipparini, F. Egidi, J. Goings, B. Peng, A. Petrone, 
 T. Henderson, D. Ranasinghe, V. G. Zakrzewski, J. Gao, N. Rega, 
 G. Zheng, W. Liang, M. Hada, M. Ehara, K. Toyota, R. Fukuda, 
 J. Hasegawa, M. Ishida, T. Nakajima, Y. Honda, O. Kitao, H. Nakai, 
 T. Vreven, K. Throssell, J. A. Montgomery, Jr., J. E. Peralta, 
 F. Ogliaro, M. J. Bearpark, J. J. Heyd, E. N. Brothers, K. N. Kudin, 
 V. N. Staroverov, T. A. Keith, R. Kobayashi, J. Normand, 
 K. Raghavachari, A. P. Rendell, J. C. Burant, S. S. Iyengar, 
 J. Tomasi, M. Cossi, J. M. Millam, M. Klene, C. Adamo, R. Cammi, 
 J. W. Ochterski, R. L. Martin, K. Morokuma, O. Farkas, 
 J. B. Foresman, and D. J. Fox, Gaussian, Inc., Wallingford CT, 2016.
 
 ******************************************
 Gaussian 16:  EM64M-G16RevA.03 25-Dec-2016
                24-Feb-2024 
 ******************************************
 %nprocshared=10
 Will use up to   10 processors via shared memory.
 %mem=12GB
 %chk= 2.chk
 ---------------------
 # freq b3lyp/6-31g(d)
 ---------------------
 1/10=4,30=1,38=1/1,3;
 2/12=2,17=6,18=5,40=1/2;
 3/5=1,6=6,7=1,11=2,25=1,30=1,71=2,74=-5,140=1/1,2,3;
 4//1;
 5/5=2,38=5,98=1/2;
 8/6=4,10=90,11=11/1;
 11/6=1,8=1,9=11,15=111,16=1/1,2,10;
 10/6=1/2;
 6/7=2,8=2,9=2,10=2,28=1/1;
 7/8=1,10=1,25=1/1,2,3,16;
 1/10=4,30=1/3;
 99//99;
 ---------
 good luck
 ---------
 Symbolic Z-matrix:
 Charge =  0 Multiplicity = 1
 O                     1.20458   0.        0. 
 C                     0.        0.        0. 
 C                    -1.06963  -1.10157   0.07417 
 C                    -2.09979   0.01188   0.43437 
 C                    -1.05549   1.12047   0.07417 
 C                    -0.78796   2.27587   1.03699 
 C                    -1.9246    3.31853   1.06664 
 C                    -1.65439   4.45349   2.03187 
 C                    -2.09763   4.38971   3.35959 
 C                    -1.81657   5.41732   4.26108 
 C                    -1.08479   6.53142   3.8468 
 C                    -0.63857   6.60935   2.52616 
 C                    -0.92227   5.57887   1.62933 
 H                    -1.24533  -1.56864  -0.90239 
 H                    -0.88732  -1.89357   0.8077 
 H                    -3.02558   0.01466  -0.14554 
 H                    -2.35136   0.01541   1.49981 
 H                    -1.23646   1.51031  -0.93911 
 H                    -0.63134   1.88042   2.04977 
 H                     0.1526    2.76312   0.75062 
 H                    -2.86406   2.81943   1.33784 
 H                    -2.06525   3.71827   0.05327 
 H                    -2.67325   3.52682   3.6889 
 H                    -2.17315   5.34947   5.28571 
 H                    -0.8674    7.33436   4.54607 
 H                    -0.07233   7.47508   2.19231 
 H                    -0.57459   5.64933   0.60055 
 

 GradGradGradGradGradGradGradGradGradGradGradGradGradGradGradGradGradGrad
 Berny optimization.
 Initialization pass.
 Trust Radius=3.00D-01 FncErr=1.00D-07 GrdErr=1.00D-07 EigMax=2.50D+02 EigMin=1.00D-04
 Number of steps in this run=      2 maximum allowed number of steps=      2.
 GradGradGradGradGradGradGradGradGradGradGradGradGradGradGradGradGradGrad

                          Input orientation:                          
 ---------------------------------------------------------------------
 Center     Atomic      Atomic             Coordinates (Angstroms)
 Number     Number       Type             X           Y           Z
 ---------------------------------------------------------------------
      1          8           0        1.204577    0.000000    0.000000
      2          6           0        0.000000    0.000000    0.000000
      3          6           0       -1.069627   -1.101575    0.074165
      4          6           0       -2.099793    0.011882    0.434367
      5          6           0       -1.055487    1.120466    0.074165
      6          6           0       -0.787961    2.275866    1.036992
      7          6           0       -1.924604    3.318532    1.066637
      8          6           0       -1.654393    4.453487    2.031866
      9          6           0       -2.097634    4.389710    3.359593
     10          6           0       -1.816573    5.417325    4.261076
     11          6           0       -1.084795    6.531416    3.846800
     12          6           0       -0.638574    6.609353    2.526159
     13          6           0       -0.922271    5.578866    1.629326
     14          1           0       -1.245333   -1.568636   -0.902389
     15          1           0       -0.887324   -1.893565    0.807696
     16          1           0       -3.025579    0.014658   -0.145541
     17          1           0       -2.351362    0.015413    1.499811
     18          1           0       -1.236458    1.510305   -0.939109
     19          1           0       -0.631340    1.880419    2.049768
     20          1           0        0.152598    2.763124    0.750624
     21          1           0       -2.864063    2.819430    1.337839
     22          1           0       -2.065251    3.718274    0.053274
     23          1           0       -2.673245    3.526823    3.688904
     24          1           0       -2.173146    5.349472    5.285713
     25          1           0       -0.867404    7.334355    4.546074
     26          1           0       -0.072328    7.475081    2.192310
     27          1           0       -0.574589    5.649332    0.600547
 ---------------------------------------------------------------------
                    Distance matrix (angstroms):
                    1          2          3          4          5
     1  O    0.000000
     2  C    1.204577   0.000000
     3  C    2.528037   1.537228   0.000000
     4  C    3.332818   2.144282   1.559094   0.000000
     5  C    2.523655   1.541103   2.222086   1.565017   0.000000
     6  C    3.197675   2.622175   3.523277   2.685085   1.527598
     7  C    4.684244   3.981767   4.610134   3.371111   2.563564
     8  C    5.668839   5.167112   5.918890   4.741122   3.911561
     9  C    6.439023   5.912401   6.481130   5.265200   4.750586
    10  C    7.525392   7.127701   7.783586   6.628931   6.047518
    11  C    7.918238   7.657287   8.514432   7.428273   6.596364
    12  C    7.311787   7.104421   8.102869   7.073710   6.026107
    13  C    6.188855   5.884644   6.860651   5.814275   4.723728
    14  H    3.045814   2.196766   1.096666   2.239432   2.867223
    15  H    2.934964   2.241719   1.094783   2.289145   3.106562
    16  H    4.232684   3.029113   2.262741   1.092420   2.269878
    17  H    3.859323   2.789009   2.218777   1.094747   2.221013
    18  H    3.020198   2.166051   2.806506   2.208406   1.100659
    19  H    3.332884   2.852388   3.603802   2.873553   2.158804
    20  H    3.050402   2.867329   4.109420   3.569680   2.148346
    21  H    5.127653   4.235783   4.493457   3.046752   2.784654
    22  H    4.951785   4.253664   4.921651   3.726093   2.787233
    23  H    6.409680   5.761313   6.087692   4.824486   4.634008
    24  H    8.244066   7.828038   8.366241   7.213238   6.803961
    25  H    8.874269   8.672482   9.550067   8.487846   7.658052
    26  H    7.893893   7.790269   8.890454   7.930972   6.770101
    27  H    5.953238   5.710145   6.789469   5.842491   4.584645
                    6          7          8          9         10
     6  C    0.000000
     7  C    1.542721   0.000000
     8  C    2.546078   1.514201   0.000000
     9  C    3.402654   2.536732   1.401210   0.000000
    10  C    4.617524   3.823747   2.434063   1.395586   0.000000
    11  C    5.108115   4.330959   2.817129   2.418702   1.395823
    12  C    4.584653   3.822771   2.433921   2.783933   2.412167
    13  C    3.358379   2.535823   1.401613   2.406116   2.784238
    14  H    4.330194   5.312521   6.711419   7.375147   8.705822
    15  H    4.176913   5.320616   6.509382   6.888873   8.138701
    16  H    3.393874   3.687425   5.130736   5.682264   7.075930
    17  H    2.787126   3.358624   4.523864   4.760004   6.090258
    18  H    2.166151   2.786799   4.202818   5.245135   6.530181
    19  H    1.098464   2.169619   2.769050   3.187821   4.336400
    20  H    1.097305   2.173272   2.786418   3.809993   4.821378
    21  H    2.167065   1.097833   2.148282   2.672205   4.048655
    22  H    2.163264   1.098399   2.150388   3.373962   4.544691
    23  H    3.485947   2.734983   2.154656   1.088277   2.152967
    24  H    5.423783   4.689040   3.414588   2.153319   1.087028
    25  H    6.156970   5.417655   3.903843   3.404723   2.158043
    26  H    5.373893   4.687746   3.414484   3.870908   3.399492
    27  H    3.408267   2.733571   2.155156   3.393913   3.872444
                   11         12         13         14         15
    11  C    0.000000
    12  C    1.396166   0.000000
    13  C    2.418875   1.395241   0.000000
    14  H    9.391028   8.888341   7.589515   0.000000
    15  H    8.958541   8.678399   7.517548   1.777116   0.000000
    16  H    7.885021   7.505050   6.207614   2.499783   3.020283
    17  H    7.040657   6.889636   5.745527   3.082706   2.503323
    18  H    6.938262   6.194016   4.821697   3.079173   3.841816
    19  H    5.006667   4.752875   3.733621   4.581288   3.981360
    20  H    5.031647   4.309519   3.139405   4.842603   4.771734
    21  H    4.820739   4.552848   3.386740   5.185946   5.138178
    22  H    4.823474   4.063115   2.692981   5.434793   5.783546
    23  H    3.402306   3.872190   3.393914   7.005898   6.393081
    24  H    2.156843   3.399610   3.871237   9.328111   8.612059
    25  H    1.086717   2.158251   3.404728  10.444703   9.956424
    26  H    2.157065   1.087003   2.152902   9.630261   9.505414
    27  H    3.402432   2.152607   1.088225   7.403227   7.552219
                   16         17         18         19         20
    16  H    0.000000
    17  H    1.778132   0.000000
    18  H    2.463263   3.070186   0.000000
    19  H    3.746041   2.595992   3.071895   0.000000
    20  H    4.296276   3.792231   2.520760   1.755421   0.000000
    21  H    3.176988   2.855102   3.089886   2.524606   3.073798
    22  H    3.831257   3.985663   2.558681   3.069169   2.513456
    23  H    5.211757   4.150390   5.248734   3.093023   4.147543
    24  H    7.660640   6.543470   7.373262   4.988270   5.715358
    25  H    8.958065   8.065281   8.008932   6.002723   6.028432
    26  H    8.357341   7.830721   6.836632   5.624327   4.932706
    27  H    6.189794   5.975503   4.465440   4.038337   2.980188
                   21         22         23         24         25
    21  H    0.000000
    22  H    1.759582   0.000000
    23  H    2.462585   3.691086   0.000000
    24  H    4.739640   5.481867   2.474257   0.000000
    25  H    5.887611   5.890342   4.300361   2.488330   0.000000
    26  H    5.495361   4.760338   4.959164   4.301255   2.488404
    27  H    3.713978   2.500113   4.295038   4.959444   4.300259
                   26         27
    26  H    0.000000
    27  H    2.473729   0.000000
 Stoichiometry    C12H14O
 Framework group  C1[X(C12H14O)]
 Deg. of freedom    75
 Full point group                 C1      NOp   1
 Largest Abelian subgroup         C1      NOp   1
 Largest concise Abelian subgroup C1      NOp   1
                         Standard orientation:                         
 ---------------------------------------------------------------------
 Center     Atomic      Atomic             Coordinates (Angstroms)
 Number     Number       Type             X           Y           Z
 ---------------------------------------------------------------------
      1          8           0       -3.469542    1.674835   -0.981781
      2          6           0       -3.345711    0.652605   -0.356707
      3          6           0       -4.176309   -0.635377   -0.237221
      4          6           0       -2.921649   -1.309619    0.396813
      5          6           0       -2.212432    0.080300    0.516874
      6          6           0       -0.779805    0.265234    0.019951
      7          6           0        0.272742   -0.381714    0.943850
      8          6           0        1.688104   -0.201994    0.436646
      9          6           0        2.281549   -1.160945   -0.394994
     10          6           0        3.571843   -0.978998   -0.894689
     11          6           0        4.293448    0.170361   -0.568218
     12          6           0        3.715445    1.133322    0.261179
     13          6           0        2.424998    0.946259    0.757616
     14          1           0       -5.015808   -0.518591    0.458681
     15          1           0       -4.561690   -1.042305   -1.177668
     16          1           0       -3.087956   -1.848652    1.332316
     17          1           0       -2.407748   -1.973458   -0.305821
     18          1           0       -2.310199    0.479543    1.537901
     19          1           0       -0.684722   -0.156237   -0.989972
     20          1           0       -0.575864    1.339064   -0.076886
     21          1           0        0.051310   -1.451934    1.047934
     22          1           0        0.179549    0.054922    1.947415
     23          1           0        1.727403   -2.062222   -0.649883
     24          1           0        4.014829   -1.737260   -1.535339
     25          1           0        5.299537    0.312810   -0.953507
     26          1           0        4.271001    2.029475    0.525455
     27          1           0        1.983353    1.699558    1.407019
 ---------------------------------------------------------------------
 Rotational constants (GHZ):           2.1395602           0.3106145           0.2953613
 Standard basis: 6-31G(d) (6D, 7F)
 There are   223 symmetry adapted cartesian basis functions of A   symmetry.
 There are   223 symmetry adapted basis functions of A   symmetry.
   223 basis functions,   420 primitive gaussians,   223 cartesian basis functions
    47 alpha electrons       47 beta electrons
       nuclear repulsion energy       713.8558713457 Hartrees.
 NAtoms=   27 NActive=   27 NUniq=   27 SFac= 1.00D+00 NAtFMM=   60 NAOKFM=F Big=F
 Integral buffers will be    131072 words long.
 Raffenetti 2 integral format.
 Two-electron integral symmetry is turned on.
 One-electron integrals computed using PRISM.
 NBasis=   223 RedAO= T EigKep=  4.67D-04  NBF=   223
 NBsUse=   223 1.00D-06 EigRej= -1.00D+00 NBFU=   223
 ExpMin= 1.61D-01 ExpMax= 5.48D+03 ExpMxC= 8.25D+02 IAcc=3 IRadAn=         5 AccDes= 0.00D+00
 Harris functional with IExCor=  402 and IRadAn=       5 diagonalized for initial guess.
 HarFok:  IExCor=  402 AccDes= 0.00D+00 IRadAn=         5 IDoV= 1 UseB2=F ITyADJ=14
 ICtDFT=  3500011 ScaDFX=  1.000000  1.000000  1.000000  1.000000
 FoFCou: FMM=F IPFlag=           0 FMFlag=      100000 FMFlg1=           0
         NFxFlg=           0 DoJE=T BraDBF=F KetDBF=T FulRan=T
         wScrn=  0.000000 ICntrl=       500 IOpCl=  0 I1Cent=   200000004 NGrid=           0
         NMat0=    1 NMatS0=      1 NMatT0=    0 NMatD0=    1 NMtDS0=    0 NMtDT0=    0
 Petite list used in FoFCou.
 Requested convergence on RMS density matrix=1.00D-08 within 128 cycles.
 Requested convergence on MAX density matrix=1.00D-06.
 Requested convergence on             energy=1.00D-06.
 No special actions if energy rises.
 Integral accuracy reduced to 1.0D-05 until final iterations.
 Initial convergence to 1.0D-05 achieved.  Increase integral accuracy.
 SCF Done:  E(RB3LYP) =  -540.908524521     A.U. after   14 cycles
            NFock= 14  Conv=0.47D-08     -V/T= 2.0097
 DoSCS=F DFT=T ScalE2(SS,OS)=  1.000000  1.000000
 Range of M.O.s used for correlation:     1   223
 NBasis=   223 NAE=    47 NBE=    47 NFC=     0 NFV=     0
 NROrb=    223 NOA=    47 NOB=    47 NVA=   176 NVB=   176
 Symmetrizing basis deriv contribution to polar:
 IMax=3 JMax=2 DiffMx= 0.00D+00
 G2DrvN: will do    28 centers at a time, making    1 passes.
 Calling FoFCou, ICntrl=  3107 FMM=F I1Cent=   0 AccDes= 0.00D+00.
 End of G2Drv F.D. properties file   721 does not exist.
 End of G2Drv F.D. properties file   722 does not exist.
 End of G2Drv F.D. properties file   788 does not exist.
          IDoAtm=111111111111111111111111111
          Differentiating once with respect to electric field.
                with respect to dipole field.
          Differentiating once with respect to nuclear coordinates.
 Keep R1 ints in memory in canonical form, NReq=322414390.
          There are    84 degrees of freedom in the 1st order CPHF.  IDoFFX=6 NUNeed=     3.
     81 vectors produced by pass  0 Test12= 9.85D-15 1.19D-09 XBig12= 1.30D+02 5.26D+00.
 AX will form    81 AO Fock derivatives at one time.
     81 vectors produced by pass  1 Test12= 9.85D-15 1.19D-09 XBig12= 2.19D+01 1.29D+00.
     81 vectors produced by pass  2 Test12= 9.85D-15 1.19D-09 XBig12= 1.60D-01 6.39D-02.
     81 vectors produced by pass  3 Test12= 9.85D-15 1.19D-09 XBig12= 5.75D-04 2.84D-03.
     81 vectors produced by pass  4 Test12= 9.85D-15 1.19D-09 XBig12= 6.26D-07 6.58D-05.
     47 vectors produced by pass  5 Test12= 9.85D-15 1.19D-09 XBig12= 4.44D-10 2.22D-06.
      3 vectors produced by pass  6 Test12= 9.85D-15 1.19D-09 XBig12= 3.57D-13 6.25D-08.
      2 vectors produced by pass  7 Test12= 9.85D-15 1.19D-09 XBig12= 3.05D-16 2.24D-09.
 InvSVY:  IOpt=1 It=  1 EMax= 5.33D-15
 Solved reduced A of dimension   457 with    84 vectors.
 Isotropic polarizability for W=    0.000000      120.46 Bohr**3.
 End of Minotr F.D. properties file   721 does not exist.
 End of Minotr F.D. properties file   722 does not exist.
 End of Minotr F.D. properties file   788 does not exist.

 **********************************************************************

            Population analysis using the SCF density.

 **********************************************************************

 Orbital symmetries:
       Occupied  (A) (A) (A) (A) (A) (A) (A) (A) (A) (A) (A) (A)
                 (A) (A) (A) (A) (A) (A) (A) (A) (A) (A) (A) (A)
                 (A) (A) (A) (A) (A) (A) (A) (A) (A) (A) (A) (A)
                 (A) (A) (A) (A) (A) (A) (A) (A) (A) (A) (A)
       Virtual   (A) (A) (A) (A) (A) (A) (A) (A) (A) (A) (A) (A)
                 (A) (A) (A) (A) (A) (A) (A) (A) (A) (A) (A) (A)
                 (A) (A) (A) (A) (A) (A) (A) (A) (A) (A) (A) (A)
                 (A) (A) (A) (A) (A) (A) (A) (A) (A) (A) (A) (A)
                 (A) (A) (A) (A) (A) (A) (A) (A) (A) (A) (A) (A)
                 (A) (A) (A) (A) (A) (A) (A) (A) (A) (A) (A) (A)
                 (A) (A) (A) (A) (A) (A) (A) (A) (A) (A) (A) (A)
                 (A) (A) (A) (A) (A) (A) (A) (A) (A) (A) (A) (A)
                 (A) (A) (A) (A) (A) (A) (A) (A) (A) (A) (A) (A)
                 (A) (A) (A) (A) (A) (A) (A) (A) (A) (A) (A) (A)
                 (A) (A) (A) (A) (A) (A) (A) (A) (A) (A) (A) (A)
                 (A) (A) (A) (A) (A) (A) (A) (A) (A) (A) (A) (A)
                 (A) (A) (A) (A) (A) (A) (A) (A) (A) (A) (A) (A)
                 (A) (A) (A) (A) (A) (A) (A) (A) (A) (A) (A) (A)
                 (A) (A) (A) (A) (A) (A) (A) (A)
 The electronic state is 1-A.
 Alpha  occ. eigenvalues --  -19.14439 -10.27288 -10.19857 -10.19700 -10.19531
 Alpha  occ. eigenvalues --  -10.19419 -10.19186 -10.19134 -10.18797 -10.18779
 Alpha  occ. eigenvalues --  -10.18638 -10.18621 -10.18592  -1.04142  -0.85531
 Alpha  occ. eigenvalues --   -0.84797  -0.78825  -0.74064  -0.73546  -0.67418
 Alpha  occ. eigenvalues --   -0.63454  -0.61172  -0.60223  -0.57520  -0.52815
 Alpha  occ. eigenvalues --   -0.50734  -0.47840  -0.46637  -0.46002  -0.45335
 Alpha  occ. eigenvalues --   -0.43689  -0.42724  -0.41644  -0.40985  -0.39214
 Alpha  occ. eigenvalues --   -0.38843  -0.37766  -0.35813  -0.35504  -0.34335
 Alpha  occ. eigenvalues --   -0.34057  -0.33565  -0.32762  -0.32070  -0.24705
 Alpha  occ. eigenvalues --   -0.24469  -0.23423
 Alpha virt. eigenvalues --   -0.02103   0.00174   0.00373   0.08500   0.09593
 Alpha virt. eigenvalues --    0.10946   0.11204   0.12841   0.13410   0.14367
 Alpha virt. eigenvalues --    0.15287   0.15552   0.16307   0.16911   0.17703
 Alpha virt. eigenvalues --    0.18326   0.18749   0.19800   0.20027   0.21319
 Alpha virt. eigenvalues --    0.24230   0.25112   0.27391   0.29345   0.30233
 Alpha virt. eigenvalues --    0.30826   0.33092   0.34339   0.34451   0.37512
 Alpha virt. eigenvalues --    0.46065   0.50094   0.50456   0.51848   0.52428
 Alpha virt. eigenvalues --    0.53670   0.54830   0.55270   0.56047   0.56586
 Alpha virt. eigenvalues --    0.58674   0.59756   0.59813   0.60629   0.61033
 Alpha virt. eigenvalues --    0.61617   0.61843   0.63203   0.63724   0.65043
 Alpha virt. eigenvalues --    0.66223   0.67468   0.67950   0.70606   0.71939
 Alpha virt. eigenvalues --    0.74504   0.76702   0.78629   0.79881   0.82044
 Alpha virt. eigenvalues --    0.82564   0.83213   0.83880   0.84163   0.84908
 Alpha virt. eigenvalues --    0.85823   0.86553   0.86782   0.88448   0.88803
 Alpha virt. eigenvalues --    0.91358   0.91398   0.92866   0.93758   0.95016
 Alpha virt. eigenvalues --    0.95367   0.96879   0.98547   1.00518   1.02021
 Alpha virt. eigenvalues --    1.03138   1.06682   1.09204   1.11507   1.12967
 Alpha virt. eigenvalues --    1.16791   1.18729   1.22350   1.25057   1.26252
 Alpha virt. eigenvalues --    1.28573   1.35849   1.38778   1.41910   1.43115
 Alpha virt. eigenvalues --    1.43692   1.48630   1.48883   1.49314   1.49721
 Alpha virt. eigenvalues --    1.51520   1.51927   1.61389   1.63155   1.64931
 Alpha virt. eigenvalues --    1.68755   1.69616   1.75624   1.77310   1.79062
 Alpha virt. eigenvalues --    1.80384   1.81461   1.82698   1.85681   1.89380
 Alpha virt. eigenvalues --    1.89978   1.91950   1.92462   1.94092   1.94770
 Alpha virt. eigenvalues --    1.96979   1.97880   1.98964   2.03469   2.04905
 Alpha virt. eigenvalues --    2.06285   2.07891   2.10101   2.14013   2.14827
 Alpha virt. eigenvalues --    2.15415   2.17108   2.19993   2.22540   2.24109
 Alpha virt. eigenvalues --    2.26664   2.27446   2.31245   2.32940   2.37227
 Alpha virt. eigenvalues --    2.37910   2.38682   2.41634   2.45063   2.47768
 Alpha virt. eigenvalues --    2.54084   2.55555   2.57852   2.64039   2.66310
 Alpha virt. eigenvalues --    2.66662   2.67611   2.72688   2.74554   2.74669
 Alpha virt. eigenvalues --    2.76024   2.77584   2.84422   2.92751   3.01422
 Alpha virt. eigenvalues --    3.05234   3.06483   3.41155   4.01190   4.09318
 Alpha virt. eigenvalues --    4.11770   4.14227   4.16846   4.22610   4.33216
 Alpha virt. eigenvalues --    4.37633   4.40525   4.44673   4.54070   4.70492
 Alpha virt. eigenvalues --    4.75219
          Condensed to atoms (all electrons):
               1          2          3          4          5          6
     1  O    7.958759   0.591927  -0.065278   0.007993  -0.071768   0.001225
     2  C    0.591927   4.549351   0.316655  -0.117124   0.318540  -0.020428
     3  C   -0.065278   0.316655   5.387868   0.324380  -0.276887   0.009318
     4  C    0.007993  -0.117124   0.324380   5.149169   0.340487  -0.036665
     5  C   -0.071768   0.318540  -0.276887   0.340487   5.316747   0.338428
     6  C    0.001225  -0.020428   0.009318  -0.036665   0.338428   5.020762
     7  C    0.000055   0.003227  -0.000147  -0.002756  -0.033511   0.353867
     8  C    0.000000  -0.000068   0.000005   0.000027   0.003879  -0.042028
     9  C   -0.000000  -0.000002   0.000000  -0.000005   0.000063  -0.003611
    10  C   -0.000000  -0.000000   0.000000   0.000000   0.000002  -0.000084
    11  C   -0.000000   0.000000  -0.000000   0.000000  -0.000000   0.000020
    12  C   -0.000000  -0.000000  -0.000000  -0.000000   0.000002  -0.000047
    13  C   -0.000000  -0.000002   0.000000  -0.000001   0.000087  -0.003408
    14  H    0.000588  -0.017511   0.348835  -0.027503   0.008699  -0.000091
    15  H    0.000344  -0.015525   0.348096  -0.024235   0.010550  -0.000426
    16  H   -0.000176   0.003439  -0.022110   0.359902  -0.018405   0.002313
    17  H   -0.000057  -0.000282  -0.025120   0.368254  -0.031327  -0.004052
    18  H   -0.000061  -0.029089   0.013014  -0.039920   0.345946  -0.029296
    19  H    0.000405  -0.002794   0.001284  -0.006634  -0.043125   0.374618
    20  H    0.003315  -0.002822   0.000266   0.004638  -0.035795   0.369417
    21  H   -0.000000  -0.000110  -0.000001   0.003919  -0.004512  -0.037651
    22  H    0.000000   0.000025  -0.000001  -0.000377  -0.004007  -0.040220
    23  H   -0.000000   0.000000  -0.000000  -0.000001  -0.000052   0.000335
    24  H   -0.000000   0.000000  -0.000000  -0.000000  -0.000000  -0.000000
    25  H    0.000000  -0.000000  -0.000000   0.000000   0.000000   0.000000
    26  H   -0.000000   0.000000  -0.000000   0.000000  -0.000000  -0.000000
    27  H   -0.000000   0.000000  -0.000000   0.000000  -0.000061   0.000398
               7          8          9         10         11         12
     1  O    0.000055   0.000000  -0.000000  -0.000000  -0.000000  -0.000000
     2  C    0.003227  -0.000068  -0.000002  -0.000000   0.000000  -0.000000
     3  C   -0.000147   0.000005   0.000000   0.000000  -0.000000  -0.000000
     4  C   -0.002756   0.000027  -0.000005   0.000000   0.000000  -0.000000
     5  C   -0.033511   0.003879   0.000063   0.000002  -0.000000   0.000002
     6  C    0.353867  -0.042028  -0.003611  -0.000084   0.000020  -0.000047
     7  C    5.168711   0.356269  -0.056126   0.006649   0.000399   0.006550
     8  C    0.356269   4.630722   0.548775  -0.019204  -0.034361  -0.018787
     9  C   -0.056126   0.548775   4.961096   0.523052  -0.035903  -0.047075
    10  C    0.006649  -0.019204   0.523052   4.868377   0.551145  -0.026454
    11  C    0.000399  -0.034361  -0.035903   0.551145   4.853341   0.550259
    12  C    0.006550  -0.018787  -0.047075  -0.026454   0.550259   4.867074
    13  C   -0.057940   0.547024  -0.038330  -0.047075  -0.035773   0.524253
    14  H    0.000002  -0.000000   0.000000  -0.000000   0.000000  -0.000000
    15  H    0.000007  -0.000000  -0.000000  -0.000000   0.000000  -0.000000
    16  H    0.000396   0.000005  -0.000000  -0.000000  -0.000000   0.000000
    17  H   -0.000057  -0.000024  -0.000006  -0.000000   0.000000  -0.000000
    18  H   -0.005784   0.000176   0.000001  -0.000000   0.000000  -0.000000
    19  H   -0.041959  -0.000549   0.003646  -0.000124  -0.000006  -0.000011
    20  H   -0.038635  -0.001944  -0.000068  -0.000002  -0.000004  -0.000121
    21  H    0.358112  -0.029663  -0.004934   0.000116   0.000010  -0.000207
    22  H    0.357848  -0.028834   0.003826  -0.000213   0.000013   0.000088
    23  H   -0.009757  -0.046725   0.353921  -0.046470   0.004894   0.000365
    24  H   -0.000181   0.003701  -0.039574   0.356038  -0.043255   0.004567
    25  H    0.000007   0.000744   0.004646  -0.043066   0.358541  -0.042979
    26  H   -0.000182   0.003666   0.000877   0.004556  -0.043239   0.356215
    27  H   -0.009475  -0.046780   0.006177   0.000375   0.004861  -0.046008
              13         14         15         16         17         18
     1  O   -0.000000   0.000588   0.000344  -0.000176  -0.000057  -0.000061
     2  C   -0.000002  -0.017511  -0.015525   0.003439  -0.000282  -0.029089
     3  C    0.000000   0.348835   0.348096  -0.022110  -0.025120   0.013014
     4  C   -0.000001  -0.027503  -0.024235   0.359902   0.368254  -0.039920
     5  C    0.000087   0.008699   0.010550  -0.018405  -0.031327   0.345946
     6  C   -0.003408  -0.000091  -0.000426   0.002313  -0.004052  -0.029296
     7  C   -0.057940   0.000002   0.000007   0.000396  -0.000057  -0.005784
     8  C    0.547024  -0.000000  -0.000000   0.000005  -0.000024   0.000176
     9  C   -0.038330   0.000000  -0.000000  -0.000000  -0.000006   0.000001
    10  C   -0.047075  -0.000000  -0.000000  -0.000000  -0.000000  -0.000000
    11  C   -0.035773   0.000000   0.000000  -0.000000   0.000000   0.000000
    12  C    0.524253  -0.000000  -0.000000   0.000000  -0.000000  -0.000000
    13  C    4.960624  -0.000000  -0.000000  -0.000000   0.000000  -0.000005
    14  H   -0.000000   0.540840  -0.023235  -0.006477   0.003405  -0.000669
    15  H   -0.000000  -0.023235   0.535875   0.002630  -0.005394  -0.000249
    16  H   -0.000000  -0.006477   0.002630   0.571753  -0.033884  -0.006532
    17  H    0.000000   0.003405  -0.005394  -0.033884   0.568129   0.004147
    18  H   -0.000005  -0.000669  -0.000249  -0.006532   0.004147   0.584435
    19  H   -0.000124  -0.000011  -0.000042  -0.000005   0.004629   0.005744
    20  H    0.003751   0.000005   0.000004  -0.000119   0.000060  -0.002385
    21  H    0.004121   0.000002   0.000002  -0.000310   0.000865  -0.000362
    22  H   -0.005278   0.000000  -0.000000   0.000042   0.000069   0.005710
    23  H    0.006256   0.000000   0.000000  -0.000001   0.000049   0.000001
    24  H    0.000862   0.000000   0.000000   0.000000  -0.000000   0.000000
    25  H    0.004645   0.000000  -0.000000  -0.000000  -0.000000   0.000000
    26  H   -0.039466  -0.000000   0.000000   0.000000   0.000000  -0.000000
    27  H    0.354758   0.000000   0.000000  -0.000000   0.000000   0.000004
              19         20         21         22         23         24
     1  O    0.000405   0.003315  -0.000000   0.000000  -0.000000  -0.000000
     2  C   -0.002794  -0.002822  -0.000110   0.000025   0.000000   0.000000
     3  C    0.001284   0.000266  -0.000001  -0.000001  -0.000000  -0.000000
     4  C   -0.006634   0.004638   0.003919  -0.000377  -0.000001  -0.000000
     5  C   -0.043125  -0.035795  -0.004512  -0.004007  -0.000052  -0.000000
     6  C    0.374618   0.369417  -0.037651  -0.040220   0.000335  -0.000000
     7  C   -0.041959  -0.038635   0.358112   0.357848  -0.009757  -0.000181
     8  C   -0.000549  -0.001944  -0.029663  -0.028834  -0.046725   0.003701
     9  C    0.003646  -0.000068  -0.004934   0.003826   0.353921  -0.039574
    10  C   -0.000124  -0.000002   0.000116  -0.000213  -0.046470   0.356038
    11  C   -0.000006  -0.000004   0.000010   0.000013   0.004894  -0.043255
    12  C   -0.000011  -0.000121  -0.000207   0.000088   0.000365   0.004567
    13  C   -0.000124   0.003751   0.004121  -0.005278   0.006256   0.000862
    14  H   -0.000011   0.000005   0.000002   0.000000   0.000000   0.000000
    15  H   -0.000042   0.000004   0.000002  -0.000000   0.000000   0.000000
    16  H   -0.000005  -0.000119  -0.000310   0.000042  -0.000001   0.000000
    17  H    0.004629   0.000060   0.000865   0.000069   0.000049  -0.000000
    18  H    0.005744  -0.002385  -0.000362   0.005710   0.000001   0.000000
    19  H    0.596812  -0.034133  -0.004723   0.005879   0.000576   0.000002
    20  H   -0.034133   0.572806   0.005504  -0.004798   0.000025   0.000000
    21  H   -0.004723   0.005504   0.595972  -0.036273   0.005803  -0.000007
    22  H    0.005879  -0.004798  -0.036273   0.600299   0.000065   0.000003
    23  H    0.000576   0.000025   0.005803   0.000065   0.616882  -0.005699
    24  H    0.000002   0.000000  -0.000007   0.000003  -0.005699   0.601009
    25  H   -0.000000  -0.000000  -0.000000  -0.000000  -0.000184  -0.005555
    26  H    0.000000   0.000003   0.000003  -0.000006   0.000018  -0.000191
    27  H    0.000038   0.000773   0.000069   0.005120  -0.000183   0.000018
              25         26         27
     1  O    0.000000  -0.000000  -0.000000
     2  C   -0.000000   0.000000   0.000000
     3  C   -0.000000  -0.000000  -0.000000
     4  C    0.000000   0.000000   0.000000
     5  C    0.000000  -0.000000  -0.000061
     6  C    0.000000  -0.000000   0.000398
     7  C    0.000007  -0.000182  -0.009475
     8  C    0.000744   0.003666  -0.046780
     9  C    0.004646   0.000877   0.006177
    10  C   -0.043066   0.004556   0.000375
    11  C    0.358541  -0.043239   0.004861
    12  C   -0.042979   0.356215  -0.046008
    13  C    0.004645  -0.039466   0.354758
    14  H    0.000000  -0.000000   0.000000
    15  H   -0.000000   0.000000   0.000000
    16  H   -0.000000   0.000000  -0.000000
    17  H   -0.000000   0.000000   0.000000
    18  H    0.000000  -0.000000   0.000004
    19  H   -0.000000   0.000000   0.000038
    20  H   -0.000000   0.000003   0.000773
    21  H   -0.000000   0.000003   0.000069
    22  H   -0.000000  -0.000006   0.005120
    23  H   -0.000184   0.000018  -0.000183
    24  H   -0.005555  -0.000191   0.000018
    25  H    0.600664  -0.005534  -0.000184
    26  H   -0.005534   0.599827  -0.005656
    27  H   -0.000184  -0.005656   0.613075
 Mulliken charges:
               1
     1  O   -0.427271
     2  C    0.422591
     3  C   -0.360177
     4  C   -0.303549
     5  C   -0.163980
     6  C   -0.252691
     7  C   -0.355591
     8  C    0.173976
     9  C   -0.180446
    10  C   -0.127616
    11  C   -0.130942
    12  C   -0.127684
    13  C   -0.178978
    14  H    0.173122
    15  H    0.171597
    16  H    0.147537
    17  H    0.150596
    18  H    0.155176
    19  H    0.140608
    20  H    0.160261
    21  H    0.144255
    22  H    0.141019
    23  H    0.119880
    24  H    0.128261
    25  H    0.128256
    26  H    0.129109
    27  H    0.122682
 Sum of Mulliken charges =  -0.00000
 Mulliken charges with hydrogens summed into heavy atoms:
               1
     1  O   -0.427271
     2  C    0.422591
     3  C   -0.015457
     4  C   -0.005415
     5  C   -0.008805
     6  C    0.048178
     7  C   -0.070317
     8  C    0.173976
     9  C   -0.060566
    10  C    0.000645
    11  C   -0.002687
    12  C    0.001424
    13  C   -0.056296
 APT charges:
               1
     1  O   -0.677415
     2  C    0.835459
     3  C   -0.089709
     4  C    0.045894
     5  C   -0.079311
     6  C    0.111596
     7  C    0.117755
     8  C    0.070733
     9  C   -0.065066
    10  C    0.009174
    11  C   -0.043565
    12  C    0.010190
    13  C   -0.064626
    14  H    0.004981
    15  H   -0.012985
    16  H   -0.035424
    17  H   -0.023613
    18  H   -0.020366
    19  H   -0.035873
    20  H   -0.025745
    21  H   -0.038857
    22  H   -0.049484
    23  H    0.013020
    24  H    0.007874
    25  H    0.011934
    26  H    0.008099
    27  H    0.015328
 Sum of APT charges =   0.00000
 APT charges with hydrogens summed into heavy atoms:
               1
     1  O   -0.677415
     2  C    0.835459
     3  C   -0.097713
     4  C   -0.013143
     5  C   -0.099676
     6  C    0.049978
     7  C    0.029414
     8  C    0.070733
     9  C   -0.052046
    10  C    0.017049
    11  C   -0.031631
    12  C    0.018290
    13  C   -0.049298
 Electronic spatial extent (au):  <R**2>=           3685.6193
 Charge=             -0.0000 electrons
 Dipole moment (field-independent basis, Debye):
    X=              0.3348    Y=             -2.2229    Z=              1.4479  Tot=              2.6739
 Quadrupole moment (field-independent basis, Debye-Ang):
   XX=            -75.4978   YY=            -78.7115   ZZ=            -77.5102
   XY=              9.6583   XZ=             -7.2046   YZ=              5.9610
 Traceless Quadrupole moment (field-independent basis, Debye-Ang):
   XX=              1.7420   YY=             -1.4717   ZZ=             -0.2704
   XY=              9.6583   XZ=             -7.2046   YZ=              5.9610
 Octapole moment (field-independent basis, Debye-Ang**2):
  XXX=              2.6374  YYY=             -1.9522  ZZZ=             -0.8305  XYY=             15.5917
  XXY=            -20.5665  XXZ=              4.9001  XZZ=             -7.8753  YZZ=             -1.9669
  YYZ=              3.9534  XYZ=             -3.8920
 Hexadecapole moment (field-independent basis, Debye-Ang**3):
 XXXX=          -3969.5495 YYYY=           -515.6938 ZZZZ=           -297.9668 XXXY=            128.2974
 XXXZ=           -127.6482 YYYX=             11.1046 YYYZ=             14.2264 ZZZX=              5.0065
 ZZZY=              1.8100 XXYY=           -812.7762 XXZZ=           -750.5041 YYZZ=           -133.9260
 XXYZ=             65.2826 YYXZ=            -15.3603 ZZXY=              2.8946
 N-N= 7.138558713457D+02 E-N=-2.682375328981D+03  KE= 5.356997156181D+02
  Exact polarizability: 158.135  10.311 113.827 -12.791  12.197  89.406
 Approx polarizability: 200.696  15.324 191.072 -23.990  23.790 144.845
 Calling FoFJK, ICntrl=    100127 FMM=F ISym2X=0 I1Cent= 0 IOpClX= 0 NMat=1 NMatS=1 NMatT=0.
 Full mass-weighted force constant matrix:
 Low frequencies ---   -0.8921    0.0007    0.0009    0.0011    2.4006    3.6375
 Low frequencies ---   22.0156   41.2289   57.9648
 Diagonal vibrational polarizability:
       21.6665904      16.8103249      51.5795747
 Harmonic frequencies (cm**-1), IR intensities (KM/Mole), Raman scattering
 activities (A**4/AMU), depolarization ratios for plane and unpolarized
 incident light, reduced masses (AMU), force constants (mDyne/A),
 and normal coordinates:
                      1                      2                      3
                      A                      A                      A
 Frequencies --     22.0121                41.2274                57.9635
 Red. masses --      4.0414                 3.6044                 5.0724
 Frc consts  --      0.0012                 0.0036                 0.0100
 IR Inten    --      0.8115                 0.9228                 1.0236
  Atom  AN      X      Y      Z        X      Y      Z        X      Y      Z
     1   8     0.01   0.11   0.17     0.08  -0.02  -0.10     0.27   0.01  -0.08
     2   6     0.00   0.04   0.06     0.01   0.03   0.01     0.13   0.01  -0.05
     3   6    -0.00   0.03  -0.07    -0.11   0.13   0.19     0.04   0.06  -0.14
     4   6    -0.01  -0.04  -0.13    -0.11   0.04   0.08    -0.08  -0.00   0.04
     5   6    -0.00  -0.05   0.00     0.01  -0.01  -0.03    -0.00  -0.05   0.08
     6   6    -0.00  -0.02   0.01     0.01  -0.12  -0.08     0.03  -0.12   0.14
     7   6     0.00  -0.06  -0.02     0.00  -0.15  -0.10     0.02  -0.08   0.17
     8   6     0.00  -0.03  -0.01     0.01  -0.07  -0.05    -0.01  -0.05   0.11
     9   6     0.10  -0.11   0.15     0.10  -0.02  -0.04    -0.04  -0.01   0.05
    10   6     0.10  -0.09   0.16     0.11   0.07   0.01    -0.11   0.07  -0.09
    11   6     0.00   0.02   0.00     0.03   0.10   0.06    -0.14   0.11  -0.17
    12   6    -0.10   0.10  -0.16    -0.06   0.06   0.05    -0.10   0.07  -0.09
    13   6    -0.10   0.08  -0.17    -0.07  -0.03  -0.00    -0.04  -0.01   0.05
    14   1    -0.01  -0.03  -0.07    -0.01   0.26   0.30    -0.05   0.11  -0.26
    15   1     0.00   0.13  -0.12    -0.28   0.10   0.27     0.15   0.07  -0.19
    16   1    -0.03  -0.12  -0.18    -0.05   0.08   0.11    -0.24   0.05   0.05
    17   1    -0.02   0.02  -0.19    -0.23  -0.01   0.04    -0.04  -0.07   0.14
    18   1     0.01  -0.15   0.04     0.08   0.05  -0.04    -0.04  -0.01   0.06
    19   1     0.00   0.03  -0.01    -0.06  -0.14  -0.08     0.05  -0.16   0.16
    20   1    -0.01  -0.01   0.07     0.06  -0.13  -0.12     0.05  -0.13   0.09
    21   1     0.01  -0.07  -0.07     0.03  -0.16  -0.18     0.04  -0.08   0.21
    22   1     0.00  -0.11  -0.00    -0.03  -0.22  -0.08     0.02  -0.05   0.16
    23   1     0.18  -0.19   0.27     0.17  -0.05  -0.08    -0.02  -0.04   0.09
    24   1     0.18  -0.15   0.29     0.19   0.10   0.02    -0.13   0.10  -0.15
    25   1     0.00   0.04   0.01     0.04   0.17   0.11    -0.20   0.18  -0.28
    26   1    -0.18   0.19  -0.29    -0.13   0.09   0.09    -0.13   0.10  -0.14
    27   1    -0.17   0.14  -0.30    -0.15  -0.07  -0.01    -0.02  -0.04   0.10
                      4                      5                      6
                      A                      A                      A
 Frequencies --     82.1724                92.1816               147.6473
 Red. masses --      2.6244                 2.2989                 4.5486
 Frc consts  --      0.0104                 0.0115                 0.0584
 IR Inten    --      0.5142                 1.7379                 2.5141
  Atom  AN      X      Y      Z        X      Y      Z        X      Y      Z
     1   8    -0.06   0.01  -0.01     0.03  -0.07  -0.11     0.22  -0.07  -0.04
     2   6     0.01   0.01  -0.03    -0.00   0.00   0.01     0.01  -0.03   0.07
     3   6     0.12  -0.07  -0.09    -0.01   0.01   0.10    -0.05  -0.00  -0.07
     4   6     0.07   0.08   0.16     0.10  -0.00  -0.13    -0.12  -0.06   0.03
     5   6    -0.00   0.12   0.06     0.01   0.03   0.01    -0.11  -0.06   0.18
     6   6    -0.00   0.09   0.04     0.02   0.16   0.12    -0.14   0.07   0.14
     7   6    -0.03  -0.11  -0.07    -0.01  -0.04   0.01     0.00   0.04  -0.06
     8   6    -0.02  -0.08  -0.05    -0.01  -0.04   0.02    -0.03   0.10  -0.16
     9   6     0.03  -0.05  -0.04    -0.01  -0.03   0.02    -0.02   0.08  -0.13
    10   6     0.04   0.00  -0.00    -0.02  -0.01  -0.00     0.05  -0.02   0.02
    11   6    -0.01   0.03   0.02    -0.04   0.01  -0.03     0.11  -0.08   0.12
    12   6    -0.07   0.00   0.01    -0.04   0.00  -0.02     0.06  -0.02   0.01
    13   6    -0.07  -0.05  -0.02    -0.03  -0.02   0.00    -0.01   0.08  -0.13
    14   1    -0.03  -0.12  -0.27     0.15   0.01   0.29    -0.11  -0.02  -0.13
    15   1     0.34  -0.16  -0.15    -0.21   0.04   0.18     0.03   0.05  -0.12
    16   1    -0.03   0.22   0.22     0.25  -0.19  -0.21    -0.23  -0.10  -0.01
    17   1     0.19  -0.01   0.33     0.08   0.17  -0.31    -0.06  -0.03   0.05
    18   1    -0.00   0.21   0.03    -0.09  -0.08   0.05    -0.14  -0.13   0.20
    19   1    -0.06   0.21  -0.01     0.07   0.39   0.03    -0.19   0.22   0.07
    20   1     0.07   0.09   0.17     0.02   0.19   0.36    -0.24   0.10   0.26
    21   1    -0.07  -0.12  -0.26    -0.07  -0.05  -0.17     0.06   0.02  -0.13
    22   1    -0.01  -0.28   0.00     0.02  -0.21   0.09     0.10  -0.07  -0.00
    23   1     0.07  -0.07  -0.06     0.00  -0.04   0.03    -0.04   0.11  -0.17
    24   1     0.08   0.02   0.01    -0.02  -0.01  -0.01     0.07  -0.06   0.08
    25   1    -0.01   0.07   0.05    -0.05   0.03  -0.05     0.18  -0.17   0.26
    26   1    -0.11   0.02   0.03    -0.05   0.01  -0.04     0.09  -0.05   0.06
    27   1    -0.12  -0.07  -0.03    -0.03  -0.02   0.01    -0.02   0.11  -0.18
                      7                      8                      9
                      A                      A                      A
 Frequencies --    216.1129               295.0430               330.1540
 Red. masses --      4.8805                 3.8017                 2.2481
 Frc consts  --      0.1343                 0.1950                 0.1444
 IR Inten    --      0.1807                 2.1898                 0.5482
  Atom  AN      X      Y      Z        X      Y      Z        X      Y      Z
     1   8     0.21  -0.00   0.07    -0.13   0.04  -0.03    -0.01  -0.03  -0.05
     2   6     0.13  -0.01   0.07     0.02   0.03  -0.08    -0.05   0.04   0.08
     3   6     0.14  -0.03   0.08     0.04   0.03   0.01     0.02   0.00  -0.02
     4   6     0.19  -0.02  -0.00     0.04   0.03  -0.03     0.05   0.04  -0.06
     5   6     0.12   0.00  -0.01     0.04   0.02  -0.02    -0.04   0.06   0.12
     6   6     0.02  -0.02  -0.19     0.10  -0.14   0.15    -0.07  -0.03   0.00
     7   6    -0.08   0.06  -0.08     0.08  -0.09   0.20    -0.00   0.12   0.06
     8   6    -0.12   0.03  -0.05    -0.02  -0.00  -0.04    -0.00  -0.09  -0.06
     9   6    -0.15   0.02  -0.05    -0.07   0.06  -0.15     0.06  -0.08  -0.04
    10   6    -0.12  -0.02   0.03    -0.02   0.02  -0.03     0.08   0.01  -0.01
    11   6    -0.11  -0.05   0.11     0.04  -0.07   0.15     0.01   0.06  -0.01
    12   6    -0.13  -0.00   0.05    -0.04   0.02  -0.02    -0.03  -0.00   0.02
    13   6    -0.16   0.04  -0.04    -0.09   0.07  -0.14    -0.02  -0.10  -0.01
    14   1     0.19  -0.06   0.15     0.09   0.10   0.07     0.02  -0.12  -0.01
    15   1     0.07  -0.02   0.10    -0.06  -0.00   0.06     0.05   0.07  -0.06
    16   1     0.25  -0.06  -0.01     0.08  -0.02  -0.06     0.06  -0.13  -0.15
    17   1     0.19   0.03  -0.04     0.04   0.08  -0.08     0.15   0.20  -0.14
    18   1     0.25  -0.02   0.01    -0.06   0.07  -0.05    -0.00  -0.01   0.15
    19   1    -0.04  -0.17  -0.13     0.17  -0.23   0.20    -0.17  -0.27   0.09
    20   1     0.04  -0.04  -0.33     0.22  -0.17   0.07    -0.03  -0.06  -0.26
    21   1    -0.11   0.08   0.01     0.15  -0.10   0.29    -0.10   0.17   0.41
    22   1    -0.14   0.17  -0.14     0.18  -0.02   0.17     0.14   0.44  -0.07
    23   1    -0.18   0.05  -0.08    -0.10   0.10  -0.22     0.13  -0.11  -0.08
    24   1    -0.10  -0.02   0.05    -0.01   0.03  -0.03     0.13   0.05  -0.01
    25   1    -0.07  -0.09   0.20     0.13  -0.17   0.34     0.00   0.12  -0.01
    26   1    -0.11  -0.02   0.06    -0.05   0.02  -0.01    -0.09   0.02   0.07
    27   1    -0.20   0.04  -0.07    -0.14   0.09  -0.20    -0.07  -0.15   0.02
                     10                     11                     12
                      A                      A                      A
 Frequencies --    365.4042               417.0861               454.0333
 Red. masses --      2.6727                 2.9916                 2.4524
 Frc consts  --      0.2103                 0.3066                 0.2979
 IR Inten    --      0.3703                 0.0020                 1.7658
  Atom  AN      X      Y      Z        X      Y      Z        X      Y      Z
     1   8     0.04   0.04   0.07    -0.00  -0.00  -0.00    -0.06  -0.11  -0.07
     2   6     0.05  -0.07  -0.10    -0.00   0.00   0.00    -0.02   0.05   0.19
     3   6    -0.04  -0.02   0.03     0.00   0.00  -0.00    -0.02   0.10  -0.02
     4   6    -0.07  -0.06   0.06     0.00   0.00  -0.00    -0.07  -0.01  -0.02
     5   6     0.02  -0.07  -0.14     0.00   0.00   0.00     0.11  -0.05  -0.01
     6   6     0.06   0.14   0.03    -0.00  -0.01  -0.00     0.11   0.05  -0.05
     7   6     0.02   0.14   0.07    -0.00  -0.01  -0.01     0.05   0.02  -0.00
     8   6    -0.00  -0.09  -0.04     0.00   0.01   0.00     0.04  -0.03   0.03
     9   6     0.02  -0.07  -0.07    -0.08   0.10  -0.17    -0.02  -0.02  -0.02
    10   6     0.04   0.01  -0.01     0.07  -0.10   0.17    -0.03  -0.00  -0.02
    11   6    -0.01   0.03   0.03    -0.00  -0.00  -0.00    -0.03  -0.02   0.05
    12   6    -0.06   0.01   0.01    -0.08   0.10  -0.17    -0.03   0.02  -0.00
    13   6    -0.05  -0.08  -0.02     0.08  -0.09   0.17    -0.02   0.01  -0.00
    14   1    -0.02   0.14   0.03    -0.00  -0.01  -0.00    -0.27  -0.22  -0.28
    15   1    -0.10  -0.11   0.09     0.01   0.01  -0.01     0.36   0.37  -0.29
    16   1    -0.08   0.13   0.16     0.00  -0.00  -0.00    -0.14   0.12   0.04
    17   1    -0.18  -0.24   0.14     0.00   0.00  -0.00    -0.18  -0.17   0.05
    18   1    -0.08   0.00  -0.17     0.01  -0.00   0.01     0.26  -0.22   0.07
    19   1     0.24   0.31  -0.02    -0.01  -0.01  -0.00     0.18   0.15  -0.08
    20   1    -0.09   0.19   0.22     0.01  -0.01  -0.01     0.06   0.07   0.07
    21   1    -0.14   0.20   0.27     0.00  -0.01  -0.02    -0.00   0.04   0.01
    22   1     0.16   0.34  -0.00    -0.00  -0.02  -0.00     0.03   0.05  -0.02
    23   1     0.06  -0.08  -0.12    -0.18   0.22  -0.36    -0.05   0.01  -0.04
    24   1     0.10   0.04  -0.01     0.16  -0.21   0.36    -0.03   0.03  -0.06
    25   1     0.00   0.06   0.06     0.00  -0.01   0.00    -0.01  -0.04   0.08
    26   1    -0.11   0.03   0.04    -0.16   0.21  -0.37    -0.04   0.03  -0.04
    27   1    -0.11  -0.12  -0.02     0.18  -0.20   0.37    -0.07   0.02  -0.04
                     13                     14                     15
                      A                      A                      A
 Frequencies --    501.4395               557.0855               588.6053
 Red. masses --      3.6365                 2.7422                 4.5668
 Frc consts  --      0.5387                 0.5014                 0.9322
 IR Inten    --      6.8159                 1.6659                 3.3655
  Atom  AN      X      Y      Z        X      Y      Z        X      Y      Z
     1   8     0.10   0.01   0.02    -0.12  -0.04  -0.00     0.05   0.03   0.02
     2   6    -0.09   0.00   0.04     0.14  -0.04  -0.06    -0.07  -0.02  -0.05
     3   6    -0.07  -0.09   0.02     0.13   0.13  -0.06    -0.09  -0.09  -0.02
     4   6     0.02   0.03  -0.00    -0.03  -0.06   0.01    -0.03   0.04  -0.00
     5   6    -0.05   0.06  -0.06     0.03  -0.06   0.14    -0.06   0.06   0.06
     6   6    -0.03   0.04  -0.07    -0.06   0.02  -0.03     0.02   0.01  -0.01
     7   6    -0.12  -0.03   0.06    -0.04   0.05  -0.07     0.24   0.05  -0.12
     8   6     0.03  -0.13   0.24     0.03  -0.06   0.10     0.24  -0.03   0.02
     9   6     0.03   0.05   0.00     0.01  -0.01   0.02     0.01  -0.14  -0.02
    10   6     0.01   0.10  -0.09    -0.02   0.03  -0.05    -0.07  -0.08  -0.11
    11   6     0.17  -0.07   0.10     0.04  -0.04   0.06    -0.18  -0.08   0.16
    12   6     0.00   0.02  -0.13    -0.02   0.02  -0.05    -0.06   0.13   0.01
    13   6     0.02  -0.03  -0.04     0.01  -0.02   0.02     0.02   0.09   0.11
    14   1    -0.14  -0.26  -0.03     0.34   0.54   0.14    -0.04  -0.05   0.03
    15   1     0.06  -0.10  -0.03    -0.26   0.12   0.11    -0.14  -0.22   0.06
    16   1     0.10   0.04   0.02    -0.21  -0.12  -0.05     0.03  -0.10  -0.08
    17   1     0.03   0.05  -0.01     0.01  -0.04   0.03     0.06   0.18  -0.08
    18   1    -0.02   0.06  -0.05     0.05  -0.05   0.13    -0.11   0.13   0.03
    19   1    -0.01   0.00  -0.05    -0.17   0.04  -0.04    -0.12  -0.06   0.01
    20   1     0.02   0.03  -0.09    -0.17   0.05  -0.03    -0.00   0.01  -0.13
    21   1    -0.23  -0.01   0.03    -0.11   0.06  -0.07     0.25   0.04  -0.13
    22   1    -0.24  -0.02   0.05    -0.11   0.05  -0.07     0.26  -0.00  -0.10
    23   1     0.00   0.13  -0.23    -0.03   0.05  -0.10    -0.19  -0.01  -0.03
    24   1    -0.14   0.18  -0.30    -0.08   0.10  -0.18     0.00   0.11  -0.28
    25   1     0.21  -0.11   0.17     0.04  -0.04   0.07    -0.18  -0.07   0.16
    26   1    -0.14   0.17  -0.31    -0.09   0.10  -0.18     0.01   0.17  -0.24
    27   1    -0.00   0.13  -0.24    -0.04   0.05  -0.10    -0.19   0.05   0.00
                     16                     17                     18
                      A                      A                      A
 Frequencies --    636.7940               669.0712               715.2699
 Red. masses --      6.3352                 3.7303                 1.9175
 Frc consts  --      1.5136                 0.9839                 0.5780
 IR Inten    --      0.0088                 1.0886                20.4670
  Atom  AN      X      Y      Z        X      Y      Z        X      Y      Z
     1   8     0.00   0.00  -0.00    -0.02   0.20  -0.16    -0.00  -0.01   0.01
     2   6    -0.00   0.00  -0.00    -0.07   0.23   0.01     0.02  -0.01  -0.00
     3   6    -0.00  -0.00  -0.00     0.12  -0.06   0.09    -0.00   0.02   0.01
     4   6     0.00   0.00   0.00     0.08  -0.15   0.03     0.01   0.01   0.00
     5   6    -0.00   0.00   0.00    -0.03  -0.16  -0.02     0.00   0.00  -0.02
     6   6    -0.00  -0.01  -0.00    -0.10  -0.06   0.03    -0.01  -0.01   0.01
     7   6    -0.00  -0.04  -0.02     0.00   0.01  -0.03    -0.00   0.00  -0.00
     8   6    -0.01  -0.12  -0.06     0.02   0.00  -0.01    -0.06   0.05  -0.09
     9   6    -0.23  -0.21  -0.01     0.02  -0.03   0.02     0.03  -0.03   0.07
    10   6    -0.22   0.18   0.21    -0.01  -0.00  -0.03    -0.06   0.08  -0.11
    11   6     0.01   0.12   0.07    -0.01  -0.02   0.04     0.04  -0.04   0.06
    12   6     0.25   0.25   0.02    -0.01   0.03  -0.01    -0.06   0.06  -0.12
    13   6     0.21  -0.14  -0.18     0.02   0.00   0.03     0.03  -0.05   0.06
    14   1     0.00  -0.00   0.00     0.14  -0.32   0.16    -0.05   0.01  -0.05
    15   1    -0.00  -0.01   0.00     0.08  -0.05   0.09     0.07   0.02  -0.02
    16   1     0.00  -0.00  -0.00    -0.03   0.13   0.18     0.05  -0.01  -0.00
    17   1     0.00   0.01  -0.00     0.04  -0.41   0.25    -0.02   0.04  -0.04
    18   1     0.01   0.00   0.00     0.04  -0.37   0.07    -0.03   0.02  -0.03
    19   1    -0.02   0.01  -0.01    -0.05   0.15  -0.05     0.00  -0.00   0.01
    20   1     0.02  -0.01   0.02    -0.24  -0.01   0.23    -0.00  -0.01   0.02
    21   1    -0.01  -0.04  -0.08     0.06   0.01   0.09     0.03  -0.01  -0.00
    22   1     0.00  -0.10   0.00     0.01   0.10  -0.06     0.03   0.01  -0.01
    23   1    -0.11  -0.26  -0.10    -0.01  -0.01   0.00     0.20  -0.23   0.41
    24   1    -0.09   0.27   0.19    -0.02   0.04  -0.09     0.05  -0.08   0.14
    25   1    -0.02  -0.26  -0.14    -0.01  -0.01   0.02     0.22  -0.26   0.45
    26   1     0.13   0.30   0.11    -0.01   0.05  -0.08     0.05  -0.08   0.14
    27   1     0.08  -0.23  -0.17    -0.01   0.00   0.01     0.20  -0.24   0.41
                     19                     20                     21
                      A                      A                      A
 Frequencies --    742.4383               770.8271               771.7731
 Red. masses --      1.4158                 1.2715                 1.6699
 Frc consts  --      0.4598                 0.4451                 0.5860
 IR Inten    --     12.0315                 3.2708                14.7038
  Atom  AN      X      Y      Z        X      Y      Z        X      Y      Z
     1   8    -0.02   0.00   0.00    -0.00  -0.00   0.00    -0.01   0.03  -0.02
     2   6     0.07  -0.01  -0.04     0.00  -0.01  -0.01     0.03   0.02  -0.03
     3   6     0.01   0.05   0.09    -0.01  -0.01  -0.01     0.02   0.01   0.05
     4   6     0.02   0.02   0.04    -0.00   0.05   0.02    -0.02  -0.05   0.03
     5   6    -0.00  -0.04  -0.04     0.00  -0.01   0.03    -0.01  -0.03   0.01
     6   6    -0.06  -0.04   0.04    -0.02  -0.06  -0.05    -0.02   0.05  -0.00
     7   6    -0.02   0.02  -0.03    -0.01  -0.06  -0.03    -0.02   0.03   0.02
     8   6    -0.01   0.02  -0.03     0.03  -0.03   0.05     0.07  -0.07   0.11
     9   6     0.01  -0.02   0.02    -0.01   0.02  -0.02    -0.02   0.00  -0.08
    10   6     0.00  -0.01   0.01    -0.00  -0.01  -0.00     0.02  -0.03  -0.02
    11   6     0.01  -0.02   0.03    -0.02   0.01  -0.03    -0.06   0.04  -0.06
    12   6     0.00  -0.00   0.01     0.02   0.01   0.00     0.01   0.03   0.01
    13   6     0.01  -0.01   0.03    -0.00   0.04  -0.02    -0.01   0.05  -0.05
    14   1    -0.32   0.01  -0.31    -0.03   0.06  -0.04    -0.14   0.01  -0.14
    15   1     0.47   0.00  -0.09     0.02  -0.10   0.02     0.23  -0.04  -0.02
    16   1     0.32  -0.22  -0.04     0.06  -0.10  -0.05     0.11  -0.19  -0.03
    17   1    -0.13   0.22  -0.27     0.03   0.18  -0.08    -0.10   0.05  -0.14
    18   1    -0.17   0.07  -0.10     0.13   0.04   0.02    -0.10  -0.00  -0.01
    19   1    -0.06   0.02   0.02    -0.03   0.42  -0.25    -0.05  -0.19   0.09
    20   1    -0.13  -0.02   0.08     0.01  -0.01   0.46    -0.10   0.04  -0.26
    21   1     0.02   0.01   0.01     0.04  -0.03   0.41    -0.13   0.03  -0.22
    22   1     0.01   0.03  -0.03    -0.08   0.35  -0.21    -0.09  -0.18   0.11
    23   1    -0.04   0.05  -0.09    -0.01   0.01   0.02     0.03  -0.07   0.05
    24   1    -0.08   0.10  -0.18     0.06  -0.08   0.13     0.22  -0.19   0.31
    25   1    -0.08   0.10  -0.17     0.05  -0.09   0.13     0.12  -0.18   0.34
    26   1    -0.08   0.11  -0.18     0.11  -0.08   0.13     0.19  -0.17   0.31
    27   1    -0.04   0.05  -0.09     0.03   0.01   0.04     0.01  -0.02   0.06
                     22                     23                     24
                      A                      A                      A
 Frequencies --    785.6718               848.5456               859.9699
 Red. masses --      3.1808                 2.8567                 1.2501
 Frc consts  --      1.1568                 1.2119                 0.5447
 IR Inten    --      1.0041                 1.1026                 0.0065
  Atom  AN      X      Y      Z        X      Y      Z        X      Y      Z
     1   8    -0.01   0.09  -0.05     0.01  -0.03   0.02    -0.00  -0.00  -0.00
     2   6    -0.01   0.06  -0.06    -0.02  -0.04   0.00    -0.00   0.00   0.00
     3   6    -0.05  -0.12   0.02    -0.02   0.07  -0.01    -0.00  -0.00  -0.00
     4   6    -0.11  -0.04   0.04     0.11   0.07  -0.02     0.00   0.01   0.00
     5   6     0.07  -0.02   0.16    -0.06  -0.04  -0.07     0.00  -0.01   0.00
     6   6     0.15   0.03  -0.04    -0.08  -0.04   0.05    -0.00  -0.01  -0.00
     7   6     0.11   0.04  -0.07     0.18   0.04  -0.11    -0.00   0.00   0.00
     8   6    -0.04  -0.00   0.01     0.06  -0.05   0.08    -0.00   0.00  -0.00
     9   6    -0.03   0.08   0.06    -0.03   0.07   0.05    -0.03   0.03  -0.06
    10   6    -0.05   0.09   0.08    -0.06   0.09   0.08    -0.03   0.03  -0.06
    11   6     0.09   0.01  -0.03     0.04   0.04  -0.07    -0.00   0.00   0.00
    12   6    -0.07  -0.11  -0.03    -0.08  -0.11  -0.03     0.03  -0.03   0.06
    13   6    -0.05  -0.09  -0.03    -0.04  -0.08  -0.03     0.03  -0.04   0.06
    14   1    -0.13   0.00  -0.10     0.00  -0.06   0.03     0.00   0.00   0.00
    15   1     0.06  -0.42   0.10    -0.02   0.24  -0.08    -0.01  -0.01   0.00
    16   1    -0.01  -0.43  -0.16     0.10   0.32   0.12     0.00   0.00  -0.00
    17   1    -0.14   0.23  -0.24     0.12  -0.10   0.15     0.01   0.01  -0.00
    18   1     0.21  -0.02   0.17    -0.27  -0.03  -0.09     0.02  -0.00   0.00
    19   1     0.10  -0.01  -0.02    -0.17   0.00   0.03     0.02   0.02  -0.01
    20   1     0.11   0.04  -0.08    -0.21  -0.02   0.02    -0.02   0.00   0.02
    21   1     0.07   0.05  -0.13     0.27   0.03  -0.07     0.00  -0.00  -0.00
    22   1     0.10   0.00  -0.05     0.24   0.02  -0.09    -0.01  -0.00   0.00
    23   1     0.01   0.06   0.03    -0.07   0.13  -0.07     0.19  -0.24   0.41
    24   1    -0.19   0.02   0.07    -0.13  -0.07   0.23     0.18  -0.22   0.38
    25   1     0.08   0.02  -0.05     0.17  -0.13   0.21    -0.00   0.00  -0.00
    26   1    -0.20  -0.05   0.04    -0.14  -0.14   0.18    -0.18   0.23  -0.39
    27   1     0.00  -0.06  -0.04    -0.08  -0.00  -0.16    -0.19   0.24  -0.40
                     25                     26                     27
                      A                      A                      A
 Frequencies --    894.1287               921.8186               939.3329
 Red. masses --      2.3230                 1.5046                 2.3629
 Frc consts  --      1.0942                 0.7533                 1.2284
 IR Inten    --      0.8388                 0.9874                 3.7225
  Atom  AN      X      Y      Z        X      Y      Z        X      Y      Z
     1   8    -0.01  -0.00  -0.00    -0.00  -0.00   0.00     0.01   0.02  -0.02
     2   6    -0.00   0.00  -0.02     0.03   0.01   0.00    -0.11  -0.00  -0.00
     3   6    -0.08  -0.04  -0.06     0.02  -0.03   0.02    -0.11   0.09  -0.10
     4   6     0.05   0.23  -0.01    -0.05   0.01  -0.04     0.15  -0.13   0.15
     5   6     0.09  -0.17   0.04     0.02   0.03   0.00    -0.03  -0.04   0.01
     6   6    -0.03  -0.04   0.02     0.02  -0.01   0.04     0.04  -0.01  -0.05
     7   6    -0.04   0.08   0.03    -0.05  -0.00  -0.02    -0.00   0.02   0.06
     8   6    -0.01   0.01   0.00    -0.03   0.03  -0.05    -0.02   0.03  -0.04
     9   6     0.00  -0.03  -0.01     0.04  -0.05   0.08     0.01  -0.03   0.02
    10   6     0.02  -0.02  -0.02     0.00  -0.01  -0.02     0.01  -0.01  -0.01
    11   6    -0.01   0.01   0.00    -0.04   0.04  -0.08    -0.01   0.02  -0.02
    12   6     0.00   0.01  -0.00     0.01   0.02  -0.00    -0.00   0.00  -0.00
    13   6     0.00  -0.01  -0.01     0.04  -0.04   0.08     0.02  -0.03   0.03
    14   1    -0.03   0.08  -0.00     0.02  -0.08   0.03    -0.10   0.26  -0.10
    15   1    -0.11  -0.34   0.08     0.03  -0.07   0.03    -0.24   0.30  -0.15
    16   1     0.18   0.30   0.05    -0.09   0.05  -0.02     0.25  -0.37   0.04
    17   1    -0.01   0.15   0.02    -0.08  -0.04  -0.01     0.33   0.15   0.02
    18   1     0.34  -0.35   0.13    -0.01  -0.01   0.01     0.19   0.16  -0.04
    19   1     0.17  -0.02   0.03     0.00  -0.03   0.04     0.24   0.06  -0.06
    20   1    -0.36   0.02   0.05     0.10  -0.03   0.01    -0.05   0.02   0.05
    21   1    -0.03   0.04  -0.28    -0.03   0.00   0.03     0.05  -0.01  -0.10
    22   1    -0.11  -0.21   0.15     0.00   0.04  -0.03    -0.04  -0.11   0.11
    23   1    -0.01  -0.01  -0.06    -0.20   0.24  -0.43    -0.07   0.07  -0.16
    24   1     0.05   0.02  -0.05     0.03  -0.02   0.02     0.01   0.02  -0.04
    25   1     0.00   0.02   0.03     0.21  -0.28   0.47     0.08  -0.08   0.18
    26   1     0.02  -0.01   0.04     0.03   0.01  -0.00    -0.01   0.01  -0.00
    27   1     0.00  -0.02   0.01    -0.20   0.26  -0.42    -0.07   0.08  -0.16
                     28                     29                     30
                      A                      A                      A
 Frequencies --    963.4565               965.2960               993.0905
 Red. masses --      1.5724                 1.5302                 1.2713
 Frc consts  --      0.8600                 0.8401                 0.7387
 IR Inten    --      0.1498                 0.1696                 0.3341
  Atom  AN      X      Y      Z        X      Y      Z        X      Y      Z
     1   8     0.01  -0.02   0.00     0.01  -0.01   0.00     0.00  -0.00   0.00
     2   6    -0.02   0.01   0.03    -0.02   0.00   0.03    -0.02  -0.00   0.01
     3   6     0.10  -0.01   0.01     0.09  -0.01   0.01     0.02   0.00  -0.00
     4   6    -0.07   0.03   0.01    -0.06   0.03   0.01     0.00   0.00  -0.00
     5   6    -0.04   0.01  -0.05    -0.03   0.00  -0.05    -0.01   0.00  -0.00
     6   6    -0.04  -0.03  -0.04    -0.03  -0.03  -0.04    -0.02   0.03  -0.02
     7   6     0.03   0.04   0.06     0.03   0.04   0.05     0.02  -0.02   0.02
     8   6     0.01   0.01  -0.00     0.01   0.01  -0.00     0.00   0.00  -0.01
     9   6    -0.03   0.01  -0.05     0.02  -0.04   0.05    -0.01   0.02  -0.02
    10   6     0.03  -0.03   0.06    -0.02   0.03  -0.06     0.02  -0.03   0.06
    11   6    -0.00   0.01  -0.00    -0.00   0.01   0.00    -0.03   0.04  -0.07
    12   6    -0.04   0.02  -0.05     0.01  -0.05   0.05     0.03  -0.04   0.06
    13   6     0.03  -0.05   0.04    -0.02   0.01  -0.06    -0.01   0.02  -0.02
    14   1     0.15  -0.06   0.08     0.14  -0.05   0.07    -0.00   0.12  -0.04
    15   1     0.05  -0.01   0.04     0.04  -0.01   0.04     0.03  -0.08   0.03
    16   1    -0.18  -0.16  -0.12    -0.16  -0.15  -0.11     0.07   0.03   0.03
    17   1     0.05   0.19  -0.05     0.04   0.17  -0.05    -0.08  -0.03  -0.03
    18   1     0.13   0.21  -0.12     0.12   0.19  -0.11     0.02  -0.11   0.04
    19   1     0.18   0.11  -0.08     0.17   0.09  -0.07    -0.04  -0.00  -0.01
    20   1    -0.22   0.02   0.12    -0.20   0.02   0.10     0.01   0.02  -0.05
    21   1     0.14  -0.00  -0.14     0.13  -0.00  -0.14     0.01  -0.02   0.04
    22   1    -0.03  -0.15   0.13    -0.03  -0.15   0.13     0.04   0.00   0.01
    23   1     0.12  -0.16   0.26    -0.15   0.17  -0.32     0.10  -0.11   0.21
    24   1    -0.13   0.19  -0.32     0.16  -0.16   0.31    -0.19   0.22  -0.39
    25   1     0.02   0.01   0.05     0.01   0.03   0.03     0.20  -0.26   0.43
    26   1     0.09  -0.18   0.31    -0.19   0.18  -0.30    -0.19   0.23  -0.40
    27   1    -0.14   0.14  -0.30     0.14  -0.19   0.28     0.10  -0.12   0.21
                     31                     32                     33
                      A                      A                      A
 Frequencies --    999.6517              1018.4271              1051.5288
 Red. masses --      1.5489                 6.2667                 3.4963
 Frc consts  --      0.9120                 3.8296                 2.2777
 IR Inten    --      5.2319                 0.2649                13.6250
  Atom  AN      X      Y      Z        X      Y      Z        X      Y      Z
     1   8     0.02  -0.02   0.01     0.00  -0.00   0.00    -0.04   0.02  -0.02
     2   6    -0.08  -0.01   0.03    -0.01  -0.00   0.00     0.23   0.03  -0.02
     3   6     0.08   0.02  -0.02     0.01   0.00  -0.00    -0.15  -0.06   0.02
     4   6    -0.00  -0.00   0.01    -0.00   0.00   0.00    -0.00  -0.03  -0.04
     5   6    -0.05   0.02  -0.03    -0.01  -0.00  -0.01     0.07   0.02   0.05
     6   6    -0.05   0.07  -0.07     0.00   0.00  -0.00    -0.17   0.11  -0.16
     7   6     0.06  -0.07   0.07     0.02  -0.00  -0.00     0.10  -0.12   0.18
     8   6     0.00   0.01  -0.03     0.03   0.01  -0.02     0.00   0.03  -0.05
     9   6     0.01   0.00   0.02    -0.19  -0.34  -0.10     0.02  -0.02   0.00
    10   6    -0.02   0.02  -0.01    -0.02   0.06   0.04    -0.01   0.04   0.03
    11   6     0.00  -0.01   0.02     0.35   0.05  -0.13    -0.03  -0.00   0.01
    12   6    -0.01   0.01  -0.02    -0.03  -0.06  -0.02    -0.02  -0.05  -0.02
    13   6     0.01  -0.01   0.02    -0.15   0.29   0.24     0.02   0.01   0.02
    14   1     0.03   0.49  -0.16     0.01   0.03  -0.00    -0.15  -0.34   0.06
    15   1     0.09  -0.31   0.12     0.01  -0.01   0.01    -0.08   0.12  -0.09
    16   1     0.25   0.07   0.09     0.01  -0.00   0.00    -0.00   0.07   0.02
    17   1    -0.30  -0.08  -0.14    -0.01   0.01  -0.01     0.18  -0.06   0.12
    18   1     0.09  -0.38   0.13    -0.01  -0.02   0.00     0.18   0.20  -0.02
    19   1    -0.07  -0.01  -0.03     0.00   0.00  -0.00    -0.31   0.12  -0.17
    20   1     0.05   0.05  -0.14    -0.01   0.00  -0.01    -0.30   0.14  -0.15
    21   1     0.06  -0.07   0.13    -0.02   0.01   0.00     0.16  -0.13   0.16
    22   1     0.16  -0.02   0.06    -0.01  -0.01  -0.00     0.15  -0.12   0.19
    23   1    -0.05   0.08  -0.11    -0.16  -0.36  -0.16     0.03   0.01  -0.13
    24   1     0.03  -0.07   0.13     0.02   0.07   0.03     0.06   0.08   0.04
    25   1    -0.06   0.05  -0.12     0.36   0.05  -0.14    -0.03  -0.01   0.01
    26   1     0.06  -0.08   0.12     0.02  -0.07  -0.05     0.05  -0.08  -0.05
    27   1    -0.06   0.07  -0.12    -0.11   0.34   0.23     0.04   0.10  -0.08
                     34                     35                     36
                      A                      A                      A
 Frequencies --   1059.2567              1074.5273              1097.1627
 Red. masses --      2.2331                 1.7038                 3.0585
 Frc consts  --      1.4763                 1.1590                 2.1692
 IR Inten    --      1.7444                 6.8831                72.3240
  Atom  AN      X      Y      Z        X      Y      Z        X      Y      Z
     1   8    -0.01   0.00  -0.00    -0.00  -0.00   0.00    -0.03  -0.03  -0.03
     2   6     0.03   0.00  -0.01     0.04   0.01   0.01     0.19   0.14   0.21
     3   6    -0.01  -0.00   0.01    -0.03  -0.02   0.01    -0.05  -0.10  -0.12
     4   6    -0.00  -0.00  -0.01     0.01  -0.06  -0.04    -0.08  -0.05   0.05
     5   6     0.01  -0.00   0.01     0.00   0.11   0.02    -0.04   0.06  -0.14
     6   6    -0.03   0.02  -0.03    -0.01  -0.07  -0.00    -0.03  -0.04   0.08
     7   6     0.05  -0.02   0.02    -0.00   0.08   0.02    -0.02   0.03  -0.06
     8   6    -0.03  -0.00   0.01     0.01   0.06   0.04     0.02  -0.03   0.01
     9   6    -0.05   0.04   0.05    -0.05  -0.06  -0.01     0.02   0.03  -0.00
    10   6     0.01  -0.16  -0.10     0.03  -0.03  -0.03    -0.02   0.01   0.02
    11   6     0.14   0.02  -0.05     0.01   0.05   0.03     0.00  -0.02  -0.01
    12   6     0.03   0.16   0.08    -0.04  -0.04  -0.01     0.01   0.02   0.00
    13   6    -0.06  -0.06  -0.01     0.04  -0.05  -0.05    -0.03   0.01   0.01
    14   1    -0.02  -0.05   0.01    -0.09   0.18  -0.10     0.10   0.31  -0.00
    15   1    -0.00   0.02  -0.01    -0.00  -0.04   0.00    -0.33  -0.25   0.06
    16   1    -0.01   0.01  -0.00     0.20   0.14   0.11     0.54  -0.04   0.16
    17   1     0.02  -0.01   0.02    -0.13  -0.22  -0.00     0.08   0.16  -0.04
    18   1     0.01   0.03  -0.00     0.01  -0.09   0.10     0.07   0.10  -0.14
    19   1    -0.06   0.02  -0.03    -0.12   0.14  -0.10     0.12  -0.07   0.11
    20   1    -0.06   0.03  -0.04     0.20  -0.09   0.21    -0.03  -0.04   0.05
    21   1     0.07  -0.02   0.03     0.40  -0.02  -0.15    -0.07   0.04  -0.03
    22   1     0.08  -0.02   0.03    -0.39  -0.08   0.05     0.15   0.01  -0.04
    23   1    -0.31   0.15   0.22    -0.17  -0.02   0.08     0.10  -0.01  -0.01
    24   1    -0.31  -0.38  -0.07     0.17   0.05  -0.05    -0.11  -0.04   0.03
    25   1     0.15   0.02  -0.07     0.02   0.28   0.15    -0.00  -0.14  -0.08
    26   1    -0.26   0.29   0.30    -0.19   0.01   0.10     0.06   0.00  -0.02
    27   1    -0.34  -0.24   0.01     0.17   0.02  -0.05    -0.11  -0.07   0.06
                     37                     38                     39
                      A                      A                      A
 Frequencies --   1116.9963              1133.7036              1192.2762
 Red. masses --      2.0437                 1.6065                 1.1052
 Frc consts  --      1.5023                 1.2165                 0.9256
 IR Inten    --     13.0161                 3.3102                 0.1913
  Atom  AN      X      Y      Z        X      Y      Z        X      Y      Z
     1   8     0.02   0.01   0.01     0.01   0.00  -0.00     0.00  -0.00  -0.00
     2   6    -0.08  -0.04  -0.05    -0.05   0.00   0.01    -0.00   0.00   0.00
     3   6    -0.01  -0.01   0.02    -0.00  -0.01  -0.03    -0.00   0.00  -0.01
     4   6     0.03  -0.07  -0.04     0.00  -0.01   0.03     0.00   0.00   0.01
     5   6     0.14   0.14  -0.00     0.11   0.01  -0.06     0.01  -0.01  -0.01
     6   6    -0.10  -0.06   0.07    -0.07   0.03   0.08    -0.00   0.01   0.00
     7   6    -0.01   0.05  -0.01    -0.01  -0.06  -0.05     0.00  -0.00   0.00
     8   6     0.01  -0.03   0.00     0.01  -0.01   0.01     0.00  -0.00  -0.00
     9   6     0.05   0.03  -0.02    -0.07  -0.01   0.02     0.00  -0.01  -0.01
    10   6    -0.03   0.02   0.03     0.03  -0.02  -0.03    -0.04  -0.03   0.00
    11   6     0.00  -0.04  -0.02     0.00   0.04   0.02     0.00   0.06   0.03
    12   6     0.03   0.03   0.00    -0.04  -0.03  -0.00     0.03  -0.01  -0.02
    13   6    -0.06   0.01   0.03     0.07   0.01  -0.03    -0.00  -0.01  -0.00
    14   1    -0.10   0.14  -0.10     0.03   0.02   0.01     0.01  -0.01   0.01
    15   1     0.03   0.08  -0.04    -0.07  -0.00  -0.00    -0.01  -0.02   0.01
    16   1    -0.08   0.00  -0.02    -0.08  -0.13  -0.06    -0.01  -0.02  -0.01
    17   1    -0.24  -0.25  -0.06    -0.09   0.02  -0.07    -0.02   0.00  -0.01
    18   1     0.57   0.15   0.03     0.33   0.16  -0.09    -0.02   0.02  -0.02
    19   1    -0.03   0.03   0.04    -0.05  -0.13   0.14    -0.04  -0.00   0.00
    20   1    -0.16  -0.04   0.15    -0.17   0.03  -0.10     0.01   0.00  -0.01
    21   1     0.05   0.03  -0.09    -0.23   0.00   0.14     0.02  -0.00   0.01
    22   1     0.07  -0.08   0.06     0.32   0.07  -0.08    -0.02   0.01  -0.00
    23   1     0.24  -0.05  -0.12    -0.32   0.09   0.22     0.13  -0.06  -0.10
    24   1    -0.14  -0.05   0.04     0.14   0.05  -0.04    -0.41  -0.27   0.04
    25   1    -0.02  -0.27  -0.15     0.02   0.31   0.17     0.04   0.59   0.32
    26   1     0.13  -0.01  -0.06    -0.14   0.01   0.07     0.37  -0.15  -0.27
    27   1    -0.25  -0.13   0.07     0.34   0.18  -0.04    -0.14  -0.10   0.01
                     40                     41                     42
                      A                      A                      A
 Frequencies --   1200.8900              1213.7868              1216.7054
 Red. masses --      1.4685                 1.1473                 1.4058
 Frc consts  --      1.2478                 0.9959                 1.2262
 IR Inten    --      5.7991                 0.0939                 0.8875
  Atom  AN      X      Y      Z        X      Y      Z        X      Y      Z
     1   8    -0.00   0.01   0.01    -0.00  -0.00   0.00     0.00   0.02  -0.00
     2   6     0.04  -0.03  -0.05     0.00   0.00   0.00    -0.03  -0.02  -0.03
     3   6     0.01  -0.04   0.08    -0.00   0.00  -0.00     0.06  -0.12  -0.00
     4   6    -0.04  -0.01  -0.06     0.00  -0.00  -0.00    -0.08   0.05   0.06
     5   6    -0.11   0.06   0.04    -0.00  -0.00   0.00     0.05  -0.02  -0.01
     6   6     0.02  -0.04  -0.03    -0.00   0.00  -0.00    -0.00   0.03   0.01
     7   6    -0.01  -0.00  -0.02     0.01   0.00  -0.00     0.01  -0.01   0.01
     8   6     0.00  -0.03  -0.01    -0.01  -0.00   0.01    -0.02   0.01   0.01
     9   6    -0.02   0.01   0.01    -0.05   0.02   0.03     0.00  -0.01  -0.00
    10   6     0.00   0.00  -0.00     0.05   0.03  -0.01     0.00  -0.00  -0.00
    11   6     0.00   0.01   0.00     0.01   0.00  -0.00    -0.00   0.00   0.00
    12   6    -0.01  -0.00   0.00     0.04  -0.01  -0.03     0.01   0.00  -0.00
    13   6     0.02   0.02   0.00    -0.05  -0.03   0.00    -0.01  -0.01   0.00
    14   1    -0.10   0.15  -0.09     0.00  -0.00   0.00     0.14   0.01   0.08
    15   1     0.10   0.30  -0.10     0.00  -0.01   0.00    -0.20   0.72  -0.26
    16   1     0.15   0.18   0.08     0.00   0.00   0.00     0.34  -0.02   0.09
    17   1     0.27   0.03   0.13    -0.00  -0.00  -0.00    -0.16   0.17  -0.11
    18   1     0.28  -0.23   0.18    -0.00   0.01  -0.00    -0.01  -0.19   0.05
    19   1     0.45   0.01  -0.01     0.00   0.00  -0.00    -0.20  -0.01   0.01
    20   1    -0.15   0.00   0.06     0.00   0.00  -0.00     0.05   0.01  -0.05
    21   1    -0.29   0.05  -0.04     0.03  -0.00   0.01     0.11  -0.02   0.02
    22   1     0.35  -0.05   0.03     0.03  -0.01   0.00    -0.13   0.03  -0.02
    23   1    -0.09   0.04   0.07    -0.37   0.15   0.27     0.04  -0.02  -0.03
    24   1    -0.05  -0.04   0.00     0.42   0.27  -0.04     0.03   0.01  -0.01
    25   1     0.01   0.13   0.07     0.01   0.00  -0.00    -0.00  -0.03  -0.01
    26   1     0.05  -0.02  -0.03     0.39  -0.16  -0.28     0.01   0.00  -0.00
    27   1     0.09   0.06   0.00    -0.41  -0.27   0.04    -0.02  -0.01  -0.00
                     43                     44                     45
                      A                      A                      A
 Frequencies --   1233.0106              1241.2840              1246.7150
 Red. masses --      2.5825                 1.2065                 1.3558
 Frc consts  --      2.3132                 1.0953                 1.2416
 IR Inten    --      1.4864                 3.2525                 4.6390
  Atom  AN      X      Y      Z        X      Y      Z        X      Y      Z
     1   8    -0.00   0.00   0.00    -0.00  -0.00   0.00     0.00   0.01  -0.01
     2   6     0.00  -0.00  -0.01     0.02  -0.01  -0.01    -0.03   0.03   0.05
     3   6    -0.00  -0.01   0.00    -0.02  -0.00   0.04     0.00  -0.11   0.06
     4   6     0.00   0.01   0.01    -0.02   0.00   0.02     0.03   0.02  -0.06
     5   6     0.00   0.01  -0.01     0.01   0.01  -0.09     0.04  -0.04   0.01
     6   6     0.01  -0.00   0.02    -0.04   0.04   0.04     0.03  -0.00  -0.00
     7   6    -0.10  -0.03   0.06    -0.01   0.00  -0.02     0.02  -0.01   0.01
     8   6     0.29   0.05  -0.13    -0.00   0.02   0.02    -0.01   0.00  -0.01
     9   6     0.04   0.01  -0.01     0.00  -0.01  -0.01    -0.00  -0.00   0.00
    10   6    -0.06   0.05   0.06    -0.00  -0.01  -0.00     0.00  -0.00  -0.00
    11   6     0.02   0.00  -0.01     0.00   0.00   0.00    -0.00  -0.00   0.00
    12   6    -0.07  -0.07  -0.01     0.01  -0.00  -0.00     0.00   0.00   0.00
    13   6     0.04  -0.00  -0.02    -0.01  -0.01  -0.00     0.00  -0.00   0.00
    14   1    -0.00  -0.01   0.00    -0.09   0.13  -0.07    -0.16   0.68  -0.26
    15   1    -0.01   0.05  -0.02     0.07  -0.04   0.02     0.01   0.13  -0.05
    16   1    -0.04  -0.04  -0.02    -0.32  -0.16  -0.13    -0.25   0.07  -0.09
    17   1     0.01   0.03  -0.00     0.51   0.24   0.17     0.19  -0.05   0.12
    18   1     0.04  -0.10   0.03     0.24  -0.44   0.10    -0.29   0.29  -0.14
    19   1    -0.04  -0.01   0.01    -0.10  -0.07   0.08    -0.10   0.02  -0.03
    20   1    -0.01  -0.00   0.00     0.25  -0.02  -0.07    -0.19   0.04  -0.03
    21   1    -0.38   0.02   0.04     0.29  -0.05   0.07    -0.08   0.00   0.00
    22   1    -0.42   0.02   0.02    -0.08   0.03  -0.03    -0.12   0.03  -0.02
    23   1    -0.31   0.18   0.24     0.05  -0.03  -0.03    -0.00   0.00  -0.01
    24   1    -0.24  -0.06   0.08     0.03   0.01  -0.00     0.01   0.00  -0.00
    25   1     0.01  -0.00  -0.01    -0.00  -0.03  -0.01    -0.00   0.00   0.00
[...]
 64,0.00019719,-0.00049501,0.00048546,-0.00012966,0.00109717,-0.0001689
 0,-0.00002313,0.00033503,0.00024589,-0.00166871,-0.00288049,-0.0205463
 7,-0.01174571,0.00564492,0.05904568,0.03261714,-0.07035720,-0.00044587
 ,-0.00013653,-0.00035938,0.00044622,0.00064370,0.00019503,0.00007598,0
 .00000644,-0.00032666,0.00006028,0.00007914,0.00006279,-0.00006189,-0.
 00009048,0.00006401,-0.00008614,-0.00008936,-0.00019863,-0.00025219,-0
 .00010288,0.00013128,-0.00000284,0.00000827,-0.00001227,0.00026245,-0.
 00015941,-0.00008990,-0.00037787,-0.00047752,0.00026058,-0.00014419,-0
 .00007875,0.00026675,-0.00010362,0.00087133,0.00084265,0.02643621,0.01
 400375,-0.00826991,-0.06467012,-0.03271731,0.07237397,0.00061578,0.000
 22630,0.00012299,-0.00059194,-0.00030332,-0.00022109,0.00000673,0.0002
 3292,-0.00021482,0.00039189,0.00019772,0.00056359,0.00037864,-0.001283
 53,-0.00041293,-0.02395763,-0.00976917,0.00783002,-0.23230066,-0.10119
 195,0.05411983,-0.00389422,-0.00262811,0.00204399,0.00063790,0.0006896
 3,0.00167213,0.00018136,-0.00047432,-0.00030731,0.00028404,0.00028289,
 -0.00038343,0.00003839,0.00021138,0.00084061,0.00017260,-0.00076611,-0
 .00140247,0.00011072,-0.00004699,-0.00003007,0.00003147,0.00001535,0.0
 0000288,0.00022231,0.00018016,0.00006473,0.00002049,0.00034287,-0.0003
 2798,-0.00004947,0.00011201,0.00006058,0.00100669,-0.00037075,-0.00047
 042,-0.00269846,0.00418354,-0.00027129,0.25512218,-0.00034287,-0.00018
 160,-0.00012209,0.00050325,0.00022027,0.00028119,0.00005826,0.00007749
 ,0.00001349,-0.00036595,-0.00013820,-0.00028493,0.00005368,0.00144083,
 0.00006753,0.02144499,0.01034874,-0.00704504,-0.09974024,-0.10035644,0
 .03073409,-0.02166981,-0.01470045,0.00624508,0.00037655,0.00071917,0.0
 0229201,0.00034329,-0.00044319,-0.00006234,0.00001946,0.00014592,-0.00
 005770,-0.00002885,-0.00097664,0.00077027,-0.00096169,-0.00223995,-0.0
 0442780,-0.00006281,0.00002917,0.00001940,-0.00001617,0.00002818,0.000
 00965,0.00000813,-0.00017273,0.00008823,-0.00003064,-0.00026098,0.0001
 8416,-0.00003150,-0.00007491,-0.00003414,-0.00099055,0.00099109,0.0001
 1603,0.00389337,-0.00311783,-0.00029078,0.10761151,0.11364248,-0.00017
 390,-0.00006299,-0.00001417,-0.00000453,0.00017781,-0.00002055,-0.0000
 0012,-0.00010218,-0.00006127,-0.00014209,-0.00008774,0.00024402,0.0007
 5598,0.00033516,0.00006581,-0.00054230,-0.00011601,0.00002944,0.055766
 37,0.03182031,-0.07010919,-0.01899779,-0.01090126,0.00512478,-0.000710
 25,-0.00112992,0.00100806,-0.00016269,0.00025328,0.00028130,-0.0001689
 6,-0.00008220,-0.00007464,0.00003132,-0.00074066,0.00067502,-0.0000734
 7,-0.00185673,-0.00271807,-0.00000479,0.00000528,0.00000410,-0.0000601
 1,0.00001966,0.00001981,-0.00010091,-0.00022122,-0.00015458,0.00003742
 ,-0.00001988,0.00001715,0.00008903,0.00011293,-0.00006008,-0.00022296,
 -0.00076587,0.00042799,-0.00034467,-0.00035183,0.00111825,-0.06185502,
 -0.03009402,0.07164313,0.00020398,0.00003544,0.00012374,-0.00047941,-0
 .00010606,-0.00001391,-0.00005990,-0.00010675,-0.00017080,0.00011265,-
 0.00009720,0.00022973,0.00092478,-0.00122938,-0.00052179,-0.00487148,0
 .01274162,-0.02480131,-0.05372497,0.00676757,-0.02700907,-0.00074760,0
 .00259692,-0.00455239,0.00006671,-0.00079294,-0.00001705,0.00030892,0.
 00041185,0.00008127,-0.00016123,-0.00015369,0.00002086,-0.00010537,0.0
 0019710,0.00000509,0.00061298,0.00008324,-0.00072817,0.00000577,-0.000
 05016,0.00000068,-0.00000561,-0.00002591,-0.00000015,-0.00001571,-0.00
 000444,0.00002587,-0.00008200,-0.00000513,-0.00005131,0.00030805,0.000
 13374,0.00065517,-0.00340034,0.00405212,0.00018470,0.00106274,-0.00100
 514,-0.00032282,0.00435923,-0.01000141,0.02675135,0.05556698,-0.000300
 53,-0.00000287,-0.00008765,0.00044595,-0.00002272,-0.00021842,-0.00001
 670,0.00006254,0.00012635,0.00003409,-0.00010205,0.00008017,-0.0006269
 5,0.00117070,0.00160866,0.00368733,-0.01066512,0.02119586,0.00737570,-
 0.08281659,0.08798054,-0.00285490,0.00832447,-0.02585524,-0.00171708,-
 0.00307922,-0.00160137,0.00088596,-0.00037629,-0.00075437,0.00001299,0
 .00013238,-0.00035097,0.00016196,0.00038132,0.00015401,0.00073673,0.00
 062379,-0.00093347,0.00006488,0.00001489,-0.00003236,-0.00001218,0.000
 00663,-0.00000135,-0.00005097,-0.00009120,-0.00004499,0.00009733,0.000
 22011,-0.00014564,-0.00007398,-0.00020891,-0.00100262,0.00390639,-0.00
 254850,-0.00078018,-0.00032482,0.00101615,-0.00067222,0.00208905,-0.00
 580430,0.01380579,-0.01327606,0.09389231,0.00007953,-0.00003505,-0.000
 06475,-0.00005954,0.00014290,0.00040947,-0.00001531,-0.00002841,-0.000
 13036,-0.00000485,0.00000280,-0.00008698,0.00037491,-0.00044374,0.0010
 9417,-0.00063229,0.00007530,-0.00006916,-0.02728984,0.08629425,-0.2641
 3948,-0.00091696,0.00626340,-0.02057399,-0.00214576,-0.00345385,-0.001
 66584,0.00105667,0.00037078,-0.00034328,-0.00025252,-0.00017497,0.0003
 5877,0.00039310,-0.00074498,-0.00025764,0.00189640,0.00200032,0.001129
 23,-0.00003194,-0.00001972,0.00001548,0.00002500,0.00000692,0.00000029
 ,0.00002737,0.00006198,0.00000833,-0.00003467,-0.00005495,0.00005158,-
 0.00006432,0.00061153,0.00038129,0.00001283,-0.00057352,0.00121196,-0.
 00039268,0.00001810,0.00044546,-0.00043685,0.00289267,-0.00726838,0.03
 009700,-0.09268290,0.28895934,-0.00001254,-0.00000075,-0.00002949,0.00
 005716,0.00002147,0.00006941,-0.00002453,0.00002706,-0.00003803,-0.000
 01806,-0.00001871,0.00009804,-0.00021315,0.00025639,-0.00011455,0.0002
 1837,0.00014374,0.00079277,-0.00219272,0.00176975,-0.00179577,-0.00272
 655,-0.00947103,0.00176506,-0.11894916,-0.12405900,0.04964489,-0.00082
 481,-0.00392309,0.00284275,0.00551296,-0.00287893,0.00009848,0.0000406
 7,0.00040654,-0.00004589,0.00445112,-0.00130553,0.00307477,0.00000802,
 -0.00000505,-0.00000827,0.00000998,0.00001683,0.00000530,0.00000092,-0
 .00000250,-0.00003059,0.00003219,0.00002693,-0.00003850,-0.00000176,-0
 .00007099,-0.00006680,-0.00024768,0.00029360,-0.00004165,0.00005287,-0
 .00002245,-0.00010436,0.00006499,0.00006806,0.00040280,0.00020269,-0.0
 0015271,-0.00032611,0.11783164,-0.00001043,0.00002539,0.00000042,0.000
 00881,-0.00005710,0.00000916,0.00001647,0.00001465,-0.00000365,0.00000
 222,0.00000293,-0.00000328,-0.00004755,-0.00001442,0.00000796,0.000080
 80,0.00012330,-0.00009229,0.00175266,-0.00073940,-0.00039178,-0.001256
 14,0.00085076,-0.00037190,-0.12388806,-0.22573107,0.06241279,-0.012314
 56,-0.01512358,0.00976010,-0.00248946,-0.00025620,-0.00506463,0.000399
 96,0.00028555,-0.00045631,-0.00186843,0.00254733,-0.00057413,-0.000001
 36,0.00000110,0.00000153,-0.00000110,0.00000406,-0.00000121,0.00000330
 ,0.00000452,0.00000934,-0.00000524,0.00000234,-0.00000005,0.00000132,-
 0.00000064,-0.00000011,-0.00000705,-0.00001504,-0.00000559,0.00002646,
 -0.00002441,-0.00001110,0.00033618,0.00074135,0.00032691,0.00013485,0.
 00019251,0.00013998,0.13757947,0.23819723,-0.00010845,0.00002386,-0.00
 000259,0.00013007,-0.00006167,0.00001485,0.00001324,0.00000537,0.00000
 562,-0.00000959,0.00001149,-0.00005107,-0.00002104,0.00000355,-0.00002
 845,-0.00004525,-0.00011107,-0.00009473,0.00033462,0.00221092,0.001098
 54,0.01616779,0.02461011,-0.00519456,0.04912189,0.06257441,-0.08367972
 ,-0.01197779,-0.01735806,0.01025705,0.00083375,-0.00375602,-0.00198899
 ,-0.00006824,-0.00063781,-0.00104324,0.00269074,-0.00150358,-0.0052081
 3,-0.00001110,0.00000776,0.00000846,-0.00000421,0.00001267,-0.00000253
 ,-0.00000552,-0.00000542,0.00000169,-0.00000392,-0.00004643,0.00003724
 ,0.00000613,0.00001302,0.00002486,0.00011815,-0.00004210,0.00005083,-0
 .00012073,0.00007358,0.00008913,-0.00083719,-0.00074656,-0.00025591,-0
 .00029456,-0.00020261,0.00020854,-0.05516767,-0.06670641,0.08491566,-0
 .00002387,0.00000630,-0.00000785,0.00003259,-0.00001952,0.00000855,0.0
 0000169,0.00000016,0.00000022,0.00000044,0.00000047,-0.00000100,-0.000
 03283,-0.00001432,0.00000130,-0.00000432,-0.00003196,0.00002762,0.0002
 9746,0.00013652,-0.00016085,0.00531609,-0.00375024,0.00021892,0.004703
 81,0.00060500,-0.00701508,-0.07253035,-0.01563187,0.09133897,-0.002180
 51,0.00080979,0.01619991,0.00347879,-0.00546686,0.00154168,-0.00035495
 ,-0.00041361,-0.00044852,-0.00000055,0.00000075,0.,0.00000023,0.000003
 43,0.00000015,-0.00000138,-0.00000098,-0.00000288,0.00000310,-0.000001
 77,0.00000186,0.00000298,-0.00000321,0.00000181,0.00001000,0.00000992,
 0.00000739,-0.00001300,-0.00000355,-0.00000070,-0.00003543,-0.00000596
 ,0.00001281,-0.00003057,0.00005050,-0.00002130,-0.00251305,0.00201841,
 -0.00088276,0.06722904,0.00004015,-0.00001547,0.00000627,-0.00005853,0
 .00003625,-0.00001216,-0.00000266,-0.00001601,0.00000741,0.00000808,0.
 00000210,-0.00001578,0.00008154,-0.00004394,0.00001100,-0.00010897,0.0
 0003474,-0.00008684,0.00031832,0.00052600,-0.00099204,-0.00392488,-0.0
 0194469,-0.00303245,0.00908502,0.00558217,-0.02314938,-0.01552720,-0.0
 5624689,0.01323674,-0.00768747,0.00299821,0.02560462,-0.00511634,-0.00
 264519,-0.00019710,-0.00039628,-0.00106699,-0.00027077,-0.00000060,-0.
 00000101,0.00000042,-0.00000105,-0.00000873,-0.00000026,-0.00000088,0.
 00000068,0.00000324,-0.00000255,0.00000145,0.00000377,-0.00000495,0.00
 001115,0.00001723,0.00002320,-0.00002665,0.00001228,0.00001274,-0.0000
 0490,-0.00000068,0.00000340,0.00000985,0.00004911,-0.00001665,-0.00029
 906,-0.00027400,0.00178848,-0.00002740,0.00097155,0.01939484,0.0531527
 5,0.00008643,-0.00005092,0.00000279,-0.00012679,0.00011335,-0.00002785
 ,-0.00001359,-0.00004296,0.00002320,0.00002064,-0.00000359,-0.00002243
 ,0.00013352,-0.00009679,0.00002101,-0.00016095,0.00001581,-0.00012740,
 0.00049046,0.00063767,-0.00054768,-0.00004025,-0.00444946,0.00018192,0
 .00753616,0.00378741,-0.01539918,0.09127822,0.01327796,-0.30509362,0.0
 0168429,-0.00128765,-0.00520435,0.00213061,0.00101707,0.00184561,-0.00
 042644,-0.00029464,0.00061428,0.00000137,-0.00000218,-0.00000439,-0.00
 000251,-0.00001866,0.00000299,-0.00000674,-0.00000343,-0.00000045,-0.0
 0000012,0.00000876,0.00000166,-0.00000766,0.00001284,0.00001467,0.0000
 0994,-0.00001055,0.00002756,-0.00000007,0.00000080,-0.00000111,-0.0000
 3875,-0.00003939,0.00002956,-0.00001829,-0.00020269,-0.00023395,-0.001
 21822,0.00035793,0.00063783,-0.10027420,-0.01359693,0.32324237,-0.0000
 0486,-0.00000652,-0.00000705,0.00001141,0.00001457,0.00001236,-0.00000
 681,-0.00000066,-0.00000459,0.00000028,-0.00000594,0.00000883,-0.00003
 213,0.00002596,0.00000325,0.00001162,0.00005554,0.00005415,-0.00061080
 ,0.00056719,-0.00013547,-0.00079849,-0.00009417,0.00033781,0.00354794,
 -0.00474590,0.00329697,-0.00049050,-0.01168052,-0.01233747,-0.05302229
 ,-0.05114192,-0.03004082,0.00476735,0.00889278,0.00658251,0.00452771,-
 0.00277229,0.00344299,0.00000079,-0.00000167,-0.00000176,0.00000245,0.
 00000115,0.00000055,-0.00000078,0.00000046,-0.00000221,0.00000242,0.00
 000383,-0.00000716,-0.00000048,-0.00000587,-0.00000494,-0.00001716,0.0
 0002446,0.00000019,0.00000466,0.00000218,-0.00000093,-0.00003085,-0.00
 005769,0.00007527,0.00006634,0.00000678,-0.00017540,0.00008602,-0.0008
 0969,-0.00056171,-0.00246380,0.00204755,-0.00091480,0.04659176,0.00006
 799,-0.00002469,0.00000246,-0.00009053,0.00005776,-0.00001713,-0.00000
 581,-0.00001622,0.00001055,0.00000811,-0.00000132,0.00000290,0.0000663
 8,-0.00004405,0.00000026,-0.00002743,-0.00000411,-0.00003269,0.0003663
 0,-0.00021457,0.00000428,0.00005353,-0.00004659,0.00095523,-0.00513466
 ,-0.00109085,0.00225255,-0.00319289,-0.01443466,-0.01834653,-0.0511747
 3,-0.20692271,-0.13533713,0.00055563,0.00480281,0.00312607,-0.00249167
 ,0.00250453,0.00003109,0.00000275,-0.00000162,-0.00000413,-0.00000172,
 -0.00000913,0.00000283,-0.00000151,-0.00000119,-0.00000064,0.00000047,
 0.00000999,-0.00000472,-0.00000402,0.00000366,-0.00000163,-0.00001636,
 0.00000948,-0.00000275,0.00001190,-0.00000955,-0.00001021,0.00005671,0
 .00007224,0.00000261,-0.00000637,-0.00002183,-0.00000188,-0.00033711,-
 0.00079951,-0.00098540,0.00183479,0.00000700,0.00083754,0.05766332,0.2
 1610845,0.00003702,-0.00002652,-0.00000225,-0.00004641,0.00005963,-0.0
 0000318,-0.00000952,-0.00001649,0.00000750,0.00000789,-0.00000549,-0.0
 0000892,0.00001768,-0.00002057,0.00001438,-0.00001215,0.00003198,0.000
 01620,-0.00026525,0.00013339,0.00006691,0.00043808,0.00086606,-0.00049
 589,0.00258358,0.00110299,0.00065536,0.00219979,0.00865554,0.01002186,
 -0.03007162,-0.13531329,-0.17391012,-0.00784242,-0.02397754,-0.0144554
 0,0.00407577,0.00124227,-0.00397298,0.00000072,-0.00000140,-0.00000296
 ,0.00000033,-0.00000643,0.00000187,-0.00000334,-0.00000215,-0.00000072
 ,0.00000116,0.00000328,-0.00000209,-0.00000211,0.00000544,0.00000306,0
 .00000480,-0.00001682,0.00000836,-0.00003406,0.00002482,0.00000313,-0.
 00005711,-0.00011107,0.00002190,0.00004574,0.00003192,0.00001229,0.000
 24555,0.00045995,0.00040304,-0.00127194,0.00016987,0.00053232,0.031220
 87,0.14712365,0.18124179,0.00003238,-0.00002281,-0.00000498,-0.0000439
 1,0.00004739,-0.00001473,-0.00000912,-0.00001715,0.00001232,0.00001178
 ,-0.00000312,-0.00000241,0.00005554,-0.00003159,-0.00001089,-0.0000610
 2,0.00000453,-0.00004339,0.00005356,-0.00003200,0.00042804,0.00566586,
 -0.00316511,0.00028356,0.00004873,0.00040749,-0.00015168,0.00496070,-0
 .00166338,0.00335832,-0.00238947,-0.00814517,0.00152191,-0.11770981,-0
 .12478630,0.04974937,-0.00065651,-0.00385110,0.00267729,0.00000209,-0.
 00000132,-0.00000356,-0.00000161,-0.00000598,0.00000232,-0.00000427,-0
 .00000126,-0.00000108,0.00000112,0.00000615,-0.00000303,-0.00000401,0.
 00000219,-0.00000452,-0.00000307,0.00000530,-0.00000562,0.00000903,0.0
 0002025,0.00000961,-0.00006675,0.00000141,-0.00000860,-0.00000016,0.00
 000037,-0.00006515,-0.00094588,0.00045820,-0.00030690,0.00000833,-0.00
 055051,0.00012891,-0.00252031,0.00192397,-0.00093531,0.11614831,0.0001
 3054,-0.00002701,-0.00000097,-0.00017387,0.00007893,-0.00002894,-0.000
 00147,-0.00002558,0.00002197,0.00001675,0.00000170,-0.00000488,0.00013
 265,-0.00008462,0.00002739,-0.00018964,0.00000517,-0.00006361,-0.00070
 837,-0.00043797,0.00077282,-0.00236682,-0.00006181,-0.00484398,0.00044
 683,0.00025190,-0.00065351,-0.00208493,0.00269014,-0.00054487,0.000124
 27,0.00206835,-0.00108266,-0.12482215,-0.23117355,0.06499330,-0.012138
 22,-0.01483777,0.00978319,0.00000343,-0.00000312,-0.00000596,-0.000002
 50,-0.00001396,0.00000250,-0.00000047,0.00000082,0.00000255,0.00000043
 ,0.00001307,-0.00000950,-0.00001227,0.00001183,0.00000226,0.00000906,-
 0.00001128,0.00001288,0.00002281,-0.00000418,-0.00000887,-0.00005386,-
 0.00037916,-0.00022570,0.00002910,0.00001840,-0.00002776,0.00044282,-0
 .00031490,0.00025133,-0.00010132,0.00007632,-0.00014961,0.00171926,-0.
 00014451,0.00087109,0.13759271,0.24231000,0.00001520,-0.00000153,-0.00
 000081,-0.00001693,0.00000235,-0.00001043,-0.00000021,-0.00000313,0.00
 000446,0.00000578,0.00000358,-0.00000291,0.00003578,-0.00001843,-0.000
 00736,-0.00006358,0.00002582,-0.00003329,-0.00056901,-0.00055746,0.000
 65892,0.00096545,-0.00386830,-0.00201511,-0.00013423,-0.00066836,-0.00
 108413,0.00272851,-0.00169817,-0.00500867,0.01588665,0.02594301,-0.004
 03627,0.04983880,0.06494668,-0.08521296,-0.01173503,-0.01725417,0.0104
 1937,0.00000136,-0.00000052,-0.00000035,-0.00000090,-0.00000191,0.0000
 0007,0.00000056,0.00000200,0.00000220,-0.00000062,0.00000408,-0.000001
 16,-0.00000286,0.00000204,0.00000186,0.00000557,-0.00000444,-0.0000043
 8,0.00002938,-0.00000668,0.00000768,-0.00008589,-0.00022576,-0.0001510
 0,0.00001852,0.00004410,-0.00001541,-0.00028159,0.00024910,0.00009701,
 0.00095543,0.00135031,-0.00034187,-0.00128930,0.00020020,0.00075553,-0
 .05542387,-0.06942534,0.08531550,-0.00008630,-0.00000044,-0.00001368,0
 .00013052,-0.00002971,0.00004000,-0.00000654,0.00001238,-0.00001195,-0
 .00000157,-0.00001436,-0.00001119,-0.00022786,0.00004678,0.00007910,0.
 00029724,0.00019682,-0.00002340,-0.00212460,0.00227476,0.00075945,-0.0
 0202152,-0.00083182,0.01593514,0.00287935,-0.00523383,0.00155292,-0.00
 031236,-0.00046290,-0.00039940,0.00516941,-0.00354991,0.00038724,0.004
 70355,0.00065614,-0.00711435,-0.07026329,-0.01518015,0.08763648,0.0000
 0041,-0.00000159,-0.00000009,0.00000547,0.00000749,-0.00000180,-0.0000
 0376,-0.00000567,-0.00000211,0.00000294,0.00000501,-0.00000767,0.00000
 848,-0.00001877,-0.00002223,-0.00003849,0.00008029,-0.00001052,-0.0000
 5352,0.00009890,0.00007765,-0.00001999,-0.00007581,-0.00034920,-0.0001
 1746,-0.00014912,-0.00109731,0.00010028,-0.00012005,0.00101024,-0.0008
 9996,0.00059621,-0.00025117,0.00037849,-0.00012705,-0.00032772,-0.0025
 8151,0.00198524,-0.00088298,0.06508257,-0.00003222,0.00006847,0.000009
 21,0.00002250,-0.00014219,-0.00003094,0.00003312,0.00003769,-0.0000041
 0,-0.00002207,0.00003590,0.00005388,0.00016042,-0.00002278,-0.00012596
 ,-0.00036317,-0.00037451,-0.00004438,0.00196593,0.00016718,0.00153847,
 -0.00780771,0.00242680,0.02485890,-0.00489132,-0.00287928,-0.00005833,
 -0.00034860,-0.00099647,-0.00022420,-0.00392145,-0.00198269,-0.0032154
 0,0.00888679,0.00543640,-0.02345688,-0.01570306,-0.05644367,0.01425117
 ,-0.00000012,0.00000516,0.00000382,-0.00000626,0.00001227,-0.00000118,
 0.00001347,0.00001311,0.00000280,-0.00000330,-0.00000130,-0.00000164,-
 0.00001076,-0.00002345,-0.00002224,-0.00000378,0.00016227,-0.00004779,
 0.00029456,-0.00018845,-0.00001364,0.00011648,0.00037957,-0.00015065,-
 0.00030629,-0.00001757,-0.00036518,-0.00059329,0.00011065,0.00139354,0
 .00057430,-0.00009173,0.00018230,0.00029783,0.00021120,-0.00128409,0.0
 0180685,-0.00000725,0.00096094,0.01984115,0.05410467,-0.00008077,-0.00
 003336,-0.00000278,0.00013409,0.00004957,0.00004186,-0.00002738,-0.000
 00220,-0.00001433,-0.00000117,-0.00002778,-0.00004732,-0.00025618,0.00
 008409,0.00007844,0.00036148,0.00033208,0.00022338,-0.00147081,-0.0006
 1147,0.00029173,0.00236954,-0.00103702,-0.00711764,0.00178607,0.000986
 79,0.00181035,-0.00031335,-0.00012864,0.00059071,-0.00031271,-0.004518
 26,0.00009661,0.00761619,0.00377063,-0.01569682,0.08780651,0.01424879,
 -0.30235951,-0.00000132,-0.00000026,0.00000161,0.00000721,0.00000168,-
 0.00000090,-0.00000975,-0.00001191,-0.00000292,0.00000410,-0.00000212,
 0.00000671,0.00001206,-0.00000319,0.00000194,-0.00001097,-0.00010470,0
 .00002269,-0.00025459,0.00018684,0.00005273,0.00003125,-0.00017217,0.0
 0017751,0.00026190,0.00054168,0.00056303,0.00026766,-0.00005273,-0.000
 30044,-0.00022955,0.00018456,-0.00017349,0.00044788,0.00019263,-0.0009
 1097,-0.00118592,0.00033488,0.00066352,-0.09695145,-0.01420842,0.32200
 428\\0.00006416,-0.00001113,-0.00000298,-0.00000766,0.00002419,-0.0000
 1474,-0.00001467,-0.00001262,-0.00004269,-0.00002071,-0.00002158,0.000
 01133,-0.00001474,0.00005196,0.00006070,-0.00000139,-0.00000696,0.0000
 0122,-0.00001040,-0.00002588,-0.00002370,0.00002877,0.00000721,0.00001
 990,-0.00000139,-0.00001440,-0.00001790,0.00000929,0.00000547,0.000001
 06,0.00000268,-0.00001198,0.00001340,-0.00000146,0.00001975,-0.0000035
 2,-0.00002158,-0.00000219,-0.00000786,0.00000539,-0.00000351,0.0000072
 8,-0.00000423,0.00001943,0.00001236,0.00001061,0.00001095,0.00000474,-
 0.00001429,-0.00000814,-0.00000084,-0.00000116,-0.00002151,-0.00001117
 ,-0.00001340,0.00000224,0.00000001,-0.00001057,-0.00000007,-0.00000012
 ,0.00000437,-0.00000032,0.00000208,0.00000600,-0.00000531,0.00000029,-
 0.00000101,0.00000724,-0.00000186,0.00000392,0.00000300,-0.00001045,0.
 00000061,-0.00000247,-0.00000524,0.00000015,-0.00000752,0.00000205,0.0
 0000272,0.00000417,0.00000664\\\@


 IT IS A PROFOUNDLY ERRONEOUS TRUISM ... THAT WE SHOULD CULTIVATE
 THE HABIT OF THINKING OF WHAT WE ARE DOING.
 THE PRECISE OPPOSITE IS THE CASE.
 CIVILIZATION ADVANCES BY EXTENDING THE NUMBER OF IMPORTANT OPERATIONS
 WHICH WE CAN PERFORM WITHOUT THINKING ABOUT THEM.

                                    -- ALFRED NORTH WHITEHEAD
 Job cpu time:       0 days  0 hours  2 minutes 15.5 seconds.
 Elapsed time:       0 days  0 hours  2 minutes 19.3 seconds.
 File lengths (MBytes):  RWF=    161 Int=      0 D2E=      0 Chk=     11 Scr=      1
 Normal termination of Gaussian 16 at Sat Feb 24 04:14:55 2024.
