 Entering Gaussian System, Link 0=g16
 Input=/Volumes/SSD-PMU3/b3lyp_6-31gd_freq/WBNOQNNBFSXWBU-LLVKDONJSA-N_calculating/gaussianinput0.gjf
 Output=/Volumes/SSD-PMU3/b3lyp_6-31gd_freq/WBNOQNNBFSXWBU-LLVKDONJSA-N_calculating/gaussianinput0.log
 Initial command:
 /Applications/g16/l1.exe "/Users/macmini_m1_2022/PycharmProjects/sphere_model/sphere_model_lib/Gau-91322.inp" -scrdir="/Users/macmini_m1_2022/PycharmProjects/sphere_model/sphere_model_lib/"
 Entering Link 1 = /Applications/g16/l1.exe PID=     91323.
  
 Copyright (c) 1988,1990,1992,1993,1995,1998,2003,2009,2016,
            Gaussian, Inc.  All Rights Reserved.
  
 This is part of the Gaussian(R) 16 program.  It is based on
 the Gaussian(R) 09 system (copyright 2009, Gaussian, Inc.),
 the Gaussian(R) 03 system (copyright 2003, Gaussian, Inc.),
 the Gaussian(R) 98 system (copyright 1998, Gaussian, Inc.),
 the Gaussian(R) 94 system (copyright 1995, Gaussian, Inc.),
 the Gaussian 92(TM) system (copyright 1992, Gaussian, Inc.),
 the Gaussian 90(TM) system (copyright 1990, Gaussian, Inc.),
 the Gaussian 88(TM) system (copyright 1988, Gaussian, Inc.),
 the Gaussian 86(TM) system (copyright 1986, Carnegie Mellon
 University), and the Gaussian 82(TM) system (copyright 1983,
 Carnegie Mellon University). Gaussian is a federally registered
 trademark of Gaussian, Inc.
  
 This software contains proprietary and confidential information,
 including trade secrets, belonging to Gaussian, Inc.
  
 This software is provided under written license and may be
 used, copied, transmitted, or stored only in accord with that
 written license.
  
 The following legend is applicable only to US Government
 contracts under FAR:
  
                    RESTRICTED RIGHTS LEGEND
  
 Use, reproduction and disclosure by the US Government is
 subject to restrictions as set forth in subparagraphs (a)
 and (c) of the Commercial Computer Software - Restricted
 Rights clause in FAR 52.227-19.
  
 Gaussian, Inc.
 340 Quinnipiac St., Bldg. 40, Wallingford CT 06492
  
  
 ---------------------------------------------------------------
 Warning -- This program may not be used in any manner that
 competes with the business of Gaussian, Inc. or will provide
 assistance to any competitor of Gaussian, Inc.  The licensee
 of this program is prohibited from giving any competitor of
 Gaussian, Inc. access to this program.  By using this program,
 the user acknowledges that Gaussian, Inc. is engaged in the
 business of creating and licensing software in the field of
 computational chemistry and represents and warrants to the
 licensee that it is not a competitor of Gaussian, Inc. and that
 it will not use this program in any manner prohibited above.
 ---------------------------------------------------------------
  

 Cite this work as:
 Gaussian 16, Revision A.03,
 M. J. Frisch, G. W. Trucks, H. B. Schlegel, G. E. Scuseria, 
 M. A. Robb, J. R. Cheeseman, G. Scalmani, V. Barone, 
 G. A. Petersson, H. Nakatsuji, X. Li, M. Caricato, A. V. Marenich, 
 J. Bloino, B. G. Janesko, R. Gomperts, B. Mennucci, H. P. Hratchian, 
 J. V. Ortiz, A. F. Izmaylov, J. L. Sonnenberg, D. Williams-Young, 
 F. Ding, F. Lipparini, F. Egidi, J. Goings, B. Peng, A. Petrone, 
 T. Henderson, D. Ranasinghe, V. G. Zakrzewski, J. Gao, N. Rega, 
 G. Zheng, W. Liang, M. Hada, M. Ehara, K. Toyota, R. Fukuda, 
 J. Hasegawa, M. Ishida, T. Nakajima, Y. Honda, O. Kitao, H. Nakai, 
 T. Vreven, K. Throssell, J. A. Montgomery, Jr., J. E. Peralta, 
 F. Ogliaro, M. J. Bearpark, J. J. Heyd, E. N. Brothers, K. N. Kudin, 
 V. N. Staroverov, T. A. Keith, R. Kobayashi, J. Normand, 
 K. Raghavachari, A. P. Rendell, J. C. Burant, S. S. Iyengar, 
 J. Tomasi, M. Cossi, J. M. Millam, M. Klene, C. Adamo, R. Cammi, 
 J. W. Ochterski, R. L. Martin, K. Morokuma, O. Farkas, 
 J. B. Foresman, and D. J. Fox, Gaussian, Inc., Wallingford CT, 2016.
 
 ******************************************
 Gaussian 16:  EM64M-G16RevA.03 25-Dec-2016
                24-Feb-2024 
 ******************************************
 %nprocshared=10
 Will use up to   10 processors via shared memory.
 %mem=12GB
 %chk= 0.chk
 ---------------------
 # freq b3lyp/6-31g(d)
 ---------------------
 1/10=4,30=1,38=1/1,3;
 2/12=2,17=6,18=5,40=1/2;
 3/5=1,6=6,7=1,11=2,25=1,30=1,71=2,74=-5,140=1/1,2,3;
 4//1;
 5/5=2,38=5,98=1/2;
 8/6=4,10=90,11=11/1;
 11/6=1,8=1,9=11,15=111,16=1/1,2,10;
 10/6=1/2;
 6/7=2,8=2,9=2,10=2,28=1/1;
 7/8=1,10=1,25=1/1,2,3,16;
 1/10=4,30=1/3;
 99//99;
 ---------
 good luck
 ---------
 Symbolic Z-matrix:
 Charge =  0 Multiplicity = 1
 O                     1.20751   0.        0. 
 C                     0.        0.        0. 
 C                    -1.061    -1.11014   0.04912 
 C                    -2.11703  -0.00388   0.35008 
 C                    -1.06297   1.11183   0.04912 
 C                    -0.87643   2.25887   1.04541 
 C                     0.36269   3.14222   0.76978 
 C                     0.34096   3.83567  -0.57721 
 C                     1.03921   3.30252  -1.67014 
 C                     1.00489   3.93065  -2.91681 
 C                     0.27105   5.10495  -3.09148 
 C                    -0.42791   5.64701  -2.01073 
 C                    -0.39133   5.01641  -0.76675 
 H                    -1.18823  -1.59967  -0.92384 
 H                    -0.89967  -1.88547   0.8053 
 H                    -2.43512  -0.00278   1.39727 
 H                    -3.00481  -0.00438  -0.28662 
 H                    -1.19543   1.51861  -0.96303 
 H                    -1.78287   2.87971   1.03766 
 H                    -0.78967   1.84443   2.0593 
 H                     1.25897   2.51859   0.84601 
 H                     0.42501   3.89373   1.56748 
 H                     1.6119    2.38787  -1.53532 
 H                     1.55665   3.50377  -3.75057 
 H                     0.24739   5.59719  -4.06017 
 H                    -0.99675   6.56508  -2.13498 
 H                    -0.93115   5.45075   0.07274 
 

 GradGradGradGradGradGradGradGradGradGradGradGradGradGradGradGradGradGrad
 Berny optimization.
 Initialization pass.
 Trust Radius=3.00D-01 FncErr=1.00D-07 GrdErr=1.00D-07 EigMax=2.50D+02 EigMin=1.00D-04
 Number of steps in this run=      2 maximum allowed number of steps=      2.
 GradGradGradGradGradGradGradGradGradGradGradGradGradGradGradGradGradGrad

                          Input orientation:                          
 ---------------------------------------------------------------------
 Center     Atomic      Atomic             Coordinates (Angstroms)
 Number     Number       Type             X           Y           Z
 ---------------------------------------------------------------------
      1          8           0        1.207512    0.000000    0.000000
      2          6           0        0.000000    0.000000    0.000000
      3          6           0       -1.060995   -1.110144    0.049123
      4          6           0       -2.117034   -0.003877    0.350076
      5          6           0       -1.062971    1.111830    0.049123
      6          6           0       -0.876425    2.258872    1.045406
      7          6           0        0.362691    3.142216    0.769781
      8          6           0        0.340961    3.835674   -0.577209
      9          6           0        1.039207    3.302520   -1.670141
     10          6           0        1.004887    3.930646   -2.916808
     11          6           0        0.271045    5.104951   -3.091480
     12          6           0       -0.427909    5.647006   -2.010727
     13          6           0       -0.391329    5.016408   -0.766747
     14          1           0       -1.188234   -1.599671   -0.923841
     15          1           0       -0.899665   -1.885465    0.805297
     16          1           0       -2.435117   -0.002784    1.397268
     17          1           0       -3.004813   -0.004381   -0.286618
     18          1           0       -1.195434    1.518606   -0.963028
     19          1           0       -1.782874    2.879714    1.037664
     20          1           0       -0.789666    1.844430    2.059304
     21          1           0        1.258970    2.518590    0.846007
     22          1           0        0.425007    3.893725    1.567475
     23          1           0        1.611896    2.387871   -1.535322
     24          1           0        1.556649    3.503774   -3.750574
     25          1           0        0.247387    5.597194   -4.060173
     26          1           0       -0.996750    6.565078   -2.134976
     27          1           0       -0.931149    5.450752    0.072743
 ---------------------------------------------------------------------
                    Distance matrix (angstroms):
                    1          2          3          4          5
     1  O    0.000000
     2  C    1.207512   0.000000
     3  C    2.526056   1.536406   0.000000
     4  C    3.342929   2.145787   1.558723   0.000000
     5  C    2.528571   1.538989   2.221975   1.564105   0.000000
     6  C    3.246255   2.638844   3.518084   2.672569   1.530714
     7  C    3.343622   3.255400   4.541893   4.027790   2.583472
     8  C    3.974478   3.893818   5.178696   4.652284   3.127722
     9  C    3.704637   3.843951   5.180571   4.997539   3.489147
    10  C    4.898857   4.996753   6.202756   5.991610   4.584595
    11  C    6.041088   5.974214   7.089790   6.606614   5.252428
    12  C    6.213397   6.009560   7.092451   6.352874   5.021365
    13  C    5.320577   5.089734   6.216811   5.424815   4.045056
    14  H    3.025232   2.196436   1.096579   2.243233   2.883503
    15  H    2.940013   2.238946   1.094965   2.286829   3.095520
    16  H    3.901424   2.807519   2.220800   1.094436   2.223206
    17  H    4.222067   3.018455   2.261385   1.092488   2.264818
    18  H    3.001289   2.159317   2.820080   2.211683   1.098846
    19  H    4.279241   3.542335   4.173403   2.983209   2.149625
    20  H    3.410480   2.875105   3.583846   2.845980   2.156902
    21  H    2.657381   2.940073   4.380065   4.243370   2.829383
    22  H    4.269706   4.218851   5.436203   4.809920   3.501201
    23  H    2.867519   3.264560   4.678773   4.814572   3.360604
    24  H    5.144427   5.363431   6.525182   6.528008   5.198221
    25  H    6.981076   6.919161   7.974118   7.510844   6.222688
    26  H    7.246871   6.975090   7.980191   7.112081   5.874741
    27  H    5.855754   5.530192   6.562223   5.588937   4.340988
                    6          7          8          9         10
     6  C    0.000000
     7  C    1.546504   0.000000
     8  C    2.569283   1.515169   0.000000
     9  C    3.483252   2.537044   1.402249   0.000000
    10  C    4.693965   3.824262   2.433833   1.396388   0.000000
    11  C    5.150794   4.332443   2.817359   2.420544   1.395717
    12  C    4.584819   3.824950   2.434555   2.786583   2.412422
    13  C    3.335149   2.538121   1.402250   2.408312   2.784073
    14  H    4.343215   5.268702   5.656993   5.435985   6.274241
    15  H    4.151352   5.183858   6.015140   6.066482   7.162997
    16  H    2.769190   4.255878   5.132147   5.692535   6.776190
    17  H    3.380331   4.728333   5.101438   5.404057   6.203227
    18  H    2.164155   2.840157   2.806808   2.945501   3.804813
    19  H    1.098706   2.178100   2.834140   3.933842   4.951153
    20  H    1.098762   2.162185   3.492073   4.402222   5.686335
    21  H    2.160353   1.094548   2.145459   2.644587   4.027063
    22  H    2.153840   1.097709   2.147115   3.347973   4.521772
    23  H    3.587275   2.728195   2.151602   1.087535   2.158036
    24  H    5.520059   4.689336   3.414425   2.153242   1.087119
    25  H    6.202764   5.419287   3.904196   3.406576   2.158349
    26  H    5.354691   4.690595   3.415517   3.873690   3.399712
    27  H    3.337239   2.736644   2.156195   3.396299   3.872515
                   11         12         13         14         15
    11  C    0.000000
    12  C    1.396563   0.000000
    13  C    2.418876   1.395162   0.000000
    14  H    7.195840   7.367072   6.665751   0.000000
    15  H    8.088346   8.055474   7.096871   1.776195   0.000000
    16  H    7.318547   6.896625   5.835436   3.080960   2.500506
    17  H    6.686088   6.446019   5.680594   2.500193   3.026946
    18  H    4.420717   4.327869   3.594403   3.118532   3.847356
    19  H    5.120556   4.334342   3.123741   4.926052   4.851905
    20  H    6.187623   5.581721   4.266929   4.573821   3.936591
    21  H    4.813425   4.559986   3.400523   5.106980   4.904800
    22  H    4.816288   4.074922   2.715771   6.243925   5.977851
    23  H    3.406176   3.874116   3.393055   4.910716   5.481591
    24  H    2.156606   3.399850   3.871163   6.447476   7.472171
    25  H    1.086844   2.158410   3.404692   7.980755   8.998817
    26  H    2.157354   1.087140   2.153361   8.256309   8.947978
    27  H    3.402522   2.152351   1.088487   7.125148   7.372768
                   16         17         18         19         20
    16  H    0.000000
    17  H    1.777647   0.000000
    18  H    3.069599   2.459852   0.000000
    19  H    2.977168   3.400715   2.490074   0.000000
    20  H    2.560859   3.718646   3.066806   1.761256   0.000000
    21  H    4.506384   5.082132   3.208843   3.069195   2.474569
    22  H    4.836534   5.513307   3.830204   2.486696   2.432475
    23  H    5.540183   5.347535   2.994035   4.287963   4.357082
    24  H    7.398001   6.716627   4.391499   5.871038   6.481767
    25  H    8.266755   7.496277   5.320613   6.123283   7.253049
    26  H    7.594897   7.113827   5.184575   4.926007   6.318179
    27  H    5.810107   5.847025   4.074855   2.875195   4.119709
                   21         22         23         24         25
    21  H    0.000000
    22  H    1.762670   0.000000
    23  H    2.410886   3.647417   0.000000
    24  H    4.710388   5.451084   2.481055   0.000000
    25  H    5.879771   5.882498   4.305405   2.488459   0.000000
    26  H    5.508956   4.781805   4.961217   4.301347   2.488184
    27  H    3.740606   2.549062   4.293506   4.959598   4.300161
                   26         27
    26  H    0.000000
    27  H    2.473873   0.000000
 Stoichiometry    C12H14O
 Framework group  C1[X(C12H14O)]
 Deg. of freedom    75
 Full point group                 C1      NOp   1
 Largest Abelian subgroup         C1      NOp   1
 Largest concise Abelian subgroup C1      NOp   1
                         Standard orientation:                         
 ---------------------------------------------------------------------
 Center     Atomic      Atomic             Coordinates (Angstroms)
 Number     Number       Type             X           Y           Z
 ---------------------------------------------------------------------
      1          8           0        2.153380    1.438678    1.167177
      2          6           0        2.369663    0.735948    0.209327
      3          6           0        3.567054    0.575113   -0.739846
      4          6           0        2.900025   -0.733448   -1.261724
      5          6           0        1.592663   -0.407128   -0.467530
      6          6           0        0.960249   -1.485396    0.415915
      7          6           0       -0.163061   -0.966080    1.343362
      8          6           0       -1.343876   -0.365051    0.608394
      9          6           0       -1.456308    1.023081    0.444842
     10          6           0       -2.534470    1.577120   -0.248344
     11          6           0       -3.520382    0.750831   -0.789869
     12          6           0       -3.420873   -0.633327   -0.633044
     13          6           0       -2.342053   -1.183123    0.060028
     14          1           0        3.614329    1.381652   -1.481295
     15          1           0        4.546304    0.494943   -0.256534
     16          1           0        3.397924   -1.634176   -0.889468
     17          1           0        2.790812   -0.815081   -2.345671
     18          1           0        0.827763    0.027378   -1.126010
     19          1           0        0.567576   -2.281758   -0.231211
     20          1           0        1.740886   -1.944308    1.038237
     21          1           0        0.262807   -0.221176    2.022914
     22          1           0       -0.505501   -1.806385    1.961090
     23          1           0       -0.689113    1.668152    0.866775
     24          1           0       -2.605757    2.656090   -0.360453
     25          1           0       -4.362390    1.181242   -1.325591
     26          1           0       -4.187339   -1.284888   -1.045200
     27          1           0       -2.277129   -2.262352    0.185944
 ---------------------------------------------------------------------
 Rotational constants (GHZ):           1.6046856           0.4432250           0.4136826
 Standard basis: 6-31G(d) (6D, 7F)
 There are   223 symmetry adapted cartesian basis functions of A   symmetry.
 There are   223 symmetry adapted basis functions of A   symmetry.
   223 basis functions,   420 primitive gaussians,   223 cartesian basis functions
    47 alpha electrons       47 beta electrons
       nuclear repulsion energy       744.9865671660 Hartrees.
 NAtoms=   27 NActive=   27 NUniq=   27 SFac= 1.00D+00 NAtFMM=   60 NAOKFM=F Big=F
 Integral buffers will be    131072 words long.
 Raffenetti 2 integral format.
 Two-electron integral symmetry is turned on.
 One-electron integrals computed using PRISM.
 NBasis=   223 RedAO= T EigKep=  4.69D-04  NBF=   223
 NBsUse=   223 1.00D-06 EigRej= -1.00D+00 NBFU=   223
 ExpMin= 1.61D-01 ExpMax= 5.48D+03 ExpMxC= 8.25D+02 IAcc=3 IRadAn=         5 AccDes= 0.00D+00
 Harris functional with IExCor=  402 and IRadAn=       5 diagonalized for initial guess.
 HarFok:  IExCor=  402 AccDes= 0.00D+00 IRadAn=         5 IDoV= 1 UseB2=F ITyADJ=14
 ICtDFT=  3500011 ScaDFX=  1.000000  1.000000  1.000000  1.000000
 FoFCou: FMM=F IPFlag=           0 FMFlag=      100000 FMFlg1=           0
         NFxFlg=           0 DoJE=T BraDBF=F KetDBF=T FulRan=T
         wScrn=  0.000000 ICntrl=       500 IOpCl=  0 I1Cent=   200000004 NGrid=           0
         NMat0=    1 NMatS0=      1 NMatT0=    0 NMatD0=    1 NMtDS0=    0 NMtDT0=    0
 Petite list used in FoFCou.
 Requested convergence on RMS density matrix=1.00D-08 within 128 cycles.
 Requested convergence on MAX density matrix=1.00D-06.
 Requested convergence on             energy=1.00D-06.
 No special actions if energy rises.
 Integral accuracy reduced to 1.0D-05 until final iterations.
 Initial convergence to 1.0D-05 achieved.  Increase integral accuracy.
 SCF Done:  E(RB3LYP) =  -540.909861327     A.U. after   14 cycles
            NFock= 14  Conv=0.94D-08     -V/T= 2.0097
 DoSCS=F DFT=T ScalE2(SS,OS)=  1.000000  1.000000
 Range of M.O.s used for correlation:     1   223
 NBasis=   223 NAE=    47 NBE=    47 NFC=     0 NFV=     0
 NROrb=    223 NOA=    47 NOB=    47 NVA=   176 NVB=   176
 Symmetrizing basis deriv contribution to polar:
 IMax=3 JMax=2 DiffMx= 0.00D+00
 G2DrvN: will do    28 centers at a time, making    1 passes.
 Calling FoFCou, ICntrl=  3107 FMM=F I1Cent=   0 AccDes= 0.00D+00.
 End of G2Drv F.D. properties file   721 does not exist.
 End of G2Drv F.D. properties file   722 does not exist.
 End of G2Drv F.D. properties file   788 does not exist.
          IDoAtm=111111111111111111111111111
          Differentiating once with respect to electric field.
                with respect to dipole field.
          Differentiating once with respect to nuclear coordinates.
 Keep R1 ints in memory in canonical form, NReq=322414355.
          There are    84 degrees of freedom in the 1st order CPHF.  IDoFFX=6 NUNeed=     3.
     81 vectors produced by pass  0 Test12= 9.85D-15 1.19D-09 XBig12= 1.28D+02 4.84D+00.
 AX will form    81 AO Fock derivatives at one time.
     81 vectors produced by pass  1 Test12= 9.85D-15 1.19D-09 XBig12= 1.97D+01 8.73D-01.
     81 vectors produced by pass  2 Test12= 9.85D-15 1.19D-09 XBig12= 1.46D-01 4.80D-02.
     81 vectors produced by pass  3 Test12= 9.85D-15 1.19D-09 XBig12= 3.63D-04 2.39D-03.
     81 vectors produced by pass  4 Test12= 9.85D-15 1.19D-09 XBig12= 3.70D-07 8.19D-05.
     49 vectors produced by pass  5 Test12= 9.85D-15 1.19D-09 XBig12= 2.85D-10 2.81D-06.
      3 vectors produced by pass  6 Test12= 9.85D-15 1.19D-09 XBig12= 2.05D-13 9.25D-08.
      1 vectors produced by pass  7 Test12= 9.85D-15 1.19D-09 XBig12= 1.61D-16 1.98D-09.
 InvSVY:  IOpt=1 It=  1 EMax= 1.60D-14
 Solved reduced A of dimension   458 with    84 vectors.
 Isotropic polarizability for W=    0.000000      118.26 Bohr**3.
 End of Minotr F.D. properties file   721 does not exist.
 End of Minotr F.D. properties file   722 does not exist.
 End of Minotr F.D. properties file   788 does not exist.

 **********************************************************************

            Population analysis using the SCF density.

 **********************************************************************

 Orbital symmetries:
       Occupied  (A) (A) (A) (A) (A) (A) (A) (A) (A) (A) (A) (A)
                 (A) (A) (A) (A) (A) (A) (A) (A) (A) (A) (A) (A)
                 (A) (A) (A) (A) (A) (A) (A) (A) (A) (A) (A) (A)
                 (A) (A) (A) (A) (A) (A) (A) (A) (A) (A) (A)
       Virtual   (A) (A) (A) (A) (A) (A) (A) (A) (A) (A) (A) (A)
                 (A) (A) (A) (A) (A) (A) (A) (A) (A) (A) (A) (A)
                 (A) (A) (A) (A) (A) (A) (A) (A) (A) (A) (A) (A)
                 (A) (A) (A) (A) (A) (A) (A) (A) (A) (A) (A) (A)
                 (A) (A) (A) (A) (A) (A) (A) (A) (A) (A) (A) (A)
                 (A) (A) (A) (A) (A) (A) (A) (A) (A) (A) (A) (A)
                 (A) (A) (A) (A) (A) (A) (A) (A) (A) (A) (A) (A)
                 (A) (A) (A) (A) (A) (A) (A) (A) (A) (A) (A) (A)
                 (A) (A) (A) (A) (A) (A) (A) (A) (A) (A) (A) (A)
                 (A) (A) (A) (A) (A) (A) (A) (A) (A) (A) (A) (A)
                 (A) (A) (A) (A) (A) (A) (A) (A) (A) (A) (A) (A)
                 (A) (A) (A) (A) (A) (A) (A) (A) (A) (A) (A) (A)
                 (A) (A) (A) (A) (A) (A) (A) (A) (A) (A) (A) (A)
                 (A) (A) (A) (A) (A) (A) (A) (A) (A) (A) (A) (A)
                 (A) (A) (A) (A) (A) (A) (A) (A)
 The electronic state is 1-A.
 Alpha  occ. eigenvalues --  -19.14716 -10.27442 -10.19599 -10.19535 -10.19515
 Alpha  occ. eigenvalues --  -10.19286 -10.18947 -10.18514 -10.18403 -10.18364
 Alpha  occ. eigenvalues --  -10.18335 -10.18288 -10.17971  -1.04282  -0.85307
 Alpha  occ. eigenvalues --   -0.84513  -0.78458  -0.73667  -0.73120  -0.67297
 Alpha  occ. eigenvalues --   -0.63009  -0.61615  -0.59744  -0.57048  -0.52558
 Alpha  occ. eigenvalues --   -0.50195  -0.47966  -0.46388  -0.45929  -0.44615
 Alpha  occ. eigenvalues --   -0.43607  -0.42146  -0.41241  -0.40399  -0.40171
 Alpha  occ. eigenvalues --   -0.38760  -0.37079  -0.35967  -0.35282  -0.34390
 Alpha  occ. eigenvalues --   -0.33692  -0.33029  -0.32213  -0.31978  -0.24428
 Alpha  occ. eigenvalues --   -0.24007  -0.23480
 Alpha virt. eigenvalues --   -0.02209   0.00392   0.00564   0.09397   0.09799
 Alpha virt. eigenvalues --    0.11130   0.12377   0.12924   0.13804   0.14575
 Alpha virt. eigenvalues --    0.15759   0.16676   0.16937   0.17284   0.17778
 Alpha virt. eigenvalues --    0.18107   0.19159   0.20089   0.20583   0.21379
 Alpha virt. eigenvalues --    0.23915   0.25334   0.27615   0.29652   0.30076
 Alpha virt. eigenvalues --    0.31213   0.33139   0.34477   0.35239   0.37044
 Alpha virt. eigenvalues --    0.46285   0.49789   0.51265   0.51785   0.53239
 Alpha virt. eigenvalues --    0.54093   0.54938   0.55702   0.56319   0.58140
 Alpha virt. eigenvalues --    0.58894   0.59184   0.60009   0.60207   0.60976
 Alpha virt. eigenvalues --    0.61312   0.62349   0.62951   0.63546   0.64384
 Alpha virt. eigenvalues --    0.66031   0.68076   0.70029   0.70680   0.72086
 Alpha virt. eigenvalues --    0.74494   0.77456   0.78529   0.79760   0.82364
 Alpha virt. eigenvalues --    0.82615   0.83660   0.84055   0.84686   0.85119
 Alpha virt. eigenvalues --    0.86095   0.86850   0.88299   0.88784   0.90656
 Alpha virt. eigenvalues --    0.91273   0.91815   0.93538   0.94268   0.94804
 Alpha virt. eigenvalues --    0.95948   0.96631   0.98370   0.99850   1.01573
 Alpha virt. eigenvalues --    1.05322   1.09093   1.09493   1.12669   1.14501
 Alpha virt. eigenvalues --    1.17857   1.18515   1.21135   1.25398   1.26351
 Alpha virt. eigenvalues --    1.27478   1.36675   1.37944   1.41272   1.43430
 Alpha virt. eigenvalues --    1.45029   1.48299   1.49067   1.49771   1.50487
 Alpha virt. eigenvalues --    1.52117   1.54538   1.58566   1.63562   1.66755
 Alpha virt. eigenvalues --    1.67677   1.70629   1.75419   1.78307   1.79783
 Alpha virt. eigenvalues --    1.81738   1.82484   1.83189   1.87500   1.89223
 Alpha virt. eigenvalues --    1.90567   1.91154   1.92652   1.94203   1.96949
 Alpha virt. eigenvalues --    1.98212   1.99484   2.00264   2.03831   2.04875
 Alpha virt. eigenvalues --    2.06064   2.10043   2.12448   2.14090   2.15269
 Alpha virt. eigenvalues --    2.15860   2.17811   2.21917   2.23438   2.24515
 Alpha virt. eigenvalues --    2.26409   2.28382   2.30592   2.32057   2.35298
 Alpha virt. eigenvalues --    2.36688   2.39426   2.41937   2.43716   2.48640
 Alpha virt. eigenvalues --    2.53750   2.56825   2.58537   2.58712   2.66286
 Alpha virt. eigenvalues --    2.68730   2.70142   2.72952   2.75032   2.75280
 Alpha virt. eigenvalues --    2.76261   2.77842   2.84231   2.90329   3.01601
 Alpha virt. eigenvalues --    3.05697   3.06163   3.41361   4.01530   4.09704
 Alpha virt. eigenvalues --    4.12416   4.14953   4.17579   4.23392   4.34516
 Alpha virt. eigenvalues --    4.39849   4.42374   4.44401   4.53760   4.71168
 Alpha virt. eigenvalues --    4.76417
          Condensed to atoms (all electrons):
               1          2          3          4          5          6
     1  O    7.988642   0.559727  -0.060232   0.008036  -0.071793   0.000691
     2  C    0.559727   4.556117   0.334876  -0.119536   0.328557  -0.028240
     3  C   -0.060232   0.334876   5.353146   0.321434  -0.265079   0.008898
     4  C    0.008036  -0.119536   0.321434   5.150302   0.338120  -0.032412
     5  C   -0.071793   0.328557  -0.265079   0.338120   5.291121   0.361790
     6  C    0.000691  -0.028240   0.008898  -0.032412   0.361790   5.016360
     7  C   -0.002347  -0.001596  -0.000203   0.004115  -0.040746   0.343343
     8  C   -0.000868  -0.001603  -0.000009   0.000133  -0.004223  -0.041525
     9  C   -0.002011   0.000454  -0.000048   0.000061   0.000051  -0.004096
    10  C    0.000039   0.000035   0.000000   0.000002  -0.000190  -0.000136
    11  C    0.000000   0.000000   0.000000  -0.000000   0.000011   0.000024
    12  C   -0.000000  -0.000000  -0.000000  -0.000001   0.000005  -0.000016
    13  C   -0.000009   0.000008  -0.000001  -0.000009  -0.000697  -0.002772
    14  H    0.000346  -0.018629   0.350662  -0.026822   0.008451  -0.000088
    15  H    0.000359  -0.016130   0.348379  -0.024213   0.010250  -0.000450
    16  H   -0.000085  -0.000408  -0.024598   0.368126  -0.030997  -0.004367
    17  H   -0.000175   0.003547  -0.021987   0.360389  -0.018790   0.002167
    18  H   -0.000111  -0.031179   0.012398  -0.035255   0.345757  -0.027545
    19  H   -0.000055   0.003797  -0.000498  -0.002631  -0.034443   0.368827
    20  H    0.000442  -0.005228   0.001325  -0.004654  -0.045348   0.367337
    21  H    0.008407   0.003975   0.000277  -0.000033  -0.009904  -0.032838
    22  H    0.000092   0.000083   0.000011  -0.000096   0.005057  -0.035599
    23  H    0.008629   0.001246   0.000186   0.000007  -0.001458   0.000563
    24  H   -0.000002  -0.000001  -0.000000   0.000000   0.000001   0.000000
    25  H    0.000000   0.000000   0.000000  -0.000000  -0.000000   0.000000
    26  H   -0.000000   0.000000  -0.000000  -0.000000  -0.000000   0.000001
    27  H    0.000000  -0.000000   0.000000   0.000000   0.000098   0.000420
               7          8          9         10         11         12
     1  O   -0.002347  -0.000868  -0.002011   0.000039   0.000000  -0.000000
     2  C   -0.001596  -0.001603   0.000454   0.000035   0.000000  -0.000000
     3  C   -0.000203  -0.000009  -0.000048   0.000000   0.000000  -0.000000
     4  C    0.004115   0.000133   0.000061   0.000002  -0.000000  -0.000001
     5  C   -0.040746  -0.004223   0.000051  -0.000190   0.000011   0.000005
     6  C    0.343343  -0.041525  -0.004096  -0.000136   0.000024  -0.000016
     7  C    5.177036   0.359634  -0.053384   0.006883   0.000366   0.006350
     8  C    0.359634   4.643692   0.545975  -0.022029  -0.034767  -0.016927
     9  C   -0.053384   0.545975   4.997741   0.511375  -0.034502  -0.047880
    10  C    0.006883  -0.022029   0.511375   4.883484   0.549758  -0.026008
    11  C    0.000366  -0.034767  -0.034502   0.549758   4.856643   0.548974
    12  C    0.006350  -0.016927  -0.047880  -0.026008   0.548974   4.869310
    13  C   -0.062160   0.542368  -0.042328  -0.047290  -0.035490   0.523873
    14  H    0.000005   0.000001   0.000004  -0.000000  -0.000000   0.000000
    15  H    0.000009  -0.000000  -0.000000   0.000000  -0.000000   0.000000
    16  H    0.000066   0.000001  -0.000001  -0.000000   0.000000   0.000000
    17  H   -0.000087   0.000003   0.000002  -0.000000  -0.000000   0.000000
    18  H   -0.006617   0.008979   0.004643   0.000131  -0.000049  -0.000093
    19  H   -0.036460  -0.005484  -0.000028   0.000008  -0.000006  -0.000086
    20  H   -0.032102   0.004747  -0.000055   0.000003  -0.000000   0.000003
    21  H    0.361601  -0.030060  -0.005145   0.000208   0.000004  -0.000187
    22  H    0.352153  -0.029330   0.003978  -0.000224   0.000019   0.000043
    23  H   -0.010870  -0.041508   0.349558  -0.044325   0.004624   0.000295
    24  H   -0.000179   0.003703  -0.038996   0.356028  -0.043807   0.004601
    25  H    0.000007   0.000676   0.004683  -0.043631   0.358750  -0.043403
    26  H   -0.000180   0.003723   0.000761   0.004698  -0.043537   0.356310
    27  H   -0.009225  -0.047212   0.006408   0.000321   0.004927  -0.046954
              13         14         15         16         17         18
     1  O   -0.000009   0.000346   0.000359  -0.000085  -0.000175  -0.000111
     2  C    0.000008  -0.018629  -0.016130  -0.000408   0.003547  -0.031179
     3  C   -0.000001   0.350662   0.348379  -0.024598  -0.021987   0.012398
     4  C   -0.000009  -0.026822  -0.024213   0.368126   0.360389  -0.035255
     5  C   -0.000697   0.008451   0.010250  -0.030997  -0.018790   0.345757
     6  C   -0.002772  -0.000088  -0.000450  -0.004367   0.002167  -0.027545
     7  C   -0.062160   0.000005   0.000009   0.000066  -0.000087  -0.006617
     8  C    0.542368   0.000001  -0.000000   0.000001   0.000003   0.008979
     9  C   -0.042328   0.000004  -0.000000  -0.000001   0.000002   0.004643
    10  C   -0.047290  -0.000000   0.000000  -0.000000  -0.000000   0.000131
    11  C   -0.035490  -0.000000  -0.000000   0.000000  -0.000000  -0.000049
    12  C    0.523873   0.000000   0.000000   0.000000   0.000000  -0.000093
    13  C    4.979776   0.000000   0.000000  -0.000000   0.000001   0.000653
    14  H    0.000000   0.538045  -0.022978   0.003304  -0.006334  -0.000715
    15  H    0.000000  -0.022978   0.536129  -0.005446   0.002632  -0.000234
    16  H   -0.000000   0.003304  -0.005446   0.568353  -0.033503   0.003764
    17  H    0.000001  -0.006334   0.002632  -0.033503   0.569484  -0.006082
    18  H    0.000653  -0.000715  -0.000234   0.003764  -0.006082   0.556245
    19  H    0.003921   0.000008   0.000019   0.000574   0.000263  -0.005035
    20  H    0.000048  -0.000014  -0.000043   0.004714  -0.000044   0.005797
    21  H    0.004189  -0.000000  -0.000003   0.000011  -0.000000   0.000275
    22  H   -0.006318  -0.000000  -0.000000  -0.000005   0.000002   0.000144
    23  H    0.006022  -0.000011  -0.000000  -0.000000   0.000001   0.000085
    24  H    0.000860   0.000000  -0.000000  -0.000000  -0.000000  -0.000004
    25  H    0.004750  -0.000000   0.000000   0.000000   0.000000  -0.000000
    26  H   -0.040508   0.000000   0.000000  -0.000000  -0.000000  -0.000001
    27  H    0.354136  -0.000000   0.000000  -0.000000  -0.000000  -0.000004
              19         20         21         22         23         24
     1  O   -0.000055   0.000442   0.008407   0.000092   0.008629  -0.000002
     2  C    0.003797  -0.005228   0.003975   0.000083   0.001246  -0.000001
     3  C   -0.000498   0.001325   0.000277   0.000011   0.000186  -0.000000
     4  C   -0.002631  -0.004654  -0.000033  -0.000096   0.000007   0.000000
     5  C   -0.034443  -0.045348  -0.009904   0.005057  -0.001458   0.000001
     6  C    0.368827   0.367337  -0.032838  -0.035599   0.000563   0.000000
     7  C   -0.036460  -0.032102   0.361601   0.352153  -0.010870  -0.000179
     8  C   -0.005484   0.004747  -0.030060  -0.029330  -0.041508   0.003703
     9  C   -0.000028  -0.000055  -0.005145   0.003978   0.349558  -0.038996
    10  C    0.000008   0.000003   0.000208  -0.000224  -0.044325   0.356028
    11  C   -0.000006  -0.000000   0.000004   0.000019   0.004624  -0.043807
    12  C   -0.000086   0.000003  -0.000187   0.000043   0.000295   0.004601
    13  C    0.003921   0.000048   0.004189  -0.006318   0.006022   0.000860
    14  H    0.000008  -0.000014  -0.000000  -0.000000  -0.000011   0.000000
    15  H    0.000019  -0.000043  -0.000003  -0.000000  -0.000000  -0.000000
    16  H    0.000574   0.004714   0.000011  -0.000005  -0.000000  -0.000000
    17  H    0.000263  -0.000044  -0.000000   0.000002   0.000001  -0.000000
    18  H   -0.005035   0.005797   0.000275   0.000144   0.000085  -0.000004
    19  H    0.599728  -0.037265   0.004976  -0.003861  -0.000024   0.000000
    20  H   -0.037265   0.612023  -0.002859  -0.002674  -0.000027  -0.000000
    21  H    0.004976  -0.002859   0.550023  -0.031759   0.005391  -0.000006
    22  H   -0.003861  -0.002674  -0.031759   0.602542   0.000170   0.000003
    23  H   -0.000024  -0.000027   0.005391   0.000170   0.577365  -0.005234
    24  H    0.000000  -0.000000  -0.000006   0.000003  -0.005234   0.600336
    25  H   -0.000000   0.000000  -0.000000  -0.000000  -0.000165  -0.005654
    26  H    0.000003  -0.000000   0.000003  -0.000006   0.000016  -0.000190
    27  H    0.001116  -0.000079   0.000051   0.004524  -0.000170   0.000018
              25         26         27
     1  O    0.000000  -0.000000   0.000000
     2  C    0.000000   0.000000  -0.000000
     3  C    0.000000  -0.000000   0.000000
     4  C   -0.000000  -0.000000   0.000000
     5  C   -0.000000  -0.000000   0.000098
     6  C    0.000000   0.000001   0.000420
     7  C    0.000007  -0.000180  -0.009225
     8  C    0.000676   0.003723  -0.047212
     9  C    0.004683   0.000761   0.006408
    10  C   -0.043631   0.004698   0.000321
    11  C    0.358750  -0.043537   0.004927
    12  C   -0.043403   0.356310  -0.046954
    13  C    0.004750  -0.040508   0.354136
    14  H   -0.000000   0.000000  -0.000000
    15  H    0.000000   0.000000   0.000000
    16  H    0.000000  -0.000000  -0.000000
    17  H    0.000000  -0.000000  -0.000000
    18  H   -0.000000  -0.000001  -0.000004
    19  H   -0.000000   0.000003   0.001116
    20  H    0.000000  -0.000000  -0.000079
    21  H   -0.000000   0.000003   0.000051
    22  H   -0.000000  -0.000006   0.004524
    23  H   -0.000165   0.000016  -0.000170
    24  H   -0.005654  -0.000190   0.000018
    25  H    0.603652  -0.005604  -0.000185
    26  H   -0.005604   0.604081  -0.005752
    27  H   -0.000185  -0.005752   0.618054
 Mulliken charges:
               1
     1  O   -0.437723
     2  C    0.430130
     3  C   -0.358939
     4  C   -0.305063
     5  C   -0.165600
     6  C   -0.260337
     7  C   -0.355412
     8  C    0.161908
     9  C   -0.197222
    10  C   -0.129139
    11  C   -0.131942
    12  C   -0.128209
    13  C   -0.183023
    14  H    0.174765
    15  H    0.171721
    16  H    0.150500
    17  H    0.148511
    18  H    0.174053
    19  H    0.142635
    20  H    0.133954
    21  H    0.173407
    22  H    0.141052
    23  H    0.149637
    24  H    0.128524
    25  H    0.126126
    26  H    0.126181
    27  H    0.119506
 Sum of Mulliken charges =  -0.00000
 Mulliken charges with hydrogens summed into heavy atoms:
               1
     1  O   -0.437723
     2  C    0.430130
     3  C   -0.012453
     4  C   -0.006052
     5  C    0.008453
     6  C    0.016252
     7  C   -0.040953
     8  C    0.161908
     9  C   -0.047585
    10  C   -0.000615
    11  C   -0.005816
    12  C   -0.002028
    13  C   -0.063516
 APT charges:
               1
     1  O   -0.683159
     2  C    0.807270
     3  C   -0.099863
     4  C    0.068816
     5  C   -0.096678
     6  C    0.150088
     7  C    0.104296
     8  C    0.051105
     9  C   -0.082334
    10  C    0.015913
    11  C   -0.039460
    12  C    0.003962
    13  C   -0.051109
    14  H    0.006911
    15  H   -0.009713
    16  H   -0.028008
    17  H   -0.039529
    18  H    0.005814
    19  H   -0.045980
    20  H   -0.066662
    21  H    0.000547
    22  H   -0.060937
    23  H    0.049670
    24  H    0.009179
    25  H    0.010583
    26  H    0.006164
    27  H    0.013116
 Sum of APT charges =   0.00000
 APT charges with hydrogens summed into heavy atoms:
               1
     1  O   -0.683159
     2  C    0.807270
     3  C   -0.102665
     4  C    0.001279
     5  C   -0.090864
     6  C    0.037447
     7  C    0.043906
     8  C    0.051105
     9  C   -0.032664
    10  C    0.025092
    11  C   -0.028878
    12  C    0.010126
    13  C   -0.037993
 Electronic spatial extent (au):  <R**2>=           2850.7999
 Charge=              0.0000 electrons
 Dipole moment (field-independent basis, Debye):
    X=              0.6423    Y=             -1.6076    Z=             -1.9732  Tot=              2.6249
 Quadrupole moment (field-independent basis, Debye-Ang):
   XX=            -72.2318   YY=            -75.2918   ZZ=            -78.9883
   XY=             -2.8738   XZ=             -1.7160   YZ=             -4.1552
 Traceless Quadrupole moment (field-independent basis, Debye-Ang):
   XX=              3.2721   YY=              0.2122   ZZ=             -3.4843
   XY=             -2.8738   XZ=             -1.7160   YZ=             -4.1552
 Octapole moment (field-independent basis, Debye-Ang**2):
  XXX=             20.6653  YYY=              2.6247  ZZZ=              1.0344  XYY=             -8.6734
  XXY=             -4.0048  XXZ=            -21.7128  XZZ=              4.3765  YZZ=             -1.8296
  YYZ=             -3.9780  XYZ=             -7.1994
 Hexadecapole moment (field-independent basis, Debye-Ang**3):
 XXXX=          -2694.6781 YYYY=           -610.6840 ZZZZ=           -406.3699 XXXY=              8.0686
 XXXZ=             62.2550 YYYX=             -2.1843 YYYZ=             -6.2457 ZZZX=             -2.5912
 ZZZY=             -0.0675 XXYY=           -560.8039 XXZZ=           -549.7310 YYZZ=           -176.8919
 XXYZ=            -25.2781 YYXZ=             -3.9362 ZZXY=             -0.9173
 N-N= 7.449865671660D+02 E-N=-2.744856895253D+03  KE= 5.356948035535D+02
  Exact polarizability: 142.052  -1.001 122.309  16.264  -1.585  90.432
 Approx polarizability: 187.633   0.484 203.872  34.993   2.968 145.381
 Calling FoFJK, ICntrl=    100127 FMM=F ISym2X=0 I1Cent= 0 IOpClX= 0 NMat=1 NMatS=1 NMatT=0.
 Full mass-weighted force constant matrix:
 Low frequencies ---   -9.2290   -3.6308   -2.6988   -0.0005    0.0003    0.0005
 Low frequencies ---   38.1355   43.0462   52.0533
 Diagonal vibrational polarizability:
       53.0505641      13.2514652      20.4857716
 Harmonic frequencies (cm**-1), IR intensities (KM/Mole), Raman scattering
 activities (A**4/AMU), depolarization ratios for plane and unpolarized
 incident light, reduced masses (AMU), force constants (mDyne/A),
 and normal coordinates:
                      1                      2                      3
                      A                      A                      A
 Frequencies --     38.1343                43.0451                52.0519
 Red. masses --      4.0366                 5.1872                 3.5995
 Frc consts  --      0.0035                 0.0057                 0.0057
 IR Inten    --      0.1428                 3.2861                 1.7311
  Atom  AN      X      Y      Z        X      Y      Z        X      Y      Z
     1   8    -0.12   0.05  -0.10     0.30  -0.12   0.14     0.04  -0.11   0.13
     2   6    -0.10   0.01  -0.07     0.12  -0.03   0.03    -0.05   0.01   0.03
     3   6    -0.13   0.04  -0.11    -0.01  -0.03  -0.14    -0.16   0.17  -0.15
     4   6    -0.02  -0.07   0.05    -0.12  -0.00  -0.07    -0.06   0.06  -0.02
     5   6    -0.04  -0.09   0.03    -0.02   0.05   0.06    -0.04  -0.01   0.05
     6   6     0.01  -0.06   0.10    -0.03   0.08   0.08    -0.00  -0.03   0.04
     7   6    -0.00  -0.03   0.08    -0.02   0.13   0.06    -0.02  -0.06   0.04
     8   6     0.03  -0.01   0.04    -0.03   0.06   0.02     0.01  -0.03   0.03
     9   6    -0.01   0.01   0.18    -0.15   0.05   0.07     0.11  -0.04  -0.08
    10   6     0.03   0.04   0.14    -0.16  -0.01   0.02     0.16  -0.01  -0.14
    11   6     0.11   0.05  -0.03    -0.05  -0.08  -0.08     0.10   0.02  -0.08
    12   6     0.15   0.04  -0.17     0.07  -0.08  -0.13    -0.01   0.03   0.04
    13   6     0.11   0.01  -0.13     0.08  -0.01  -0.08    -0.05  -0.00   0.09
    14   1    -0.25  -0.03  -0.19    -0.13  -0.02  -0.14    -0.43   0.15  -0.18
    15   1    -0.10   0.19  -0.15     0.06  -0.04  -0.29    -0.07   0.34  -0.31
    16   1     0.06   0.01   0.15    -0.11  -0.02  -0.10     0.06   0.15   0.04
    17   1    -0.03  -0.21   0.06    -0.22  -0.02  -0.06    -0.12  -0.04  -0.00
    18   1    -0.06  -0.18  -0.01    -0.04   0.13   0.13    -0.05  -0.01   0.07
    19   1     0.03  -0.11   0.16    -0.05   0.07   0.10     0.01  -0.04   0.04
    20   1     0.03   0.01   0.13    -0.04   0.08   0.09     0.01  -0.02   0.04
    21   1    -0.00  -0.04   0.08    -0.02   0.18   0.00    -0.03  -0.08   0.07
    22   1    -0.03  -0.02   0.07    -0.01   0.17   0.12    -0.04  -0.08   0.01
    23   1    -0.06  -0.01   0.29    -0.24   0.11   0.14     0.15  -0.06  -0.12
    24   1     0.00   0.04   0.25    -0.25  -0.02   0.06     0.24  -0.01  -0.22
    25   1     0.14   0.08  -0.06    -0.05  -0.14  -0.11     0.14   0.04  -0.12
    26   1     0.21   0.05  -0.30     0.16  -0.13  -0.21    -0.06   0.05   0.09
    27   1     0.14  -0.00  -0.23     0.17  -0.01  -0.12    -0.14   0.01   0.17
                      4                      5                      6
                      A                      A                      A
 Frequencies --     81.5708               129.3708               177.3092
 Red. masses --      2.6795                 4.8621                 3.0508
 Frc consts  --      0.0105                 0.0479                 0.0565
 IR Inten    --      0.3383                 2.7814                 0.7570
  Atom  AN      X      Y      Z        X      Y      Z        X      Y      Z
     1   8     0.02  -0.07   0.03     0.19   0.23  -0.08    -0.05  -0.03   0.02
     2   6     0.02  -0.00  -0.02     0.12   0.09   0.01    -0.03  -0.03   0.03
     3   6    -0.01   0.11  -0.08     0.05  -0.02  -0.07    -0.04  -0.02   0.02
     4   6     0.18  -0.07   0.13    -0.03  -0.02   0.05    -0.08   0.04  -0.08
     5   6     0.10  -0.08   0.00     0.04   0.06   0.13    -0.02  -0.05   0.06
     6   6     0.01  -0.03  -0.01     0.06   0.02   0.10     0.13  -0.03   0.18
     7   6    -0.01   0.03  -0.06    -0.12  -0.18  -0.01     0.01   0.03  -0.00
     8   6    -0.01   0.02  -0.07    -0.08  -0.14  -0.05     0.09   0.01  -0.15
     9   6    -0.04   0.02  -0.04     0.00  -0.13   0.00     0.07   0.01  -0.15
    10   6    -0.09   0.02   0.04     0.04  -0.02   0.04    -0.02   0.02  -0.00
    11   6    -0.11   0.02   0.08    -0.03   0.07   0.02    -0.09   0.02   0.12
    12   6    -0.07   0.02   0.03    -0.12   0.06  -0.04    -0.02   0.02   0.02
    13   6    -0.02   0.02  -0.05    -0.14  -0.05  -0.08     0.07   0.01  -0.13
    14   1    -0.26   0.01  -0.20     0.04  -0.05  -0.12     0.03   0.04   0.09
    15   1     0.05   0.38  -0.16     0.08  -0.04  -0.14    -0.05  -0.11   0.04
    16   1     0.27   0.07   0.37    -0.04  -0.01   0.05    -0.04  -0.02  -0.27
    17   1     0.26  -0.33   0.14    -0.12  -0.07   0.06    -0.19   0.20  -0.08
    18   1     0.17  -0.11  -0.11     0.02   0.07   0.16    -0.13  -0.12   0.15
    19   1     0.02  -0.03  -0.00     0.23  -0.02   0.04     0.27  -0.19   0.29
    20   1    -0.03  -0.04   0.05     0.04   0.11   0.18     0.15   0.19   0.31
    21   1    -0.01   0.05  -0.08    -0.27  -0.23   0.15    -0.06   0.08  -0.01
    22   1    -0.03   0.06  -0.04    -0.14  -0.28  -0.16    -0.07   0.09   0.02
    23   1    -0.03   0.03  -0.06     0.05  -0.20   0.03     0.09   0.01  -0.19
    24   1    -0.12   0.02   0.07     0.11  -0.01   0.09    -0.05   0.02   0.04
    25   1    -0.15   0.02   0.15    -0.01   0.15   0.06    -0.18   0.03   0.27
    26   1    -0.08   0.01   0.06    -0.17   0.13  -0.06    -0.05   0.02   0.08
    27   1     0.00   0.02  -0.07    -0.22  -0.06  -0.13     0.10   0.01  -0.16
                      7                      8                      9
                      A                      A                      A
 Frequencies --    246.2069               273.7767               358.7149
 Red. masses --      3.0545                 3.4210                 2.0746
 Frc consts  --      0.1091                 0.1511                 0.1573
 IR Inten    --      2.3349                 0.6438                 0.4661
  Atom  AN      X      Y      Z        X      Y      Z        X      Y      Z
     1   8     0.04   0.16  -0.01     0.05  -0.04   0.06     0.00   0.01  -0.00
     2   6     0.03  -0.02   0.12    -0.08   0.09  -0.07     0.00  -0.01   0.02
     3   6    -0.07  -0.00  -0.01    -0.03  -0.07   0.02    -0.01   0.01   0.01
     4   6    -0.08  -0.01   0.04    -0.08  -0.09   0.15     0.01   0.01  -0.01
     5   6    -0.01  -0.04   0.13    -0.16   0.16  -0.11     0.00  -0.02   0.00
     6   6    -0.15  -0.14  -0.11    -0.04   0.16  -0.05    -0.05   0.01  -0.00
     7   6     0.01  -0.02  -0.02    -0.01  -0.00   0.01     0.07   0.18   0.03
     8   6     0.07   0.05  -0.04     0.04  -0.03  -0.04    -0.05  -0.11  -0.01
     9   6     0.06   0.04  -0.08     0.10  -0.03  -0.07     0.01  -0.12   0.00
    10   6    -0.00  -0.00  -0.02     0.06  -0.02   0.01     0.07  -0.02   0.02
    11   6    -0.02  -0.03   0.07     0.00  -0.02   0.11     0.02   0.04   0.03
    12   6     0.05  -0.03   0.02     0.04  -0.02   0.01    -0.04   0.03  -0.03
    13   6     0.11   0.01  -0.05     0.08  -0.04  -0.08    -0.05  -0.09  -0.06
    14   1    -0.18   0.02   0.01    -0.01  -0.19  -0.11    -0.02   0.03   0.03
    15   1    -0.01   0.02  -0.13    -0.05  -0.01   0.06    -0.00   0.01   0.00
    16   1    -0.03   0.01   0.02    -0.27  -0.06   0.47     0.02   0.01  -0.03
    17   1    -0.15  -0.03   0.05     0.13  -0.33   0.15     0.00   0.03  -0.01
    18   1     0.03   0.11   0.18    -0.10   0.09  -0.21     0.02   0.02   0.00
    19   1    -0.37   0.11  -0.29     0.01   0.12  -0.03    -0.19   0.06   0.02
    20   1    -0.23  -0.47  -0.26     0.07   0.24  -0.13    -0.07  -0.08  -0.05
    21   1     0.13  -0.05  -0.07    -0.06  -0.03   0.07     0.11   0.47  -0.32
    22   1    -0.07   0.05   0.02     0.01  -0.07  -0.07     0.25   0.38   0.41
    23   1     0.07   0.07  -0.12     0.13  -0.05  -0.10     0.06  -0.19   0.02
    24   1    -0.05  -0.00  -0.02     0.06  -0.02   0.01     0.15  -0.01   0.05
    25   1    -0.09  -0.06   0.16    -0.06  -0.00   0.22     0.02   0.10   0.07
    26   1     0.06  -0.06   0.05     0.02  -0.01   0.02    -0.08   0.10  -0.06
    27   1     0.17   0.01  -0.05     0.11  -0.04  -0.12    -0.11  -0.10  -0.13
                     10                     11                     12
                      A                      A                      A
 Frequencies --    405.3514               419.2691               436.8685
 Red. masses --      3.4449                 3.0201                 2.9195
 Frc consts  --      0.3335                 0.3128                 0.3283
 IR Inten    --      0.8564                 0.0455                 2.5597
  Atom  AN      X      Y      Z        X      Y      Z        X      Y      Z
     1   8    -0.09  -0.08  -0.05    -0.00   0.00  -0.00     0.21   0.01  -0.01
     2   6     0.07  -0.03  -0.04    -0.00   0.00  -0.00    -0.13   0.09  -0.14
     3   6     0.10   0.04  -0.06     0.00  -0.00  -0.00    -0.05   0.08   0.09
     4   6     0.09   0.04  -0.08     0.00  -0.00   0.00     0.07   0.06  -0.00
     5   6     0.08   0.02   0.02     0.00  -0.00   0.00    -0.06  -0.11  -0.06
     6   6    -0.15   0.11   0.05     0.01  -0.00  -0.00    -0.06  -0.11   0.03
     7   6    -0.16  -0.01   0.17     0.00  -0.01  -0.00    -0.04  -0.03   0.05
     8   6    -0.08   0.01   0.10     0.00   0.01   0.00    -0.02   0.01   0.04
     9   6     0.06  -0.01  -0.05    -0.12   0.02   0.19     0.01   0.01  -0.01
    10   6     0.06  -0.01  -0.05     0.10  -0.01  -0.18     0.00  -0.00  -0.02
    11   6    -0.04  -0.01   0.13    -0.00  -0.00  -0.01    -0.03   0.00   0.02
    12   6     0.04  -0.03  -0.05    -0.11   0.01   0.18     0.01  -0.00  -0.02
    13   6     0.05  -0.02  -0.07     0.11  -0.01  -0.18     0.01   0.01  -0.01
    14   1     0.13   0.07  -0.02     0.00  -0.00  -0.00     0.40   0.05   0.10
    15   1     0.09  -0.00  -0.05     0.00  -0.00  -0.00    -0.28  -0.04   0.55
    16   1     0.16   0.03  -0.18    -0.00  -0.00   0.00     0.15   0.07  -0.10
    17   1     0.00   0.11  -0.07     0.00  -0.00   0.00     0.10   0.17  -0.01
    18   1     0.14   0.10  -0.01    -0.00  -0.00   0.00    -0.07  -0.31  -0.17
    19   1    -0.31   0.24  -0.01     0.02  -0.01  -0.00    -0.11  -0.12   0.08
    20   1    -0.21  -0.10  -0.02     0.00  -0.00   0.00    -0.06  -0.10   0.03
    21   1    -0.24  -0.13   0.34    -0.00  -0.02   0.01     0.02  -0.02   0.02
    22   1    -0.17  -0.16  -0.04     0.00  -0.02  -0.01    -0.07   0.01   0.09
    23   1     0.12  -0.03  -0.13    -0.24   0.04   0.38     0.01   0.02  -0.04
    24   1     0.09  -0.02  -0.13     0.22  -0.02  -0.39     0.01  -0.00  -0.05
    25   1    -0.12   0.00   0.26     0.00  -0.01  -0.02    -0.04  -0.00   0.05
    26   1     0.08  -0.02  -0.12    -0.22   0.02   0.39     0.03  -0.01  -0.04
    27   1     0.12  -0.03  -0.15     0.24  -0.02  -0.38     0.03   0.01  -0.04
                     13                     14                     15
                      A                      A                      A
 Frequencies --    503.7831               537.1391               586.8100
 Red. masses --      3.7673                 2.4216                 3.0093
 Frc consts  --      0.5633                 0.4117                 0.6105
 IR Inten    --      3.4417                 0.3681                 7.4765
  Atom  AN      X      Y      Z        X      Y      Z        X      Y      Z
     1   8    -0.00   0.02   0.01    -0.07  -0.07   0.05     0.03   0.00  -0.06
     2   6     0.01  -0.02   0.04    -0.02   0.15  -0.10     0.02  -0.09   0.01
     3   6    -0.01  -0.03   0.01     0.07   0.01  -0.12    -0.01   0.01   0.07
     4   6    -0.02  -0.01   0.01    -0.06  -0.01   0.05     0.05   0.02  -0.02
     5   6    -0.02   0.02  -0.04     0.05   0.03   0.13    -0.05   0.02  -0.07
     6   6     0.12  -0.05  -0.04     0.00  -0.04   0.01    -0.05   0.06   0.04
     7   6     0.18  -0.09   0.12     0.07  -0.02   0.05     0.04  -0.03   0.20
     8   6    -0.01  -0.03   0.24     0.07  -0.03  -0.03     0.15  -0.05  -0.08
     9   6    -0.06  -0.05  -0.05    -0.02  -0.03  -0.02     0.01  -0.07  -0.06
    10   6    -0.04  -0.03  -0.13    -0.04  -0.02   0.01    -0.08  -0.05   0.06
    11   6    -0.22   0.08   0.03    -0.03   0.03  -0.07    -0.02   0.04  -0.17
    12   6     0.02   0.09  -0.11    -0.02   0.04   0.02    -0.05   0.07   0.07
    13   6    -0.00   0.09  -0.01     0.00   0.03  -0.01     0.05   0.05  -0.05
    14   1    -0.16  -0.02   0.01     0.59  -0.12  -0.22    -0.30   0.08   0.13
    15   1     0.05   0.05  -0.10    -0.10  -0.27   0.20     0.07   0.18  -0.08
    16   1    -0.07  -0.01   0.09    -0.02   0.00   0.03     0.01   0.01   0.01
    17   1     0.05  -0.06   0.01    -0.22  -0.07   0.07     0.16   0.05  -0.04
    18   1    -0.05   0.02   0.01     0.04  -0.02   0.11    -0.04   0.05  -0.06
    19   1     0.10  -0.05  -0.03    -0.15   0.19  -0.17    -0.30   0.16   0.06
    20   1     0.21  -0.03  -0.14    -0.04  -0.31  -0.14     0.03  -0.10  -0.18
    21   1     0.27  -0.08   0.06     0.08   0.00   0.01    -0.08  -0.07   0.31
    22   1     0.29  -0.10   0.16     0.04   0.01   0.09    -0.03  -0.11   0.04
    23   1    -0.03   0.05  -0.25    -0.07   0.01   0.02    -0.13   0.01   0.07
    24   1     0.15  -0.03  -0.26    -0.04  -0.01   0.11    -0.13  -0.02   0.33
    25   1    -0.26   0.08   0.09    -0.02   0.03  -0.09    -0.02   0.05  -0.15
    26   1     0.18  -0.01  -0.26    -0.05   0.01   0.10    -0.15   0.02   0.33
    27   1    -0.01   0.06  -0.25    -0.08   0.02   0.02    -0.15   0.05   0.08
                     16                     17                     18
                      A                      A                      A
 Frequencies --    636.3811               683.0329               716.4437
 Red. masses --      6.2930                 2.9016                 2.6253
 Frc consts  --      1.5016                 0.7976                 0.7939
 IR Inten    --      0.2133                 2.8153                11.3534
  Atom  AN      X      Y      Z        X      Y      Z        X      Y      Z
     1   8     0.00  -0.00  -0.01    -0.01   0.10   0.16     0.03  -0.04  -0.08
     2   6    -0.00  -0.00  -0.00    -0.10   0.13   0.06    -0.02  -0.09  -0.04
     3   6    -0.00   0.00   0.00    -0.10  -0.11  -0.01    -0.11   0.03   0.06
     4   6     0.00   0.00  -0.00     0.09  -0.16  -0.10    -0.03  -0.03   0.02
     5   6    -0.00  -0.00   0.00     0.11  -0.07  -0.04     0.06  -0.00   0.09
     6   6    -0.00  -0.00  -0.01     0.01   0.10  -0.02     0.04   0.12  -0.01
     7   6    -0.02  -0.04  -0.00     0.01   0.03   0.01     0.05   0.04  -0.04
     8   6    -0.05  -0.12  -0.02     0.01  -0.01   0.01     0.07  -0.01  -0.09
     9   6    -0.26  -0.09  -0.15     0.00  -0.02  -0.01    -0.05  -0.02   0.08
    10   6    -0.11   0.32  -0.09    -0.00  -0.01   0.00     0.07  -0.03  -0.11
    11   6     0.05   0.13   0.02    -0.01   0.01  -0.01    -0.06   0.01   0.07
    12   6     0.29   0.12   0.17    -0.00   0.01   0.00     0.07   0.00  -0.11
    13   6     0.11  -0.28   0.09     0.00  -0.00  -0.01    -0.04   0.01   0.07
    14   1     0.00   0.00   0.01    -0.14  -0.25  -0.18     0.01   0.08   0.12
    15   1    -0.00   0.00   0.01    -0.07   0.08  -0.04    -0.21   0.02   0.25
    16   1     0.00   0.00   0.00     0.15  -0.28  -0.50     0.05  -0.01  -0.03
    17   1     0.01  -0.00  -0.00    -0.11   0.24  -0.11    -0.15  -0.00   0.04
    18   1    -0.00   0.00   0.01     0.19  -0.22  -0.23     0.09   0.07   0.10
    19   1     0.01  -0.00  -0.02    -0.10   0.15  -0.02    -0.09   0.26  -0.11
    20   1    -0.00  -0.01  -0.00    -0.04  -0.02  -0.05    -0.02  -0.08  -0.08
    21   1    -0.06  -0.07   0.06    -0.09  -0.06   0.18    -0.08  -0.04   0.13
    22   1    -0.03  -0.09  -0.07     0.04  -0.12  -0.18     0.04  -0.10  -0.24
    23   1    -0.19  -0.21  -0.09    -0.02  -0.02   0.01    -0.20   0.00   0.31
    24   1     0.03   0.34   0.00     0.01  -0.01   0.04     0.00  -0.02   0.06
    25   1    -0.11  -0.27  -0.04    -0.01   0.02   0.01    -0.22   0.04   0.35
    26   1     0.20   0.25   0.11    -0.01   0.01   0.03    -0.03   0.01   0.07
    27   1    -0.03  -0.29   0.01    -0.02  -0.00   0.00    -0.22   0.03   0.33
                     19                     20                     21
                      A                      A                      A
 Frequencies --    721.3371               754.0843               769.5419
 Red. masses --      2.0365                 1.4538                 2.3671
 Frc consts  --      0.6243                 0.4871                 0.8259
 IR Inten    --     18.1034                 6.1692                18.1092
  Atom  AN      X      Y      Z        X      Y      Z        X      Y      Z
     1   8    -0.03   0.03   0.06     0.01  -0.05  -0.04     0.01  -0.01  -0.01
     2   6     0.02   0.08   0.03     0.01   0.04  -0.08    -0.01  -0.01  -0.01
     3   6     0.11  -0.03  -0.04     0.06  -0.02   0.07    -0.03   0.00   0.02
     4   6     0.03   0.03  -0.02    -0.01   0.00   0.07    -0.01  -0.01   0.00
     5   6    -0.06   0.01  -0.09    -0.02   0.04   0.03     0.03   0.01   0.02
     6   6    -0.04  -0.10   0.02     0.03  -0.03   0.03     0.08  -0.01  -0.03
     7   6    -0.04  -0.02   0.04     0.02  -0.01   0.01     0.06  -0.03   0.07
     8   6     0.04  -0.00  -0.07     0.00   0.01  -0.04    -0.12   0.03   0.10
     9   6    -0.03   0.01   0.04    -0.01   0.03   0.02     0.04   0.10  -0.06
    10   6     0.05  -0.00  -0.09    -0.00   0.03  -0.00    -0.00   0.12  -0.01
    11   6    -0.02   0.00   0.03     0.01  -0.01   0.04     0.12  -0.04  -0.04
    12   6     0.06  -0.01  -0.09    -0.02  -0.02  -0.01    -0.08  -0.08  -0.04
    13   6    -0.02   0.01   0.04    -0.03  -0.02   0.01    -0.02  -0.07  -0.10
    14   1    -0.05  -0.08  -0.11    -0.36  -0.21  -0.17    -0.01  -0.00   0.02
    15   1     0.21   0.01  -0.24     0.17   0.44  -0.09    -0.05   0.02   0.06
    16   1    -0.06  -0.00   0.03    -0.16  -0.22  -0.29    -0.02  -0.02   0.01
    17   1     0.15   0.02  -0.03    -0.07   0.43   0.04    -0.02  -0.02   0.01
    18   1    -0.10  -0.07  -0.09    -0.11  -0.14   0.02    -0.00   0.00   0.05
    19   1    -0.01  -0.18   0.10    -0.07   0.13  -0.11     0.03   0.07  -0.10
    20   1     0.02   0.01   0.03    -0.01  -0.21  -0.07     0.11  -0.09  -0.12
    21   1     0.03   0.05  -0.08     0.01   0.01  -0.01     0.09  -0.03   0.06
    22   1    -0.09   0.09   0.17    -0.02   0.03   0.04     0.15  -0.06   0.08
    23   1    -0.20   0.03   0.32     0.04   0.01  -0.03    -0.00   0.06   0.09
    24   1    -0.11   0.01   0.17     0.03   0.02  -0.13    -0.37   0.13   0.31
    25   1    -0.25   0.02   0.40     0.08  -0.02  -0.09    -0.17  -0.01   0.44
    26   1    -0.11   0.01   0.20     0.03   0.00  -0.14    -0.40   0.07   0.32
    27   1    -0.21   0.03   0.36     0.02  -0.02  -0.04    -0.07  -0.05   0.10
                     22                     23                     24
                      A                      A                      A
 Frequencies --    781.9634               866.9984               875.2680
 Red. masses --      2.0746                 1.2658                 1.6992
 Frc consts  --      0.7474                 0.5606                 0.7669
 IR Inten    --      3.8855                 0.1724                 3.1479
  Atom  AN      X      Y      Z        X      Y      Z        X      Y      Z
     1   8     0.00  -0.03  -0.03    -0.00  -0.00  -0.00    -0.00  -0.01  -0.01
     2   6     0.01   0.00  -0.04    -0.00  -0.00  -0.00     0.01  -0.01  -0.00
     3   6     0.01   0.01   0.03    -0.01  -0.00   0.00    -0.07   0.01   0.00
     4   6    -0.01  -0.01   0.06     0.01  -0.01  -0.01     0.06  -0.08  -0.04
     5   6     0.01   0.01   0.06     0.00   0.02   0.01     0.02   0.09   0.04
     6   6    -0.06   0.01  -0.03    -0.01   0.00  -0.00    -0.05  -0.00  -0.04
     7   6    -0.07  -0.00  -0.11    -0.01  -0.02   0.02    -0.04  -0.11   0.09
     8   6    -0.03  -0.01   0.12     0.01  -0.00  -0.02     0.04  -0.01  -0.05
     9   6     0.03  -0.07  -0.03     0.03   0.00  -0.05     0.01   0.04   0.00
    10   6    -0.00  -0.09   0.01     0.04   0.00  -0.07    -0.02   0.04   0.00
    11   6    -0.02   0.02  -0.10     0.01  -0.00  -0.00    -0.02  -0.01   0.05
    12   6     0.07   0.06   0.04    -0.04   0.00   0.06    -0.01  -0.02  -0.02
    13   6     0.08   0.06  -0.01    -0.04   0.01   0.07     0.01   0.01  -0.02
    14   1    -0.09  -0.09  -0.10     0.00  -0.01  -0.00     0.04  -0.02  -0.02
    15   1     0.02   0.20   0.04    -0.02   0.01   0.03    -0.15   0.09   0.20
    16   1    -0.02  -0.13  -0.22     0.01  -0.02  -0.02     0.06  -0.11  -0.13
    17   1    -0.17   0.26   0.05     0.01   0.00  -0.01    -0.01   0.03  -0.04
    18   1     0.09   0.04  -0.02     0.02   0.06   0.01     0.19   0.33  -0.00
    19   1     0.24  -0.15  -0.01     0.04  -0.01  -0.01     0.27  -0.14  -0.06
    20   1    -0.12   0.26   0.21     0.01   0.03  -0.01     0.09   0.27  -0.01
    21   1     0.08   0.05  -0.26     0.02   0.02  -0.04     0.15   0.11  -0.27
    22   1     0.04   0.07   0.06    -0.00   0.02   0.08     0.04   0.12   0.45
    23   1    -0.04  -0.02   0.01    -0.23   0.04   0.38    -0.03   0.06   0.06
    24   1    -0.07  -0.06   0.33    -0.28   0.03   0.43     0.03   0.03  -0.19
    25   1    -0.23   0.04   0.24    -0.02  -0.00   0.04     0.13  -0.05  -0.22
    26   1    -0.02  -0.02   0.35     0.25  -0.03  -0.42    -0.02  -0.01  -0.01
    27   1     0.01   0.06   0.03     0.26  -0.03  -0.43    -0.12   0.03   0.22
                     25                     26                     27
                      A                      A                      A
 Frequencies --    904.6399               934.4278               936.7781
 Red. masses --      1.9003                 1.5008                 3.0339
 Frc consts  --      0.9163                 0.7721                 1.5687
 IR Inten    --      2.2163                 4.7491                 5.3199
  Atom  AN      X      Y      Z        X      Y      Z        X      Y      Z
     1   8     0.00   0.01  -0.01    -0.00   0.00  -0.00     0.01  -0.01  -0.02
     2   6     0.01  -0.04   0.04     0.00  -0.02   0.01    -0.09  -0.06   0.01
     3   6     0.07   0.06  -0.04    -0.00   0.00  -0.02    -0.09  -0.21  -0.10
     4   6    -0.08   0.03   0.14     0.02  -0.00   0.02     0.17   0.22   0.09
     5   6     0.00  -0.11  -0.05    -0.02   0.01   0.01    -0.07   0.03   0.10
     6   6    -0.08   0.05  -0.06    -0.05   0.02   0.01    -0.02   0.04   0.00
     7   6     0.08  -0.00   0.03     0.04  -0.04   0.02     0.04  -0.01  -0.03
     8   6     0.03  -0.01  -0.01     0.05  -0.01  -0.06     0.00  -0.00   0.02
     9   6     0.01   0.02  -0.02    -0.04   0.02   0.07     0.01   0.01  -0.01
    10   6    -0.00   0.04  -0.01    -0.02   0.03   0.02    -0.00   0.01  -0.01
    11   6    -0.01  -0.00   0.04     0.05  -0.01  -0.08    -0.01   0.00   0.02
    12   6    -0.04  -0.02  -0.01    -0.00  -0.01  -0.03    -0.01  -0.01  -0.00
    13   6    -0.01  -0.03  -0.02    -0.06   0.00   0.09     0.01  -0.01  -0.02
    14   1     0.12   0.02  -0.07     0.05  -0.02  -0.04    -0.01  -0.33  -0.22
    15   1     0.07  -0.06  -0.07    -0.03  -0.01   0.03    -0.05  -0.39  -0.25
    16   1     0.08  -0.02  -0.20     0.06  -0.02  -0.08     0.29   0.23  -0.03
    17   1    -0.43   0.21   0.16    -0.04   0.08   0.02     0.28   0.39   0.07
    18   1     0.25  -0.05  -0.30     0.09   0.10  -0.06    -0.05   0.03   0.06
    19   1    -0.00  -0.23   0.24     0.00  -0.07   0.08     0.04   0.06  -0.04
    20   1     0.04   0.35   0.03     0.03   0.13  -0.01    -0.02   0.07   0.02
    21   1     0.11  -0.10   0.13     0.05  -0.01  -0.02     0.07  -0.02  -0.04
    22   1     0.14  -0.13  -0.10     0.01  -0.00   0.05     0.10  -0.04  -0.03
    23   1    -0.09   0.03   0.14     0.23  -0.02  -0.37    -0.04   0.02   0.07
    24   1    -0.05   0.04  -0.01     0.08   0.01  -0.20    -0.03   0.01   0.02
    25   1     0.12  -0.01  -0.16    -0.29   0.02   0.49     0.06  -0.01  -0.09
    26   1    -0.03   0.01  -0.11    -0.09   0.01   0.09    -0.01   0.00  -0.01
    27   1    -0.10  -0.02   0.10     0.27  -0.04  -0.47    -0.06   0.00   0.08
                     28                     29                     30
                      A                      A                      A
 Frequencies --    971.5172               973.4324               995.7127
 Red. masses --      1.7010                 1.3512                 1.5143
 Frc consts  --      0.9459                 0.7544                 0.8846
 IR Inten    --      0.8938                 1.7457                 1.4766
  Atom  AN      X      Y      Z        X      Y      Z        X      Y      Z
     1   8    -0.01   0.01   0.01    -0.00   0.00   0.00     0.00  -0.01   0.01
     2   6     0.01  -0.00   0.01     0.00   0.00   0.00     0.00   0.04  -0.03
     3   6     0.03   0.04  -0.02     0.01   0.01  -0.00     0.02  -0.01   0.03
     4   6     0.05  -0.06  -0.07     0.01  -0.01  -0.02     0.00  -0.02  -0.03
     5   6    -0.08   0.02   0.05    -0.02  -0.00   0.01    -0.02   0.00   0.03
     6   6    -0.10  -0.01   0.05    -0.02  -0.00   0.01    -0.07   0.07   0.07
     7   6     0.12   0.03  -0.07     0.03   0.01  -0.02     0.05  -0.09  -0.05
     8   6     0.02   0.00   0.03    -0.00   0.00   0.02     0.02  -0.02   0.01
     9   6    -0.01  -0.00   0.02     0.04  -0.01  -0.08    -0.01   0.02   0.05
    10   6     0.01   0.02  -0.03    -0.03   0.00   0.04     0.02   0.03  -0.06
    11   6     0.00   0.01   0.00    -0.02   0.00   0.04    -0.04  -0.00   0.04
    12   6    -0.05  -0.02   0.01     0.04  -0.01  -0.09     0.01  -0.01  -0.04
    13   6     0.01  -0.03  -0.04    -0.04  -0.00   0.06    -0.00   0.01   0.01
    14   1     0.11  -0.11  -0.17     0.03  -0.03  -0.05    -0.14   0.21   0.26
    15   1    -0.07   0.26   0.23    -0.01   0.07   0.06     0.11  -0.11  -0.17
    16   1    -0.14  -0.13   0.00    -0.05  -0.03   0.01     0.17   0.09   0.01
    17   1     0.29   0.01  -0.10     0.09  -0.00  -0.03    -0.11  -0.15  -0.01
    18   1    -0.15   0.28   0.30    -0.06   0.06   0.09    -0.05  -0.27  -0.11
    19   1    -0.11  -0.14   0.22    -0.03  -0.03   0.05    -0.03   0.14  -0.05
    20   1    -0.12   0.12   0.17    -0.04   0.02   0.05    -0.16  -0.03   0.11
    21   1     0.15  -0.18   0.13     0.04  -0.05   0.04     0.10   0.01  -0.19
    22   1     0.09  -0.13  -0.29     0.02  -0.04  -0.09     0.20  -0.03   0.11
    23   1     0.07  -0.01  -0.12    -0.27   0.03   0.42     0.18   0.00  -0.25
    24   1    -0.08   0.03   0.14     0.14  -0.01  -0.21    -0.25   0.06   0.31
    25   1     0.02   0.04  -0.00     0.15  -0.00  -0.22     0.15  -0.06  -0.30
    26   1     0.03   0.01  -0.18    -0.31   0.04   0.48    -0.14  -0.01   0.23
    27   1    -0.13  -0.02   0.16     0.22  -0.04  -0.37     0.05  -0.00  -0.10
                     31                     32                     33
                      A                      A                      A
 Frequencies --    999.8611              1018.0716              1042.3889
 Red. masses --      1.4052                 6.2767                 3.0048
 Frc consts  --      0.8277                 3.8330                 1.9237
 IR Inten    --      0.6650                 0.1075                42.4291
  Atom  AN      X      Y      Z        X      Y      Z        X      Y      Z
     1   8    -0.00   0.00  -0.00    -0.00   0.00  -0.00    -0.02  -0.05  -0.01
     2   6     0.00  -0.03   0.02     0.00   0.00   0.00     0.16   0.16  -0.11
     3   6    -0.02   0.01  -0.03     0.00   0.00  -0.00    -0.16  -0.11   0.10
     4   6    -0.00   0.01   0.03     0.01  -0.01  -0.00    -0.06   0.06  -0.01
     5   6     0.02   0.00  -0.03    -0.01  -0.00   0.01     0.14   0.05  -0.01
     6   6     0.05  -0.05  -0.05    -0.01   0.01   0.01    -0.08  -0.10  -0.01
     7   6    -0.04   0.05   0.05     0.02  -0.02  -0.01     0.04   0.07   0.03
     8   6    -0.01   0.02  -0.02     0.02  -0.02   0.02     0.04   0.02   0.01
     9   6    -0.04  -0.01   0.05    -0.28  -0.25  -0.15    -0.03  -0.04  -0.01
    10   6     0.04  -0.03  -0.06     0.01   0.07  -0.01     0.01   0.01   0.00
    11   6    -0.02   0.01   0.05     0.29  -0.15   0.19    -0.00   0.03  -0.00
    12   6     0.03   0.01  -0.03    -0.05  -0.05  -0.02    -0.05  -0.04  -0.03
    13   6    -0.01  -0.00   0.02    -0.01   0.40  -0.04     0.00  -0.04   0.01
    14   1     0.11  -0.15  -0.18     0.00   0.01   0.01    -0.30   0.01   0.21
    15   1    -0.09   0.06   0.12     0.00   0.00  -0.00    -0.07  -0.16  -0.10
    16   1    -0.11  -0.07  -0.02     0.02  -0.00  -0.01     0.05   0.19   0.15
    17   1     0.05   0.12   0.02    -0.00  -0.00  -0.00     0.12  -0.01  -0.02
    18   1     0.07   0.20   0.04    -0.01  -0.01  -0.00     0.28   0.10  -0.13
    19   1     0.02  -0.10   0.03    -0.03   0.01   0.02     0.06  -0.30   0.15
    20   1     0.15   0.02  -0.12    -0.01   0.00   0.01    -0.14   0.12   0.23
    21   1    -0.10   0.01   0.14    -0.02   0.02  -0.02     0.21  -0.20   0.21
    22   1    -0.17   0.04  -0.04     0.02  -0.01  -0.00    -0.20  -0.00  -0.19
    23   1     0.21  -0.05  -0.36    -0.26  -0.28  -0.18    -0.02  -0.04  -0.02
    24   1    -0.22   0.00   0.43     0.03   0.06   0.04     0.11   0.03   0.07
    25   1     0.21   0.00  -0.31     0.31  -0.15   0.19     0.04   0.13   0.01
    26   1    -0.15   0.04   0.27    -0.01  -0.07  -0.02    -0.08  -0.00  -0.04
    27   1     0.10  -0.01  -0.15     0.02   0.42   0.03     0.07  -0.04   0.02
                     34                     35                     36
                      A                      A                      A
 Frequencies --   1059.9717              1072.4444              1098.7710
 Red. masses --      2.2096                 1.8447                 2.6200
 Frc consts  --      1.4627                 1.2500                 1.8637
 IR Inten    --      1.4182                 1.4497                44.5159
  Atom  AN      X      Y      Z        X      Y      Z        X      Y      Z
     1   8     0.00   0.01   0.00    -0.00   0.00   0.00    -0.05  -0.01  -0.00
     2   6    -0.02  -0.02   0.01     0.05   0.01   0.01     0.26   0.04   0.03
     3   6     0.01   0.01  -0.01    -0.05  -0.01   0.02    -0.11   0.03  -0.04
     4   6    -0.01   0.01   0.00    -0.08   0.07   0.01     0.03  -0.08   0.07
     5   6     0.01  -0.01  -0.01     0.12  -0.08  -0.09    -0.16   0.03  -0.04
     6   6     0.02   0.01  -0.00    -0.02   0.05   0.05     0.04  -0.03   0.05
     7   6    -0.04   0.00  -0.01    -0.01  -0.08  -0.03     0.02  -0.00  -0.06
     8   6     0.02  -0.02   0.02    -0.00  -0.06  -0.01    -0.05  -0.01   0.01
     9   6     0.02  -0.08   0.02     0.05   0.04   0.03     0.04   0.00   0.01
    10   6     0.05   0.18   0.02    -0.02   0.04  -0.01     0.00   0.02   0.00
    11   6    -0.11   0.06  -0.07    -0.01  -0.05  -0.00    -0.02  -0.02  -0.01
    12   6    -0.08  -0.16  -0.04     0.04   0.03   0.02     0.03   0.01   0.02
    13   6     0.07   0.04   0.04    -0.02   0.05  -0.01    -0.01   0.04  -0.02
    14   1     0.04  -0.05  -0.07     0.05  -0.27  -0.26     0.14   0.12   0.08
    15   1    -0.00   0.03   0.02    -0.08   0.04   0.09    -0.22  -0.11   0.17
    16   1    -0.08  -0.03   0.02    -0.34   0.00   0.18     0.41  -0.01  -0.27
    17   1     0.03   0.01   0.00     0.33   0.11  -0.03     0.06   0.29   0.04
    18   1    -0.03   0.00   0.04     0.06   0.12   0.12    -0.07  -0.07  -0.20
    19   1    -0.00   0.04  -0.03    -0.21   0.05   0.16    -0.26   0.04   0.14
    20   1    -0.00  -0.04  -0.01    -0.14  -0.09   0.10     0.19  -0.14  -0.22
    21   1    -0.08   0.05  -0.04    -0.16   0.14  -0.16    -0.19   0.08  -0.02
    22   1    -0.01   0.02   0.03     0.32  -0.09   0.13    -0.01   0.01  -0.05
    23   1     0.17  -0.33   0.13     0.09  -0.02   0.05     0.07  -0.12   0.13
    24   1     0.38   0.23   0.21    -0.17   0.02  -0.11    -0.04   0.02  -0.03
    25   1    -0.13   0.05  -0.08    -0.08  -0.23  -0.03    -0.08  -0.17  -0.04
    26   1     0.10  -0.48   0.10     0.09  -0.04   0.05     0.10  -0.10   0.07
    27   1     0.35   0.08   0.21    -0.15   0.04  -0.09    -0.09   0.03  -0.02
                     37                     38                     39
                      A                      A                      A
 Frequencies --   1120.6805              1138.5952              1186.3682
 Red. masses --      1.6510                 2.2096                 1.3244
 Frc consts  --      1.2217                 1.6877                 1.0983
 IR Inten    --     11.2380                13.9372                 2.3348
  Atom  AN      X      Y      Z        X      Y      Z        X      Y      Z
     1   8    -0.01   0.01   0.00     0.02   0.01  -0.01    -0.00   0.01  -0.00
     2   6     0.07  -0.01   0.03    -0.10  -0.06   0.02     0.02  -0.06   0.05
     3   6    -0.04   0.03  -0.01    -0.00  -0.00  -0.02    -0.03   0.05  -0.03
     4   6    -0.03  -0.00   0.02     0.04   0.01   0.02     0.00  -0.02   0.03
     5   6    -0.00  -0.04  -0.05     0.07   0.16  -0.09     0.02   0.05  -0.06
     6   6     0.01   0.05   0.04    -0.01  -0.09   0.17    -0.01   0.01   0.03
     7   6    -0.02  -0.08  -0.02     0.05  -0.04  -0.10    -0.00   0.02   0.01
     8   6     0.01   0.03   0.01    -0.03   0.01   0.03     0.06   0.01   0.03
     9   6    -0.08   0.02  -0.05    -0.00   0.00  -0.01     0.02  -0.03   0.01
    10   6     0.02  -0.07   0.01     0.00  -0.01   0.00    -0.02   0.02  -0.02
    11   6     0.03   0.06   0.01    -0.00   0.01   0.00     0.01   0.01   0.01
    12   6    -0.05  -0.02  -0.03     0.00   0.00  -0.00    -0.00  -0.02  -0.00
    13   6     0.06  -0.06   0.04     0.01  -0.01  -0.00    -0.02  -0.01  -0.01
    14   1     0.10  -0.07  -0.11     0.00   0.04   0.03     0.13   0.01  -0.06
    15   1    -0.08  -0.03   0.07    -0.01  -0.06  -0.03    -0.07  -0.13   0.01
    16   1    -0.05  -0.02  -0.01    -0.13  -0.11  -0.05    -0.21  -0.15  -0.01
    17   1     0.17   0.13  -0.01    -0.36  -0.06   0.07     0.13   0.15   0.00
    18   1    -0.06  -0.10  -0.02     0.42   0.39  -0.35    -0.09  -0.31  -0.16
    19   1    -0.05   0.14  -0.04    -0.32   0.03   0.21     0.26   0.16  -0.32
    20   1    -0.05  -0.09   0.01     0.05  -0.27  -0.04    -0.26  -0.10   0.26
    21   1     0.00   0.05  -0.18    -0.05  -0.01  -0.06     0.35  -0.18   0.01
    22   1     0.08   0.01   0.15    -0.15   0.09  -0.02    -0.28   0.13  -0.00
    23   1    -0.26   0.31  -0.18    -0.04   0.02   0.04     0.07  -0.11   0.05
    24   1     0.17  -0.05   0.11     0.02  -0.01   0.02    -0.12   0.01  -0.08
    25   1     0.18   0.44   0.08     0.01   0.03   0.00     0.01   0.01   0.01
    26   1    -0.16   0.15  -0.11    -0.01   0.01  -0.00     0.00  -0.03   0.00
    27   1     0.38  -0.03   0.24     0.03   0.00   0.06    -0.21  -0.04  -0.13
                     40                     41                     42
                      A                      A                      A
 Frequencies --   1192.1820              1215.0784              1215.9493
 Red. masses --      1.0987                 1.1861                 1.3627
 Frc consts  --      0.9201                 1.0318                 1.1871
 IR Inten    --      0.0129                 0.4243                 0.6365
  Atom  AN      X      Y      Z        X      Y      Z        X      Y      Z
     1   8     0.00  -0.00   0.00     0.00  -0.00  -0.00    -0.01   0.01   0.01
     2   6    -0.00   0.01  -0.01    -0.01   0.00  -0.01     0.05  -0.02   0.03
     3   6     0.00  -0.01   0.01    -0.01   0.03   0.02     0.02  -0.11  -0.08
     4   6    -0.00   0.00  -0.00    -0.01  -0.02   0.00     0.02   0.08  -0.01
     5   6    -0.00  -0.01   0.01     0.00  -0.00  -0.00    -0.00   0.02   0.00
     6   6     0.00  -0.00  -0.00    -0.00   0.00   0.01     0.01  -0.00  -0.02
     7   6    -0.00  -0.00  -0.00     0.01  -0.01   0.00    -0.01   0.01   0.01
     8   6    -0.01  -0.01  -0.00    -0.02   0.02  -0.01     0.02  -0.01   0.00
     9   6    -0.00  -0.00  -0.00    -0.03   0.05  -0.02    -0.01   0.02  -0.01
    10   6    -0.03  -0.01  -0.02     0.05  -0.00   0.03     0.01   0.01   0.01
    11   6     0.02   0.06   0.01     0.00  -0.00   0.00     0.00  -0.00   0.00
    12   6     0.02  -0.04   0.02     0.03  -0.04   0.02     0.00  -0.01   0.00
    13   6    -0.00  -0.00  -0.00    -0.05  -0.01  -0.03    -0.01  -0.00  -0.00
    14   1    -0.02  -0.00   0.01     0.04  -0.02  -0.03    -0.11   0.08   0.11
    15   1     0.01   0.02  -0.00     0.06  -0.14  -0.15    -0.23   0.47   0.52
    16   1     0.04   0.02  -0.00     0.02  -0.02  -0.03    -0.13   0.04   0.09
    17   1    -0.02  -0.02   0.00     0.09   0.06  -0.01    -0.28  -0.18   0.04
    18   1     0.01   0.05   0.03     0.01   0.07   0.04    -0.02  -0.28  -0.17
    19   1    -0.04  -0.02   0.05     0.01   0.01  -0.01    -0.02  -0.02   0.01
    20   1     0.04   0.01  -0.04     0.02   0.00  -0.02    -0.09  -0.02   0.09
    21   1    -0.06   0.03  -0.01     0.06  -0.02  -0.01    -0.04   0.03  -0.00
    22   1     0.04  -0.02   0.00    -0.01  -0.00   0.00     0.08  -0.05  -0.01
    23   1     0.05  -0.10   0.04    -0.21   0.35  -0.16    -0.10   0.17  -0.08
    24   1    -0.39  -0.05  -0.23     0.45   0.05   0.27     0.13   0.02   0.08
    25   1     0.25   0.62   0.11    -0.00  -0.02  -0.00     0.01   0.01   0.00
    26   1     0.25  -0.41   0.18     0.23  -0.37   0.17     0.06  -0.12   0.05
    27   1    -0.13  -0.02  -0.08    -0.40  -0.05  -0.24    -0.15  -0.02  -0.09
                     43                     44                     45
                      A                      A                      A
 Frequencies --   1231.6703              1235.4830              1257.6587
 Red. masses --      2.1721                 1.2827                 1.4387
 Frc consts  --      1.9414                 1.1536                 1.3407
 IR Inten    --      0.2826                 2.9892                 1.9552
  Atom  AN      X      Y      Z        X      Y      Z        X      Y      Z
     1   8     0.00  -0.01  -0.00    -0.00   0.00  -0.00     0.00   0.01   0.02
     2   6    -0.02   0.02  -0.01     0.02  -0.01   0.01    -0.03   0.02  -0.02
     3   6    -0.01   0.02  -0.01     0.01  -0.00   0.08     0.05  -0.06  -0.08
     4   6     0.04  -0.03   0.03    -0.05   0.02  -0.05    -0.07  -0.00   0.02
     5   6    -0.00   0.03  -0.01    -0.02  -0.02  -0.02     0.01  -0.09   0.02
     6   6     0.04  -0.04  -0.05     0.00   0.02   0.03    -0.00   0.05   0.03
     7   6    -0.09   0.05  -0.04    -0.01  -0.00  -0.04     0.00  -0.02  -0.04
     8   6     0.18  -0.13   0.13     0.06  -0.01   0.06     0.04   0.02   0.05
     9   6     0.02   0.02   0.01     0.01  -0.01   0.01     0.01  -0.02   0.00
    10   6    -0.01   0.07  -0.01    -0.01   0.02  -0.01    -0.01   0.01  -0.01
    11   6     0.01  -0.01   0.01     0.01   0.00   0.00     0.00   0.01   0.00
    12   6    -0.07  -0.02  -0.04    -0.02  -0.01  -0.01    -0.01  -0.01  -0.00
    13   6     0.04  -0.01   0.02    -0.00  -0.01  -0.00    -0.00  -0.01  -0.01
    14   1    -0.01   0.16   0.14     0.05  -0.42  -0.37    -0.14   0.32   0.31
    15   1     0.03  -0.18  -0.14     0.04   0.18   0.07    -0.03   0.16   0.14
    16   1    -0.07  -0.14  -0.07     0.47   0.34   0.02    -0.01   0.02  -0.00
    17   1    -0.04   0.09   0.03    -0.19  -0.23  -0.02     0.42   0.21  -0.04
    18   1    -0.09   0.11   0.15     0.02   0.07  -0.01     0.20   0.20  -0.01
    19   1    -0.09  -0.08   0.08     0.02   0.09  -0.07    -0.02   0.10  -0.01
    20   1    -0.12  -0.03   0.14     0.08  -0.01  -0.09     0.24   0.06  -0.26
    21   1    -0.49   0.24  -0.01     0.05  -0.02  -0.06     0.09  -0.03  -0.09
    22   1     0.01  -0.01  -0.08    -0.31   0.16   0.02    -0.40   0.21   0.05
    23   1    -0.19   0.40  -0.16    -0.03   0.05  -0.01    -0.00  -0.01   0.01
    24   1    -0.15   0.06  -0.09    -0.03   0.02  -0.02    -0.00   0.01  -0.00
    25   1     0.02   0.02   0.01    -0.01  -0.03  -0.00    -0.01  -0.02  -0.00
[...]
 0.00023957,0.00012041,0.00018540,-0.00027671,-0.00019707,-0.00005510,0
 .00038550,0.00002947,-0.00002177,0.00007695,0.00000678,0.00006117,0.00
 007484,-0.00007724,0.00009856,0.00057507,0.00001424,0.00010593,0.00015
 795,-0.00071274,-0.00376802,-0.00383251,0.00127423,-0.00753540,0.01755
 021,-0.00709880,0.09606225,0.00141600,-0.00043417,0.00031868,-0.002025
 75,0.00191982,-0.00017791,-0.00006194,-0.00027002,-0.00026631,0.000895
 42,0.00079954,0.00032424,-0.00158646,0.00499996,-0.02128101,-0.0209076
 8,0.08954175,-0.26254668,-0.00048494,0.00209903,-0.00491888,0.00108814
 ,0.00055386,0.00110540,-0.00007262,0.00010504,0.00018268,-0.00012803,0
 .00008655,-0.00003679,0.00005822,-0.00000338,-0.00005523,-0.00004832,-
 0.00008214,-0.00002732,0.00020705,-0.00008933,-0.00011699,-0.00011900,
 0.00002653,0.00010300,-0.00000761,-0.00012353,0.00004667,-0.00070656,-
 0.00071534,0.00072749,-0.00010652,0.00015926,0.00037973,-0.00014775,-0
 .00365089,-0.00205431,-0.00066025,0.00037722,0.00001964,0.02307531,-0.
 09541420,0.28750131,0.00155207,0.00187433,0.00094281,-0.00251012,-0.00
 090090,-0.00079309,0.00006636,-0.00002423,-0.00008419,0.00026656,-0.00
 017589,0.00024247,0.00084060,0.00092814,0.00033744,-0.02509935,0.01398
 258,-0.00084818,-0.22459656,0.12490211,-0.01605474,0.00088882,-0.00027
 789,0.00056991,0.00046519,-0.00064977,0.00148847,0.00015970,0.00029256
 ,-0.00032768,0.00031036,-0.00032480,-0.00015151,-0.00009508,-0.0001495
 0,0.00068123,0.00052527,0.00006045,-0.00021759,0.00005460,-0.00001031,
 -0.00000274,0.00004258,-0.00000562,-0.00000972,0.00003393,0.00008849,-
 0.00006986,0.00011654,0.00009640,-0.00002349,0.00001237,-0.00005435,-0
 .00008811,-0.00345146,-0.00395803,0.00113911,0.00113408,0.00011945,0.0
 0020817,0.24618919,0.00162915,-0.00131249,0.00020248,-0.00219925,-0.00
 013782,-0.00044499,0.00008008,-0.00001957,-0.00000658,0.00020293,0.000
 01038,0.00016539,0.00054496,0.00104255,-0.00010200,-0.01849701,0.01171
 086,-0.00084519,0.12634241,-0.13652885,0.00845827,0.01137444,-0.010474
 51,0.00211464,-0.00016633,0.00045771,-0.00200116,-0.00033842,-0.000342
 02,0.00018273,-0.00007177,0.00018654,-0.00006403,0.00025666,-0.0006095
 0,-0.00019862,0.00013926,-0.00005699,0.00323887,0.00005870,0.00000689,
 0.00000256,0.00003084,0.00000616,-0.00000363,0.00003363,0.00001972,-0.
 00004982,0.00008240,0.00007690,0.00000900,0.00004697,-0.00002445,0.000
 00373,-0.00443063,-0.00196357,0.00071658,0.00084584,0.00078289,-0.0002
 4950,-0.13367526,0.14869904,0.00042687,0.00018088,-0.00023215,-0.00059
 850,-0.00031370,0.00025155,0.00014780,0.00008792,-0.00005269,0.0000389
 9,0.00001738,-0.00001546,-0.00072816,0.00034723,0.00008885,0.00479013,
 -0.00324350,0.00027252,-0.01289040,0.00640164,-0.05385090,-0.02537838,
 0.01919382,-0.00318368,-0.00073385,0.00135059,0.00150114,-0.00005554,0
 .00007383,0.00008236,0.00000218,-0.00013164,-0.00015112,-0.00027574,0.
 00135985,0.00070245,0.00072134,0.00118521,-0.00543770,0.00000703,0.000
 00752,0.00000229,0.00004016,0.00004611,-0.00000996,0.00004028,-0.00001
 045,-0.00001682,0.00003015,0.00000511,-0.00001008,-0.00001508,0.000010
 63,-0.00003822,0.00097622,0.00116502,0.00074670,0.00009380,-0.00047670
 ,0.00006549,0.01246263,-0.01353153,0.05818669,0.00115884,0.00071651,0.
 00012709,-0.00157845,0.00013962,0.00016393,0.00000344,-0.00020808,0.00
 021159,0.00023213,-0.00066771,-0.00122596,-0.00449509,-0.00270436,0.00
 259243,-0.00373404,-0.02250228,-0.02048780,-0.04947705,-0.00436611,-0.
 01088848,-0.00038119,-0.00056208,0.00078650,0.00030828,0.00004095,0.00
 035471,-0.00007680,-0.00031066,0.00034456,-0.00010736,0.00011533,-0.00
 009657,-0.00018368,-0.00023125,0.00012006,0.00049163,0.00001735,-0.000
 69447,0.00001666,-0.00000815,-0.00002565,0.00010515,-0.00012037,-0.000
 04273,0.00003448,0.00005979,0.00004173,-0.00013958,-0.00026344,-0.0000
 0154,0.00002367,0.00034950,0.00006764,0.00113319,0.00089939,-0.0006253
 1,0.00117421,0.00065581,0.00012385,0.00304646,0.01787039,0.02073804,0.
 05206137,0.00009212,-0.00069825,-0.00025562,0.00026289,0.00077410,0.00
 035027,-0.00007855,-0.00020877,0.00021904,0.00010368,-0.00017525,-0.00
 111773,-0.00384424,-0.00088680,0.00230656,-0.00145211,-0.01455435,-0.0
 1358387,-0.00500930,-0.17027713,-0.12830843,0.00107081,0.01134942,0.01
 342050,0.00043541,-0.00103470,0.00125867,-0.00053698,-0.00040130,0.000
 55705,-0.00022710,0.00037490,0.00045226,0.00006787,0.00055024,-0.00059
 039,-0.00004391,0.00024225,0.00125823,0.00000595,-0.00001129,-0.000025
 69,0.00003580,-0.00011819,-0.00001587,0.00000503,0.00002758,0.00004702
 ,-0.00020200,-0.00027803,0.00003231,-0.00000497,0.00018120,0.00002492,
 -0.00003068,0.00106083,0.00016881,0.00054138,0.00007096,0.00028867,-0.
 00170353,-0.01255809,-0.01322757,0.01092972,0.18655812,-0.00016654,0.0
 0003071,0.00013406,0.00021931,-0.00010668,-0.00014720,-0.00001913,-0.0
 0002607,-0.00013888,0.00015953,0.00020217,0.00030120,0.00097855,0.0009
 4570,0.00079241,0.00034857,0.00438607,0.00434789,-0.01091540,-0.127611
 88,-0.18176966,0.00054336,-0.01909885,-0.02429165,-0.00185156,0.003093
 97,-0.00376596,0.00146405,-0.00021297,-0.00013621,-0.00028837,0.000199
 63,0.00004796,0.00060994,0.00043828,-0.00031696,0.00180804,-0.00155357
 ,0.00171714,0.00000407,-0.00002076,0.00000505,-0.00000612,0.00003188,-
 0.00000032,-0.00001125,-0.00003117,-0.00001345,0.00005041,0.00005890,-
 0.00001693,0.00015280,0.00012737,0.00007126,-0.00037879,-0.00011645,0.
 00009165,-0.00037861,-0.00006279,0.00073285,0.00101781,0.00188269,0.00
 209770,0.00835921,0.13688724,0.20033525,0.00065286,0.00061063,-0.00066
 916,-0.00132853,-0.00068522,0.00032998,0.00010242,0.00002433,0.0002372
 4,-0.00000914,-0.00004435,-0.00017599,-0.00005236,0.00004354,0.0001567
 0,0.00006449,0.00005696,0.00088776,-0.00212553,-0.00209536,-0.00174459
 ,-0.00510818,0.01419077,-0.00342209,-0.12252732,0.13238015,-0.01289553
 ,0.00272444,-0.00069126,0.00080830,0.00517992,0.00228333,0.00125606,-0
 .00008467,-0.00042352,0.00037197,0.00309580,0.00267433,0.00402410,0.00
 005460,0.00002228,-0.00000517,0.00001020,-0.00001119,-0.00002656,0.000
 06667,0.00006333,-0.00004679,0.00003979,0.00000877,-0.00000009,-0.0003
 4122,0.00015325,-0.00011127,0.00005529,-0.00005339,-0.00009641,-0.0001
 7727,-0.00018765,-0.00000121,0.00017716,-0.00001939,0.00044397,0.00031
 481,0.00000349,-0.00038301,0.12216470,0.00057349,-0.00070003,-0.000205
 82,-0.00108827,0.00006965,0.00013056,0.00009553,0.00002153,0.00018684,
 0.00001482,0.00004466,0.00003328,0.00005390,-0.00017918,-0.00015276,0.
 00007284,0.00023877,0.00029759,-0.00198734,-0.00114347,0.00071908,0.00
 646921,-0.00694437,0.00253563,0.13332355,-0.24963554,0.03099718,0.0068
 5373,-0.00774993,-0.00024003,0.00199632,0.00259405,0.00342749,-0.00039
 595,0.00045352,-0.00022360,0.00308699,0.00224619,-0.00139045,0.0000595
 5,0.00002363,-0.00001176,-0.00000983,-0.00002027,-0.00000883,0.0000034
 7,-0.00000752,-0.00000406,0.00001048,-0.00001420,-0.00000637,0.0000013
 9,-0.00000269,0.00004969,-0.00007937,-0.00006202,-0.00000109,-0.000076
 30,-0.00005882,0.00001974,-0.00027066,0.00075675,-0.00065847,-0.000129
 50,0.00018782,-0.00017927,-0.14678772,0.26146109,-0.00075250,-0.000149
 11,-0.00004615,0.00103203,0.00007189,0.00002963,-0.00017009,-0.0000811
 0,-0.00006481,-0.00002381,-0.00001038,-0.00006142,0.00009178,0.0001457
 3,0.00013982,0.00001926,0.00004346,0.00005172,0.00016662,-0.00193261,0
 .00125786,0.01348302,-0.02104834,0.00618099,-0.01417918,0.03217617,-0.
 06356277,-0.01611311,0.02471158,0.00102777,0.00193909,0.00258360,-0.00
 444455,0.00034266,-0.00005757,-0.00111922,0.00360532,-0.00084369,-0.00
 366634,-0.00005684,-0.00004183,-0.00000137,-0.00000289,-0.00000234,0.0
 0000166,0.00000073,0.00000893,0.00000459,-0.00003920,-0.00000819,0.000
 00643,-0.00006479,0.00002387,0.00000964,-0.00011931,-0.00002664,0.0000
 2375,-0.00002986,-0.00003840,-0.00000321,-0.00039728,0.00022083,-0.000
 65051,-0.00014720,0.00019451,0.00003533,0.01243087,-0.03486295,0.06372
 607,-0.00005298,-0.00007332,0.00000398,0.00007756,0.00005581,0.0000191
 9,-0.00001655,-0.00001909,0.00000929,0.00000717,-0.00000466,-0.0000096
 6,0.00000920,-0.00000916,0.00005818,0.00003172,0.00009045,0.00000964,0
 .00014037,-0.00000231,0.00004988,0.00534396,0.00271362,0.00048045,0.00
 318164,-0.00036452,-0.00175601,-0.11609129,0.06612597,0.11281872,-0.00
 518944,0.00477397,0.01390192,0.00333468,0.00552028,-0.00025128,-0.0000
 7406,0.00002423,-0.00061426,-0.00000622,-0.00001442,-0.00000224,-0.000
 00138,-0.00000439,-0.00000373,-0.00000015,0.00000114,-0.00000829,-0.00
 001370,-0.00000585,0.00000222,0.00001370,0.00004446,0.00000040,-0.0000
 1617,-0.00000789,-0.00000735,-0.00002133,0.00000103,-0.00000489,-0.000
 03462,0.00000203,-0.00000627,-0.00002567,-0.00008770,0.00007314,-0.002
 22182,-0.00214215,-0.00077380,0.11476776,0.00004615,-0.00000381,-0.000
 03980,-0.00004814,-0.00000333,0.00001982,0.00000739,0.00000401,0.00001
 511,0.,-0.00000232,-0.00001297,0.00000035,-0.00000142,0.00003350,0.000
 04450,0.00004112,0.00004039,-0.00025402,0.00044677,0.00053095,0.003050
 90,0.00102996,0.00350248,-0.00844653,0.00933795,0.01181278,0.06599147,
 -0.09600467,-0.07991466,0.01289381,-0.00603217,-0.02268024,0.00516056,
 -0.00210101,0.00292023,0.00005777,-0.00065677,0.00079228,-0.00000213,-
 0.00000604,-0.00000054,0.00000043,-0.00000050,-0.00000422,0.00000452,0
 .00000325,-0.00000603,-0.00000076,-0.00000282,0.00000139,-0.00000779,0
 .00001769,-0.00001408,-0.00001444,-0.00000615,0.00000025,-0.00002311,-
 0.00000269,-0.00001324,-0.00001769,0.00000888,-0.00004084,-0.00002405,
 -0.00011801,0.00021604,-0.00199155,-0.00052975,-0.00102238,-0.07438402
 ,0.09555309,-0.00013188,0.00010890,0.00006951,0.00016192,-0.00017575,-
 0.00003056,0.00001952,0.00003483,-0.00003288,-0.00001824,0.00001179,0.
 00002464,-0.00000642,0.00005448,-0.00003426,-0.00016803,-0.00002389,-0
 .00018183,0.00071099,-0.00104008,-0.00034424,0.00017082,0.00479147,-0.
 00287569,0.01536300,-0.01349999,-0.01737371,0.11277797,-0.08009257,-0.
 22173822,-0.00323531,0.00277973,0.00675322,0.00051776,0.00180422,0.001
 52992,-0.00061045,0.00081323,-0.00006116,0.00000335,0.00001191,0.00000
 709,0.00000021,0.00001407,-0.00000013,-0.00000684,-0.00000161,0.000003
 30,0.00001229,0.00001352,0.00000408,-0.00001984,-0.00003491,-0.0000055
 0,0.00001387,0.00000710,0.00002356,0.00008223,0.00009832,-0.00001656,-
 0.00002496,0.00001388,0.00001615,0.00005758,0.00013422,-0.00038413,-0.
 00114562,-0.00046494,0.00073562,-0.12346648,0.08568339,0.23318260,0.00
 004279,0.00004463,-0.00003973,-0.00005690,-0.00002682,0.00001018,0.000
 00918,0.00000004,0.00001638,0.00000334,-0.00000328,-0.00001326,0.00000
 088,0.00001344,0.00001439,-0.00001055,-0.00001210,0.00010110,-0.000567
 45,-0.00058406,-0.00006938,-0.00091457,0.00035102,0.00004408,0.0028836
 8,0.00568722,0.00167947,0.00266472,0.00673829,-0.01642532,-0.04391951,
 0.01390519,-0.00003771,0.00335935,-0.00897531,0.01440044,0.00299109,0.
 00449647,0.00343696,0.00000505,-0.00000063,-0.00000052,-0.00000030,-0.
 00000043,-0.00000238,0.00000530,0.00000547,-0.00000471,-0.00000310,-0.
 00000330,-0.00000023,-0.00001124,0.00001334,-0.00000538,0.00000823,-0.
 00000744,-0.00000079,-0.00003027,-0.00001860,0.00000700,-0.00002079,0.
 00003471,0.00004262,0.00008164,-0.00007109,-0.00016294,0.00022980,0.00
 048929,-0.00078686,-0.00211728,-0.00226211,-0.00072443,0.03720626,-0.0
 0010948,-0.00008133,0.00004420,0.00013808,0.00007340,-0.00000494,-0.00
 002372,-0.00002390,-0.00000565,0.00000842,0.00000103,0.00000480,-0.000
 00256,0.00000238,0.00000297,0.00000959,0.00000717,0.00006199,-0.000475
 74,-0.00024444,-0.00000230,0.00028040,-0.00070916,-0.00081123,0.006027
 52,-0.00184913,0.00004669,-0.00149136,-0.00773384,0.02533084,0.0139465
 9,-0.11000649,0.11560652,-0.00081598,0.00909228,-0.01259792,0.00415297
 ,0.00139136,-0.00117254,-0.00000289,-0.00000550,-0.00000164,-0.0000031
 1,-0.00000306,0.00000199,-0.00000351,-0.00000330,0.00000177,-0.0000139
 2,-0.00000611,-0.00000163,0.00003470,0.00001601,0.00000807,-0.00003519
 ,-0.00001748,0.00000934,-0.00003470,-0.00001921,0.00001440,-0.00004383
 ,0.00007990,-0.00005162,0.00002787,-0.00003010,0.00000418,0.00008421,-
 0.00034042,0.00132938,-0.00205190,-0.00034760,-0.00099705,-0.01758994,
 0.11078072,0.00002473,0.00008118,-0.00001546,-0.00003095,-0.00011550,0
 .00000964,0.00002491,0.00003121,-0.00000143,-0.00001465,0.00000299,0.0
 0000081,-0.00001585,0.00003192,-0.00000777,-0.00002445,-0.00003938,0.0
 0002115,-0.00026244,-0.00013797,0.00005896,0.00019679,-0.00071376,0.00
 029500,0.00084222,0.00119418,0.00205704,0.00074732,-0.00021385,0.00018
 327,-0.00010664,0.11551165,-0.27939279,-0.00260155,0.01310158,-0.01750
 559,0.00418831,-0.00233767,-0.00131886,0.00000165,0.00000301,0.0000034
 6,0.00000180,0.00000774,-0.00000405,0.00000328,0.00000216,-0.00000387,
 0.00001151,0.00000687,0.00000359,-0.00002487,-0.00001645,-0.00001026,-
 0.00002793,-0.00001504,0.00002093,-0.00000052,0.00002737,-0.00001337,-
 0.00002325,0.00006928,-0.00001402,0.00006211,-0.00002898,-0.00001840,0
 .00014156,-0.00002754,-0.00008508,-0.00116166,-0.00035341,0.00053626,-
 0.00106780,-0.12591450,0.29554435,0.00000027,0.00002798,-0.00000546,0.
 00000357,-0.00005851,0.00000069,0.00001312,0.00001495,-0.00000120,-0.0
 0000328,0.00000483,0.00000308,-0.00000556,0.00000337,-0.00001027,-0.00
 006202,-0.00001627,-0.00000196,0.00016637,0.00000463,0.00026317,0.0053
 8801,0.00266616,0.00122478,-0.00006264,-0.00047058,0.00024641,0.003561
 02,0.00297073,0.00441427,-0.00521955,0.01322105,-0.00381101,-0.1198212
 3,0.13306783,-0.01153362,0.00228649,-0.00054715,0.00065066,0.00000028,
 -0.00000052,0.00000170,-0.00000015,0.00000479,-0.00000291,0.00000152,0
 .00000232,-0.00000204,0.00000228,0.00000081,0.00000194,-0.00001094,-0.
 00001328,-0.00000209,0.00000409,-0.00002213,0.00002082,0.00001727,0.00
 001398,-0.00002162,-0.00006873,-0.00006059,0.00002866,0.00000884,-0.00
 001401,-0.00005863,-0.00081370,-0.00052019,-0.00033693,-0.00016897,0.0
 0084179,-0.00014169,-0.00212584,-0.00216956,-0.00083148,0.11916306,-0.
 00006477,-0.00008937,0.00000609,0.00008192,0.00011506,-0.00000415,-0.0
 0002697,-0.00003524,0.00000141,0.00001868,-0.00000434,-0.00000674,-0.0
 0000615,-0.00001641,0.00002036,0.00011923,0.00000050,0.00008226,0.0005
 7004,-0.00037000,-0.00032907,0.00192797,0.00278119,0.00358069,-0.00050
 407,0.00047404,-0.00010298,0.00339813,0.00254677,-0.00164692,0.0050622
 1,-0.00696631,0.00343508,0.13325878,-0.25070128,0.02990404,0.00750137,
 -0.00890821,-0.00072018,-0.00000032,-0.00000203,-0.00000280,-0.0000036
 3,-0.00000626,0.00000383,-0.00000120,-0.00000095,0.00000575,-0.0000197
 7,-0.00001675,-0.00000874,0.00003351,0.00001494,0.00000638,-0.00002401
 ,0.00000091,-0.00001017,-0.00005398,-0.00005504,0.00001516,-0.00005581
 ,-0.00017322,0.00026174,-0.00002379,0.00000041,0.00001978,-0.00049320,
 -0.00041765,-0.00016527,0.00041080,-0.00036574,0.00025645,-0.00195537,
 -0.00044922,-0.00087139,-0.14696244,0.26306228,0.00000146,0.00004348,0
 .00003173,-0.00000522,-0.00006515,-0.00001162,0.00001276,0.00001684,-0
 .00000946,-0.00000626,0.00000750,0.00001286,0.00001078,0.00000085,-0.0
 0003449,-0.00012989,-0.00003269,-0.00003979,-0.00091942,0.00100924,0.0
 0050922,0.00217890,0.00261440,-0.00447374,0.00030537,-0.00004972,-0.00
 127276,0.00359733,-0.00051871,-0.00343492,0.01305152,-0.02222991,0.007
 63126,-0.01144219,0.02994641,-0.06267867,-0.01627522,0.02498214,0.0013
 6247,0.00000119,0.00000204,0.00000197,0.00000072,0.00000479,-0.0000011
 5,-0.00000227,-0.00000013,-0.00000141,0.00000747,0.00000747,0.00000411
 ,-0.00000453,-0.00000933,-0.00000188,0.00005000,-0.00000083,0.00001959
 ,0.00005558,0.00002572,-0.00001294,-0.00003088,0.00020105,-0.00038898,
 0.00003434,-0.00006220,-0.00000859,-0.00032448,-0.00015684,0.00011173,
 0.00081715,-0.00116512,0.00027462,-0.00126100,-0.00022000,0.00069642,0
 .01105900,-0.03333844,0.06095077,0.00006024,0.00002959,-0.00004951,-0.
 00008114,-0.00004261,0.00000441,0.00000846,-0.00000760,0.00002368,-0.0
 0000553,-0.00001976,-0.00005056,-0.00000735,-0.00000024,0.00009235,0.0
 0022227,-0.00009084,0.00006893,-0.00192491,-0.00204808,0.00104528,-0.0
 0514795,0.00633763,0.01350574,0.00283512,0.00542835,-0.00020364,-0.000
 09842,0.00016153,-0.00065419,0.00533970,0.00255877,0.00077834,0.002891
 75,-0.00042247,-0.00175452,-0.11081845,0.06435597,0.10849086,0.0000024
 1,-0.00000116,-0.00000199,-0.00000071,-0.00000301,-0.00000269,0.000012
 10,0.00001408,-0.00000709,-0.00000902,-0.00001596,-0.00000256,-0.00003
 153,-0.00001505,-0.00003721,-0.00002161,-0.00007834,0.00011438,-0.0001
 2055,0.00005552,0.00001201,-0.00000514,-0.00011676,-0.00034895,0.00000
 410,-0.00024800,-0.00116846,-0.00014319,0.00038275,0.00088228,-0.00085
 610,-0.00062328,-0.00019131,0.00028650,0.00015706,-0.00005215,-0.00225
 356,-0.00218716,-0.00078219,0.10986250,-0.00022132,0.00002188,0.000092
 35,0.00029123,-0.00008801,0.00003486,-0.00000654,0.00003932,-0.0000699
 4,-0.00002271,0.00000632,0.00004683,-0.00013648,0.00011834,-0.00005952
 ,0.00045064,-0.00048811,0.00026924,-0.00207859,-0.00006687,-0.00152396
 ,0.01300513,-0.00651369,-0.02269208,0.00489076,-0.00242046,0.00287803,
 0.00005810,-0.00064409,0.00070436,0.00295345,0.00101945,0.00356876,-0.
 00831156,0.00910574,0.01220659,0.06508601,-0.09701799,-0.08070052,-0.0
 0000694,0.00000217,0.00000812,0.00000286,0.00001993,0.00000051,-0.0000
 0797,-0.00001643,0.00000638,0.00000200,0.00000260,-0.00000298,0.000076
 93,0.00000896,0.00000485,-0.00048357,-0.00020580,0.00017674,-0.0002670
 0,0.00007460,0.00003922,-0.00004649,0.00035589,-0.00000847,0.00029961,
 -0.00002757,0.00049584,0.00088443,-0.00029180,-0.00121915,-0.00059241,
 -0.00025792,-0.00030074,-0.00026863,0.00042603,0.00071431,-0.00198997,
 -0.00041808,-0.00101285,-0.07356096,0.09725559,-0.00008869,-0.00004988
 ,0.00001045,0.00011590,0.00004633,0.00002120,-0.00001349,-0.00000763,-
 0.00001485,0.00000579,-0.00000491,0.00000202,-0.00008667,0.00002167,-0
 .00000804,0.00023131,-0.00011215,0.00027300,-0.00105302,0.00027943,0.0
 0055311,-0.00213402,0.00210370,0.00505979,0.00016345,0.00185444,0.0014
 6450,-0.00051381,0.00065927,0.00003443,-0.00007571,0.00483780,-0.00301
 102,0.01538383,-0.01384206,-0.01778509,0.10853108,-0.08049085,-0.22026
 298,-0.00000123,0.00000159,0.00000069,-0.00000106,0.00000144,0.0000027
 0,0.00000010,-0.00000508,0.00000623,-0.00001202,-0.00001390,-0.0000100
 8,0.00004655,-0.00000080,-0.00000297,-0.00020424,-0.00003752,0.0001059
 7,-0.00016722,-0.00003352,0.00002033,0.00005722,0.00001506,0.00003842,
 0.00005034,-0.00038395,0.00029859,-0.00004051,0.00019769,0.00036282,-0
 .00017824,-0.00030109,-0.00008171,0.00084983,-0.00068612,-0.00103991,-
 0.00115425,-0.00039217,0.00076366,-0.11971121,0.08634321,0.23319874\\0
 .00004806,0.00006323,-0.00000679,-0.00007651,0.00001171,-0.00000630,0.
 00000912,-0.00001505,-0.00001438,-0.00000110,0.00001186,0.00000064,0.0
 0005151,-0.00000792,0.00005184,-0.00001807,0.00000673,0.00002359,0.000
 02307,-0.00001763,-0.00002066,0.00002027,-0.00001914,-0.00002646,-0.00
 002361,-0.00000584,0.00003167,0.00000372,0.00000315,-0.00001512,0.0000
 0530,0.00000109,0.00001804,0.00000521,-0.00000960,-0.00000775,-0.00002
 361,0.00001154,-0.00000197,-0.00000752,0.00000894,0.00001131,-0.000010
 38,0.00000882,-0.00001025,-0.00001774,-0.00001766,-0.00000926,0.000013
 11,0.00000394,0.00000094,-0.00001691,-0.00002517,-0.00000053,0.0000179
 0,-0.00000559,-0.00000431,0.00000358,0.00000435,-0.00001506,-0.0000051
 7,-0.00000076,-0.00000417,-0.00000026,0.00000063,-0.00000513,-0.000018
 22,0.00001611,0.00000231,-0.00001080,0.00001214,0.00001846,0.00000161,
 -0.00000479,0.00001243,0.00001683,-0.00002144,-0.00000302,0.00001061,-
 0.00001363,-0.00002004\\\@


 LOVE IS BLIND, THAT'S WHY ALL THE WORLD LOVES A LOUVER.
 Job cpu time:       0 days  0 hours  2 minutes 23.2 seconds.
 Elapsed time:       0 days  0 hours  2 minutes 35.7 seconds.
 File lengths (MBytes):  RWF=    161 Int=      0 D2E=      0 Chk=     16 Scr=      1
 Normal termination of Gaussian 16 at Sat Feb 24 04:10:05 2024.
