 Entering Gaussian System, Link 0=g16
 Input=/Volumes/SSD-PMU3/b3lyp_6-31gd_freq/WBNOQNNBFSXWBU-LLVKDONJSA-N_calculating/gaussianinput1.gjf
 Output=/Volumes/SSD-PMU3/b3lyp_6-31gd_freq/WBNOQNNBFSXWBU-LLVKDONJSA-N_calculating/gaussianinput1.log
 Initial command:
 /Applications/g16/l1.exe "/Users/macmini_m1_2022/PycharmProjects/sphere_model/sphere_model_lib/Gau-91477.inp" -scrdir="/Users/macmini_m1_2022/PycharmProjects/sphere_model/sphere_model_lib/"
 Entering Link 1 = /Applications/g16/l1.exe PID=     91478.
  
 Copyright (c) 1988,1990,1992,1993,1995,1998,2003,2009,2016,
            Gaussian, Inc.  All Rights Reserved.
  
 This is part of the Gaussian(R) 16 program.  It is based on
 the Gaussian(R) 09 system (copyright 2009, Gaussian, Inc.),
 the Gaussian(R) 03 system (copyright 2003, Gaussian, Inc.),
 the Gaussian(R) 98 system (copyright 1998, Gaussian, Inc.),
 the Gaussian(R) 94 system (copyright 1995, Gaussian, Inc.),
 the Gaussian 92(TM) system (copyright 1992, Gaussian, Inc.),
 the Gaussian 90(TM) system (copyright 1990, Gaussian, Inc.),
 the Gaussian 88(TM) system (copyright 1988, Gaussian, Inc.),
 the Gaussian 86(TM) system (copyright 1986, Carnegie Mellon
 University), and the Gaussian 82(TM) system (copyright 1983,
 Carnegie Mellon University). Gaussian is a federally registered
 trademark of Gaussian, Inc.
  
 This software contains proprietary and confidential information,
 including trade secrets, belonging to Gaussian, Inc.
  
 This software is provided under written license and may be
 used, copied, transmitted, or stored only in accord with that
 written license.
  
 The following legend is applicable only to US Government
 contracts under FAR:
  
                    RESTRICTED RIGHTS LEGEND
  
 Use, reproduction and disclosure by the US Government is
 subject to restrictions as set forth in subparagraphs (a)
 and (c) of the Commercial Computer Software - Restricted
 Rights clause in FAR 52.227-19.
  
 Gaussian, Inc.
 340 Quinnipiac St., Bldg. 40, Wallingford CT 06492
  
  
 ---------------------------------------------------------------
 Warning -- This program may not be used in any manner that
 competes with the business of Gaussian, Inc. or will provide
 assistance to any competitor of Gaussian, Inc.  The licensee
 of this program is prohibited from giving any competitor of
 Gaussian, Inc. access to this program.  By using this program,
 the user acknowledges that Gaussian, Inc. is engaged in the
 business of creating and licensing software in the field of
 computational chemistry and represents and warrants to the
 licensee that it is not a competitor of Gaussian, Inc. and that
 it will not use this program in any manner prohibited above.
 ---------------------------------------------------------------
  

 Cite this work as:
 Gaussian 16, Revision A.03,
 M. J. Frisch, G. W. Trucks, H. B. Schlegel, G. E. Scuseria, 
 M. A. Robb, J. R. Cheeseman, G. Scalmani, V. Barone, 
 G. A. Petersson, H. Nakatsuji, X. Li, M. Caricato, A. V. Marenich, 
 J. Bloino, B. G. Janesko, R. Gomperts, B. Mennucci, H. P. Hratchian, 
 J. V. Ortiz, A. F. Izmaylov, J. L. Sonnenberg, D. Williams-Young, 
 F. Ding, F. Lipparini, F. Egidi, J. Goings, B. Peng, A. Petrone, 
 T. Henderson, D. Ranasinghe, V. G. Zakrzewski, J. Gao, N. Rega, 
 G. Zheng, W. Liang, M. Hada, M. Ehara, K. Toyota, R. Fukuda, 
 J. Hasegawa, M. Ishida, T. Nakajima, Y. Honda, O. Kitao, H. Nakai, 
 T. Vreven, K. Throssell, J. A. Montgomery, Jr., J. E. Peralta, 
 F. Ogliaro, M. J. Bearpark, J. J. Heyd, E. N. Brothers, K. N. Kudin, 
 V. N. Staroverov, T. A. Keith, R. Kobayashi, J. Normand, 
 K. Raghavachari, A. P. Rendell, J. C. Burant, S. S. Iyengar, 
 J. Tomasi, M. Cossi, J. M. Millam, M. Klene, C. Adamo, R. Cammi, 
 J. W. Ochterski, R. L. Martin, K. Morokuma, O. Farkas, 
 J. B. Foresman, and D. J. Fox, Gaussian, Inc., Wallingford CT, 2016.
 
 ******************************************
 Gaussian 16:  EM64M-G16RevA.03 25-Dec-2016
                24-Feb-2024 
 ******************************************
 %nprocshared=10
 Will use up to   10 processors via shared memory.
 %mem=12GB
 %chk= 1.chk
 ---------------------
 # freq b3lyp/6-31g(d)
 ---------------------
 1/10=4,30=1,38=1/1,3;
 2/12=2,17=6,18=5,40=1/2;
 3/5=1,6=6,7=1,11=2,25=1,30=1,71=2,74=-5,140=1/1,2,3;
 4//1;
 5/5=2,38=5,98=1/2;
 8/6=4,10=90,11=11/1;
 11/6=1,8=1,9=11,15=111,16=1/1,2,10;
 10/6=1/2;
 6/7=2,8=2,9=2,10=2,28=1/1;
 7/8=1,10=1,25=1/1,2,3,16;
 1/10=4,30=1/3;
 99//99;
 ---------
 good luck
 ---------
 Symbolic Z-matrix:
 Charge =  0 Multiplicity = 1
 O                     1.20613   0.        0. 
 C                     0.        0.        0. 
 C                    -1.06251  -1.10634   0.08749 
 C                    -2.08538   0.00123   0.48267 
 C                    -1.06052   1.11521   0.08749 
 C                    -0.79559   2.28326   1.03807 
 C                     0.31532   3.22752   0.53076 
 C                     0.60366   4.35767   1.49566 
 C                    -0.14076   5.54477   1.4586 
 C                     0.09954   6.57281   2.37104 
 C                     1.09387   6.43009   3.34068 
 C                     1.84464   5.25414   3.38803 
 C                     1.60023   4.22932   2.47274 
 H                    -0.8601   -1.90772   0.80511 
 H                    -1.26093  -1.55883  -0.89157 
 H                    -2.29871   0.00443   1.55605 
 H                    -3.03073   0.0036   -0.06483 
 H                    -1.27132   1.49285  -0.92439 
 H                    -1.72496   2.8506    1.18374 
 H                    -0.51443   1.89285   2.0255 
 H                     1.2216    2.6372    0.35745 
 H                     0.01351   3.63843  -0.44242 
 H                    -0.91304   5.66666   0.70138 
 H                    -0.48619   7.48731   2.32144 
 H                     1.28546   7.23088   4.05003 
 H                     2.62565   5.13585   4.13488 
 H                     2.19335   3.31802   2.51104 
 

 GradGradGradGradGradGradGradGradGradGradGradGradGradGradGradGradGradGrad
 Berny optimization.
 Initialization pass.
 Trust Radius=3.00D-01 FncErr=1.00D-07 GrdErr=1.00D-07 EigMax=2.50D+02 EigMin=1.00D-04
 Number of steps in this run=      2 maximum allowed number of steps=      2.
 GradGradGradGradGradGradGradGradGradGradGradGradGradGradGradGradGradGrad

                          Input orientation:                          
 ---------------------------------------------------------------------
 Center     Atomic      Atomic             Coordinates (Angstroms)
 Number     Number       Type             X           Y           Z
 ---------------------------------------------------------------------
      1          8           0        1.206128    0.000000    0.000000
      2          6           0        0.000000    0.000000    0.000000
      3          6           0       -1.062508   -1.106337    0.087487
      4          6           0       -2.085380    0.001227    0.482672
      5          6           0       -1.060518    1.115213    0.087487
      6          6           0       -0.795594    2.283256    1.038071
      7          6           0        0.315317    3.227519    0.530757
      8          6           0        0.603664    4.357671    1.495657
      9          6           0       -0.140759    5.544773    1.458596
     10          6           0        0.099543    6.572810    2.371036
     11          6           0        1.093870    6.430094    3.340684
     12          6           0        1.844638    5.254139    3.388031
     13          6           0        1.600227    4.229320    2.472742
     14          1           0       -0.860102   -1.907723    0.805112
     15          1           0       -1.260926   -1.558828   -0.891569
     16          1           0       -2.298709    0.004434    1.556046
     17          1           0       -3.030732    0.003602   -0.064830
     18          1           0       -1.271320    1.492854   -0.924386
     19          1           0       -1.724957    2.850595    1.183742
     20          1           0       -0.514429    1.892854    2.025502
     21          1           0        1.221596    2.637203    0.357447
     22          1           0        0.013510    3.638434   -0.442424
     23          1           0       -0.913041    5.666661    0.701378
     24          1           0       -0.486188    7.487308    2.321436
     25          1           0        1.285456    7.230878    4.050030
     26          1           0        2.625645    5.135853    4.134880
     27          1           0        2.193355    3.318022    2.511040
 ---------------------------------------------------------------------
                    Distance matrix (angstroms):
                    1          2          3          4          5
     1  O    0.000000
     2  C    1.206128   0.000000
     3  C    2.525539   1.536411   0.000000
     4  C    3.326710   2.140510   1.558569   0.000000
     5  C    2.527655   1.541445   2.221551   1.564442   0.000000
     6  C    3.209009   2.631315   3.530467   2.679491   1.529091
     7  C    3.390004   3.286032   4.569157   4.021768   2.559540
     8  C    4.646423   4.646579   5.883405   5.218783   3.907170
     9  C    5.889492   5.735139   6.853235   5.955240   4.727251
    10  C    7.074473   6.988101   8.095323   7.178127   6.028740
    11  C    7.246991   7.328221   8.487111   7.720505   6.593378
    12  C    6.284300   6.518237   7.733094   7.174903   6.038562
    13  C    4.914968   5.153865   6.422526   5.951542   4.739902
    14  H    2.925221   2.242184   1.094611   2.291149   3.113406
    15  H    3.051425   2.194259   1.096662   2.236523   2.854682
    16  H    3.834734   2.775853   2.217808   1.094373   2.218921
    17  H    4.237357   3.031427   2.264745   1.092453   2.267294
    18  H    3.036585   2.167800   2.797013   2.206231   1.100426
    19  H    4.256571   3.535904   4.159077   2.956400   2.157500
    20  H    3.262801   2.819608   3.612678   2.902837   2.158435
    21  H    2.661362   2.928294   4.393643   4.230856   2.756334
    22  H    3.854384   3.665259   4.894024   4.300048   2.793025
    23  H    6.090472   5.782441   6.802404   5.789590   4.595029
    24  H    8.019525   7.853994   8.897944   7.872730   6.776723
    25  H    8.288223   8.386938   9.524906   8.738217   7.655501
    26  H    6.744572   7.097058   8.303541   7.867450   6.792255
    27  H    4.276588   4.703764   6.004099   5.781261   4.616673
                    6          7          8          9         10
     6  C    0.000000
     7  C    1.543737   0.000000
     8  C    2.543719   1.513744   0.000000
     9  C    3.353080   2.537431   1.401696   0.000000
    10  C    4.580212   3.824154   2.434598   1.395404   0.000000
    11  C    5.105719   4.331088   2.817688   2.418751   1.396163
    12  C    4.617281   3.822306   2.434081   2.783701   2.412163
    13  C    3.403734   2.534937   1.401537   2.406230   2.784662
    14  H    4.197944   5.275186   6.471061   7.515597   8.677124
    15  H    4.324541   5.236093   6.646842   7.565659   8.866736
    16  H    2.778612   4.274649   5.232407   5.946562   7.039843
    17  H    3.377729   4.684486   5.882335   6.432523   7.673758
    18  H    2.168476   2.764764   4.192773   4.834751   6.208464
    19  H    1.098549   2.175127   2.791244   3.137487   4.312001
    20  H    1.098402   2.168887   2.757932   3.714502   4.732689
    21  H    2.158143   1.095377   2.153456   3.394481   4.560981
    22  H    2.164029   1.098645   2.149824   2.696628   4.066143
    23  H    3.402144   2.736309   2.155163   1.088419   2.152717
    24  H    5.368884   4.689855   3.415306   2.153429   1.087128
    25  H    6.154805   5.417872   3.904482   3.404786   2.158348
    26  H    5.425165   4.687116   3.414597   3.870750   3.399586
    27  H    3.489154   2.730703   2.153832   3.393250   3.872634
                   11         12         13         14         15
    11  C    0.000000
    12  C    1.395982   0.000000
    13  C    2.419324   1.395616   0.000000
    14  H    8.931199   8.079564   6.818908   0.000000
    15  H    9.342371   8.624153   7.280621   1.777952   0.000000
    16  H    7.482221   6.934183   5.821657   2.507955   3.084088
    17  H    8.361200   7.953592   6.763264   3.020198   2.501379
    18  H    6.939833   6.515627   5.222500   3.837211   3.051876
    19  H    5.040932   4.835072   3.823513   4.851075   4.895432
    20  H    4.990278   4.326652   3.182902   4.006648   4.580466
    21  H    4.827219   4.052280   2.674448   5.018986   5.032855
    22  H    4.824153   4.542677   3.371203   5.751470   5.370051
    23  H    3.402419   3.872089   3.394141   7.575279   7.407172
    24  H    2.157116   3.399620   3.871758   9.523952   9.631002
    25  H    1.086799   2.158338   3.405329   9.932117  10.400115
    26  H    2.156882   1.087082   2.153134   8.535206   9.229809
    27  H    3.403259   2.153895   1.087994   6.288259   6.877025
                   16         17         18         19         20
    16  H    0.000000
    17  H    1.778510   0.000000
    18  H    3.069766   2.460130   0.000000
    19  H    2.927189   3.371847   2.548225   0.000000
    20  H    2.640109   3.777637   3.071599   1.758183   0.000000
    21  H    4.556387   5.019608   3.027748   3.067650   2.519969
    22  H    4.748283   4.756258   2.546878   2.507464   3.068620
    23  H    5.891634   6.094418   4.493566   2.970204   4.019181
    24  H    7.737213   8.256805   6.861871   4.932343   5.602347
    25  H    8.443204   9.369902   8.012917   6.038632   5.986050
    26  H    7.565124   8.716201   7.352139   5.732308   4.982628
    27  H    5.663084   6.701610   5.209353   4.163337   3.098216
                   21         22         23         24         25
    21  H    0.000000
    22  H    1.761173   0.000000
    23  H    3.721905   2.506089   0.000000
    24  H    5.504298   4.764709   2.474176   0.000000
    25  H    5.894158   5.891150   4.300423   2.488477   0.000000
    26  H    4.741688   5.478798   4.959132   4.301328   2.488461
    27  H    2.458819   3.684744   4.294261   4.959722   4.301536
                   26         27
    26  H    0.000000
    27  H    2.475528   0.000000
 Stoichiometry    C12H14O
 Framework group  C1[X(C12H14O)]
 Deg. of freedom    75
 Full point group                 C1      NOp   1
 Largest Abelian subgroup         C1      NOp   1
 Largest concise Abelian subgroup C1      NOp   1
                         Standard orientation:                         
 ---------------------------------------------------------------------
 Center     Atomic      Atomic             Coordinates (Angstroms)
 Number     Number       Type             X           Y           Z
 ---------------------------------------------------------------------
      1          8           0        2.709539    1.756384   -0.626048
      2          6           0        3.009902    0.646637   -0.261372
      3          6           0        4.226961    0.062249    0.471986
      4          6           0        3.344842   -1.178674    0.805322
      5          6           0        2.247188   -0.691349   -0.197248
      6          6           0        0.779578   -0.659964    0.230837
      7          6           0       -0.145712   -0.057554   -0.848081
      8          6           0       -1.590832    0.011051   -0.402726
      9          6           0       -2.449016   -1.084761   -0.568456
     10          6           0       -3.771272   -1.035838   -0.125287
     11          6           0       -4.259950    0.116089    0.494010
     12          6           0       -3.417183    1.215948    0.663770
     13          6           0       -2.095690    1.161596    0.218298
     14          1           0        4.618036    0.660514    1.301029
     15          1           0        5.051303   -0.156801   -0.217322
     16          1           0        2.987508   -1.167354    1.839651
     17          1           0        3.786055   -2.155741    0.595259
     18          1           0        2.347474   -1.210457   -1.162342
     19          1           0        0.450233   -1.679661    0.472826
     20          1           0        0.682420   -0.076529    1.156391
     21          1           0        0.220349    0.943343   -1.101173
     22          1           0       -0.067100   -0.664186   -1.760680
     23          1           0       -2.077745   -1.984002   -1.056492
     24          1           0       -4.421339   -1.895379   -0.268291
     25          1           0       -5.290481    0.157978    0.836622
     26          1           0       -3.789899    2.119975    1.138706
     27          1           0       -1.446024    2.024657    0.347881
 ---------------------------------------------------------------------
 Rotational constants (GHZ):           2.2015990           0.3302161           0.3074243
 Standard basis: 6-31G(d) (6D, 7F)
 There are   223 symmetry adapted cartesian basis functions of A   symmetry.
 There are   223 symmetry adapted basis functions of A   symmetry.
   223 basis functions,   420 primitive gaussians,   223 cartesian basis functions
    47 alpha electrons       47 beta electrons
       nuclear repulsion energy       719.8587128093 Hartrees.
 NAtoms=   27 NActive=   27 NUniq=   27 SFac= 1.00D+00 NAtFMM=   60 NAOKFM=F Big=F
 Integral buffers will be    131072 words long.
 Raffenetti 2 integral format.
 Two-electron integral symmetry is turned on.
 One-electron integrals computed using PRISM.
 NBasis=   223 RedAO= T EigKep=  4.67D-04  NBF=   223
 NBsUse=   223 1.00D-06 EigRej= -1.00D+00 NBFU=   223
 ExpMin= 1.61D-01 ExpMax= 5.48D+03 ExpMxC= 8.25D+02 IAcc=3 IRadAn=         5 AccDes= 0.00D+00
 Harris functional with IExCor=  402 and IRadAn=       5 diagonalized for initial guess.
 HarFok:  IExCor=  402 AccDes= 0.00D+00 IRadAn=         5 IDoV= 1 UseB2=F ITyADJ=14
 ICtDFT=  3500011 ScaDFX=  1.000000  1.000000  1.000000  1.000000
 FoFCou: FMM=F IPFlag=           0 FMFlag=      100000 FMFlg1=           0
         NFxFlg=           0 DoJE=T BraDBF=F KetDBF=T FulRan=T
         wScrn=  0.000000 ICntrl=       500 IOpCl=  0 I1Cent=   200000004 NGrid=           0
         NMat0=    1 NMatS0=      1 NMatT0=    0 NMatD0=    1 NMtDS0=    0 NMtDT0=    0
 Petite list used in FoFCou.
 Requested convergence on RMS density matrix=1.00D-08 within 128 cycles.
 Requested convergence on MAX density matrix=1.00D-06.
 Requested convergence on             energy=1.00D-06.
 No special actions if energy rises.
 Integral accuracy reduced to 1.0D-05 until final iterations.
 Initial convergence to 1.0D-05 achieved.  Increase integral accuracy.
 SCF Done:  E(RB3LYP) =  -540.909425475     A.U. after   14 cycles
            NFock= 14  Conv=0.38D-08     -V/T= 2.0097
 DoSCS=F DFT=T ScalE2(SS,OS)=  1.000000  1.000000
 Range of M.O.s used for correlation:     1   223
 NBasis=   223 NAE=    47 NBE=    47 NFC=     0 NFV=     0
 NROrb=    223 NOA=    47 NOB=    47 NVA=   176 NVB=   176
 Symmetrizing basis deriv contribution to polar:
 IMax=3 JMax=2 DiffMx= 0.00D+00
 G2DrvN: will do    28 centers at a time, making    1 passes.
 Calling FoFCou, ICntrl=  3107 FMM=F I1Cent=   0 AccDes= 0.00D+00.
 End of G2Drv F.D. properties file   721 does not exist.
 End of G2Drv F.D. properties file   722 does not exist.
 End of G2Drv F.D. properties file   788 does not exist.
          IDoAtm=111111111111111111111111111
          Differentiating once with respect to electric field.
                with respect to dipole field.
          Differentiating once with respect to nuclear coordinates.
 Keep R1 ints in memory in canonical form, NReq=322414390.
          There are    84 degrees of freedom in the 1st order CPHF.  IDoFFX=6 NUNeed=     3.
     81 vectors produced by pass  0 Test12= 9.85D-15 1.19D-09 XBig12= 1.33D+02 5.28D+00.
 AX will form    81 AO Fock derivatives at one time.
     81 vectors produced by pass  1 Test12= 9.85D-15 1.19D-09 XBig12= 2.42D+01 1.00D+00.
     81 vectors produced by pass  2 Test12= 9.85D-15 1.19D-09 XBig12= 2.02D-01 6.31D-02.
     81 vectors produced by pass  3 Test12= 9.85D-15 1.19D-09 XBig12= 5.33D-04 3.14D-03.
     81 vectors produced by pass  4 Test12= 9.85D-15 1.19D-09 XBig12= 5.61D-07 9.81D-05.
     49 vectors produced by pass  5 Test12= 9.85D-15 1.19D-09 XBig12= 4.14D-10 2.67D-06.
      3 vectors produced by pass  6 Test12= 9.85D-15 1.19D-09 XBig12= 3.02D-13 6.67D-08.
      2 vectors produced by pass  7 Test12= 9.85D-15 1.19D-09 XBig12= 2.32D-16 1.64D-09.
 InvSVY:  IOpt=1 It=  1 EMax= 1.95D-14
 Solved reduced A of dimension   459 with    84 vectors.
 Isotropic polarizability for W=    0.000000      119.97 Bohr**3.
 End of Minotr F.D. properties file   721 does not exist.
 End of Minotr F.D. properties file   722 does not exist.
 End of Minotr F.D. properties file   788 does not exist.

 **********************************************************************

            Population analysis using the SCF density.

 **********************************************************************

 Orbital symmetries:
       Occupied  (A) (A) (A) (A) (A) (A) (A) (A) (A) (A) (A) (A)
                 (A) (A) (A) (A) (A) (A) (A) (A) (A) (A) (A) (A)
                 (A) (A) (A) (A) (A) (A) (A) (A) (A) (A) (A) (A)
                 (A) (A) (A) (A) (A) (A) (A) (A) (A) (A) (A)
       Virtual   (A) (A) (A) (A) (A) (A) (A) (A) (A) (A) (A) (A)
                 (A) (A) (A) (A) (A) (A) (A) (A) (A) (A) (A) (A)
                 (A) (A) (A) (A) (A) (A) (A) (A) (A) (A) (A) (A)
                 (A) (A) (A) (A) (A) (A) (A) (A) (A) (A) (A) (A)
                 (A) (A) (A) (A) (A) (A) (A) (A) (A) (A) (A) (A)
                 (A) (A) (A) (A) (A) (A) (A) (A) (A) (A) (A) (A)
                 (A) (A) (A) (A) (A) (A) (A) (A) (A) (A) (A) (A)
                 (A) (A) (A) (A) (A) (A) (A) (A) (A) (A) (A) (A)
                 (A) (A) (A) (A) (A) (A) (A) (A) (A) (A) (A) (A)
                 (A) (A) (A) (A) (A) (A) (A) (A) (A) (A) (A) (A)
                 (A) (A) (A) (A) (A) (A) (A) (A) (A) (A) (A) (A)
                 (A) (A) (A) (A) (A) (A) (A) (A) (A) (A) (A) (A)
                 (A) (A) (A) (A) (A) (A) (A) (A) (A) (A) (A) (A)
                 (A) (A) (A) (A) (A) (A) (A) (A) (A) (A) (A) (A)
                 (A) (A) (A) (A) (A) (A) (A) (A)
 The electronic state is 1-A.
 Alpha  occ. eigenvalues --  -19.14718 -10.27507 -10.19960 -10.19749 -10.19636
 Alpha  occ. eigenvalues --  -10.19159 -10.18998 -10.18491 -10.18433 -10.18388
 Alpha  occ. eigenvalues --  -10.18325 -10.18277 -10.18160  -1.04356  -0.85365
 Alpha  occ. eigenvalues --   -0.84683  -0.78538  -0.73704  -0.73345  -0.67124
 Alpha  occ. eigenvalues --   -0.63130  -0.61449  -0.59850  -0.57192  -0.52870
 Alpha  occ. eigenvalues --   -0.50427  -0.47791  -0.46623  -0.46199  -0.44927
 Alpha  occ. eigenvalues --   -0.43874  -0.41395  -0.41115  -0.40683  -0.39984
 Alpha  occ. eigenvalues --   -0.38881  -0.37018  -0.35733  -0.35419  -0.34494
 Alpha  occ. eigenvalues --   -0.34142  -0.33144  -0.32980  -0.31637  -0.24406
 Alpha  occ. eigenvalues --   -0.23984  -0.23558
 Alpha virt. eigenvalues --   -0.02208   0.00500   0.00617   0.09304   0.09657
 Alpha virt. eigenvalues --    0.11139   0.11874   0.12879   0.13442   0.14207
 Alpha virt. eigenvalues --    0.15200   0.16203   0.16780   0.17240   0.17820
 Alpha virt. eigenvalues --    0.18535   0.19204   0.19928   0.20130   0.20893
 Alpha virt. eigenvalues --    0.25089   0.26159   0.27289   0.28395   0.29890
 Alpha virt. eigenvalues --    0.31149   0.33657   0.34559   0.34976   0.36366
 Alpha virt. eigenvalues --    0.46649   0.50129   0.50871   0.51796   0.53387
 Alpha virt. eigenvalues --    0.53944   0.54714   0.55809   0.56531   0.56989
 Alpha virt. eigenvalues --    0.58093   0.59785   0.60153   0.60471   0.60939
 Alpha virt. eigenvalues --    0.61570   0.61982   0.63171   0.63672   0.65612
 Alpha virt. eigenvalues --    0.66394   0.67419   0.68521   0.70936   0.71539
 Alpha virt. eigenvalues --    0.74656   0.76852   0.77971   0.79830   0.81960
 Alpha virt. eigenvalues --    0.82883   0.83446   0.84335   0.84533   0.85218
 Alpha virt. eigenvalues --    0.86508   0.86684   0.87596   0.87724   0.89634
 Alpha virt. eigenvalues --    0.90727   0.91747   0.93347   0.93514   0.94480
 Alpha virt. eigenvalues --    0.95626   0.96499   0.98274   0.99208   1.00913
 Alpha virt. eigenvalues --    1.05767   1.09241   1.11191   1.12285   1.14926
 Alpha virt. eigenvalues --    1.17179   1.18840   1.21028   1.26392   1.27720
 Alpha virt. eigenvalues --    1.28249   1.36184   1.37122   1.42770   1.43490
 Alpha virt. eigenvalues --    1.45663   1.48452   1.49044   1.49644   1.49964
 Alpha virt. eigenvalues --    1.52056   1.53622   1.57990   1.62343   1.67420
 Alpha virt. eigenvalues --    1.69174   1.70471   1.75178   1.77042   1.79286
 Alpha virt. eigenvalues --    1.80912   1.81344   1.82569   1.86837   1.89152
 Alpha virt. eigenvalues --    1.90078   1.91521   1.92840   1.93791   1.95647
 Alpha virt. eigenvalues --    1.97514   1.98229   1.99834   2.03297   2.04520
 Alpha virt. eigenvalues --    2.06316   2.08168   2.09971   2.14107   2.14632
 Alpha virt. eigenvalues --    2.16191   2.16986   2.19239   2.23958   2.25895
 Alpha virt. eigenvalues --    2.26409   2.27981   2.31439   2.31836   2.35460
 Alpha virt. eigenvalues --    2.38002   2.39003   2.42806   2.43544   2.48078
 Alpha virt. eigenvalues --    2.54693   2.56538   2.58326   2.60271   2.66712
 Alpha virt. eigenvalues --    2.67239   2.70639   2.73003   2.74818   2.75005
 Alpha virt. eigenvalues --    2.75460   2.78201   2.84681   2.92606   3.00945
 Alpha virt. eigenvalues --    3.05483   3.06184   3.41500   4.00623   4.09591
 Alpha virt. eigenvalues --    4.12114   4.14077   4.18212   4.22956   4.33560
 Alpha virt. eigenvalues --    4.39243   4.40877   4.42189   4.55243   4.70977
 Alpha virt. eigenvalues --    4.75118
          Condensed to atoms (all electrons):
               1          2          3          4          5          6
     1  O    7.970223   0.576269  -0.061933   0.007886  -0.073968   0.002289
     2  C    0.576269   4.551157   0.332325  -0.119993   0.321823  -0.025521
     3  C   -0.061933   0.332325   5.361274   0.318807  -0.267861   0.008913
     4  C    0.007886  -0.119993   0.318807   5.156573   0.336659  -0.029231
     5  C   -0.073968   0.321823  -0.267861   0.336659   5.309262   0.335795
     6  C    0.002289  -0.025521   0.008913  -0.029231   0.335795   5.022676
     7  C   -0.004146  -0.002498  -0.000158   0.003549  -0.030985   0.352404
     8  C    0.000168   0.000070   0.000015  -0.000085   0.003556  -0.040465
     9  C   -0.000001  -0.000003  -0.000000  -0.000002   0.000074  -0.003314
    10  C   -0.000000  -0.000000  -0.000000  -0.000000   0.000002  -0.000028
    11  C    0.000000   0.000000   0.000000   0.000000  -0.000000   0.000016
    12  C   -0.000000   0.000000  -0.000000  -0.000000   0.000002  -0.000077
    13  C   -0.000026  -0.000003  -0.000000  -0.000002   0.000086  -0.004162
    14  H    0.000348  -0.016279   0.348658  -0.023874   0.010474  -0.000411
    15  H    0.000554  -0.018610   0.350132  -0.027455   0.008394  -0.000081
    16  H   -0.000035  -0.000385  -0.025383   0.369798  -0.031300  -0.004158
    17  H   -0.000177   0.003689  -0.021712   0.359166  -0.017614   0.002076
    18  H    0.000355  -0.030217   0.012623  -0.038392   0.345766  -0.030047
    19  H   -0.000032   0.003594  -0.000391  -0.003262  -0.032703   0.369621
    20  H    0.000904  -0.005474   0.001344  -0.003609  -0.042744   0.373771
    21  H    0.011653   0.003664   0.000415  -0.000004  -0.009138  -0.034190
    22  H    0.000140  -0.000287   0.000004   0.000019  -0.003983  -0.041607
    23  H    0.000000   0.000000  -0.000000   0.000001  -0.000053   0.000316
    24  H   -0.000000  -0.000000  -0.000000   0.000000  -0.000000  -0.000000
    25  H    0.000000   0.000000   0.000000  -0.000000   0.000000   0.000000
    26  H   -0.000000  -0.000000  -0.000000   0.000000  -0.000000  -0.000000
    27  H    0.000035   0.000013   0.000000   0.000001  -0.000061   0.000297
               7          8          9         10         11         12
     1  O   -0.004146   0.000168  -0.000001  -0.000000   0.000000  -0.000000
     2  C   -0.002498   0.000070  -0.000003  -0.000000   0.000000   0.000000
     3  C   -0.000158   0.000015  -0.000000  -0.000000   0.000000  -0.000000
     4  C    0.003549  -0.000085  -0.000002  -0.000000   0.000000  -0.000000
     5  C   -0.030985   0.003556   0.000074   0.000002  -0.000000   0.000002
     6  C    0.352404  -0.040465  -0.003314  -0.000028   0.000016  -0.000077
     7  C    5.194678   0.341708  -0.057410   0.006468   0.000376   0.006843
     8  C    0.341708   4.642314   0.543776  -0.018260  -0.034522  -0.019675
     9  C   -0.057410   0.543776   4.967929   0.523893  -0.035746  -0.047013
    10  C    0.006468  -0.018260   0.523893   4.868843   0.550342  -0.026385
    11  C    0.000376  -0.034522  -0.035746   0.550342   4.855070   0.550322
    12  C    0.006843  -0.019675  -0.047013  -0.026385   0.550322   4.873409
    13  C   -0.054979   0.550367  -0.039619  -0.047237  -0.035207   0.519796
    14  H    0.000004  -0.000000   0.000000   0.000000  -0.000000   0.000000
    15  H    0.000004  -0.000000  -0.000000   0.000000  -0.000000   0.000000
    16  H    0.000067   0.000001  -0.000000  -0.000000   0.000000  -0.000000
    17  H   -0.000087   0.000001   0.000000   0.000000  -0.000000   0.000000
    18  H   -0.004630   0.000253  -0.000011  -0.000000   0.000000  -0.000000
    19  H   -0.037650  -0.002878   0.003937  -0.000115  -0.000007   0.000004
    20  H   -0.040723  -0.000129  -0.000119  -0.000016  -0.000006  -0.000147
    21  H    0.356408  -0.025454   0.003695  -0.000192   0.000012   0.000111
    22  H    0.354660  -0.028411  -0.005504   0.000078   0.000015  -0.000226
    23  H   -0.009388  -0.047065   0.353990  -0.046826   0.004919   0.000362
    24  H   -0.000178   0.003710  -0.040062   0.356034  -0.043518   0.004614
    25  H    0.000007   0.000717   0.004692  -0.043312   0.358368  -0.043276
    26  H   -0.000180   0.003700   0.000871   0.004576  -0.043646   0.355985
    27  H   -0.009406  -0.044049   0.006171   0.000377   0.004759  -0.046355
              13         14         15         16         17         18
     1  O   -0.000026   0.000348   0.000554  -0.000035  -0.000177   0.000355
     2  C   -0.000003  -0.016279  -0.018610  -0.000385   0.003689  -0.030217
     3  C   -0.000000   0.348658   0.350132  -0.025383  -0.021712   0.012623
     4  C   -0.000002  -0.023874  -0.027455   0.369798   0.359166  -0.038392
     5  C    0.000086   0.010474   0.008394  -0.031300  -0.017614   0.345766
     6  C   -0.004162  -0.000411  -0.000081  -0.004158   0.002076  -0.030047
     7  C   -0.054979   0.000004   0.000004   0.000067  -0.000087  -0.004630
     8  C    0.550367  -0.000000  -0.000000   0.000001   0.000001   0.000253
     9  C   -0.039619   0.000000  -0.000000  -0.000000   0.000000  -0.000011
    10  C   -0.047237   0.000000   0.000000  -0.000000   0.000000  -0.000000
    11  C   -0.035207  -0.000000  -0.000000   0.000000  -0.000000   0.000000
    12  C    0.519796   0.000000   0.000000  -0.000000   0.000000  -0.000000
    13  C    4.963683   0.000000   0.000000  -0.000001   0.000000   0.000001
    14  H    0.000000   0.535795  -0.023319  -0.005263   0.002583  -0.000259
    15  H    0.000000  -0.023319   0.540732   0.003428  -0.006559  -0.000610
    16  H   -0.000001  -0.005263   0.003428   0.563766  -0.033459   0.004126
    17  H    0.000000   0.002583  -0.006559  -0.033459   0.570798  -0.006699
    18  H    0.000001  -0.000259  -0.000610   0.004126  -0.006699   0.584477
    19  H   -0.000024   0.000018   0.000008   0.000672   0.000332  -0.004042
    20  H    0.003685  -0.000052  -0.000010   0.003958  -0.000067   0.005813
    21  H   -0.004614  -0.000002  -0.000004   0.000005   0.000000   0.000054
    22  H    0.003797  -0.000000  -0.000000   0.000010   0.000003   0.005887
    23  H    0.006264   0.000000   0.000000   0.000000  -0.000000   0.000006
    24  H    0.000832   0.000000   0.000000  -0.000000  -0.000000  -0.000000
    25  H    0.004665  -0.000000  -0.000000   0.000000   0.000000   0.000000
    26  H   -0.039385   0.000000   0.000000  -0.000000  -0.000000   0.000000
    27  H    0.355394   0.000000  -0.000000   0.000000  -0.000000   0.000001
              19         20         21         22         23         24
     1  O   -0.000032   0.000904   0.011653   0.000140   0.000000  -0.000000
     2  C    0.003594  -0.005474   0.003664  -0.000287   0.000000  -0.000000
     3  C   -0.000391   0.001344   0.000415   0.000004  -0.000000  -0.000000
     4  C   -0.003262  -0.003609  -0.000004   0.000019   0.000001   0.000000
     5  C   -0.032703  -0.042744  -0.009138  -0.003983  -0.000053  -0.000000
     6  C    0.369621   0.373771  -0.034190  -0.041607   0.000316  -0.000000
     7  C   -0.037650  -0.040723   0.356408   0.354660  -0.009388  -0.000178
     8  C   -0.002878  -0.000129  -0.025454  -0.028411  -0.047065   0.003710
     9  C    0.003937  -0.000119   0.003695  -0.005504   0.353990  -0.040062
    10  C   -0.000115  -0.000016  -0.000192   0.000078  -0.046826   0.356034
    11  C   -0.000007  -0.000006   0.000012   0.000015   0.004919  -0.043518
    12  C    0.000004  -0.000147   0.000111  -0.000226   0.000362   0.004614
    13  C   -0.000024   0.003685  -0.004614   0.003797   0.006264   0.000832
    14  H    0.000018  -0.000052  -0.000002  -0.000000   0.000000   0.000000
    15  H    0.000008  -0.000010  -0.000004  -0.000000   0.000000   0.000000
    16  H    0.000672   0.003958   0.000005   0.000010   0.000000  -0.000000
    17  H    0.000332  -0.000067   0.000000   0.000003  -0.000000  -0.000000
    18  H   -0.004042   0.005813   0.000054   0.005887   0.000006  -0.000000
    19  H    0.596744  -0.037628   0.004965  -0.005124   0.000785   0.000003
    20  H   -0.037628   0.597212  -0.003759   0.005906   0.000047   0.000000
    21  H    0.004965  -0.003759   0.547015  -0.032868   0.000054   0.000003
    22  H   -0.005124   0.005906  -0.032868   0.605602   0.005176  -0.000006
    23  H    0.000785   0.000047   0.000054   0.005176   0.618992  -0.005755
    24  H    0.000003   0.000000   0.000003  -0.000006  -0.005755   0.603798
    25  H   -0.000000  -0.000000  -0.000000  -0.000000  -0.000185  -0.005591
    26  H    0.000000   0.000003  -0.000007   0.000003   0.000018  -0.000192
    27  H    0.000023   0.000584   0.005395   0.000067  -0.000182   0.000018
              25         26         27
     1  O    0.000000  -0.000000   0.000035
     2  C    0.000000  -0.000000   0.000013
     3  C    0.000000  -0.000000   0.000000
     4  C   -0.000000   0.000000   0.000001
     5  C    0.000000  -0.000000  -0.000061
     6  C    0.000000  -0.000000   0.000297
     7  C    0.000007  -0.000180  -0.009406
     8  C    0.000717   0.003700  -0.044049
     9  C    0.004692   0.000871   0.006171
    10  C   -0.043312   0.004576   0.000377
    11  C    0.358368  -0.043646   0.004759
    12  C   -0.043276   0.355985  -0.046355
    13  C    0.004665  -0.039385   0.355394
    14  H   -0.000000   0.000000   0.000000
    15  H   -0.000000   0.000000  -0.000000
    16  H    0.000000  -0.000000   0.000000
    17  H    0.000000  -0.000000  -0.000000
    18  H    0.000000   0.000000   0.000001
    19  H   -0.000000   0.000000   0.000023
    20  H   -0.000000   0.000003   0.000584
    21  H   -0.000000  -0.000007   0.005395
    22  H   -0.000000   0.000003   0.000067
    23  H   -0.000185   0.000018  -0.000182
    24  H   -0.005591  -0.000192   0.000018
    25  H    0.603336  -0.005592  -0.000180
    26  H   -0.005592   0.601533  -0.005537
    27  H   -0.000180  -0.005537   0.602322
 Mulliken charges:
               1
     1  O   -0.430508
     2  C    0.426667
     3  C   -0.357073
     4  C   -0.306549
     5  C   -0.161483
     6  C   -0.254883
     7  C   -0.364757
     8  C    0.170637
     9  C   -0.180224
    10  C   -0.128244
    11  C   -0.131550
    12  C   -0.128293
    13  C   -0.183310
    14  H    0.171580
    15  H    0.173397
    16  H    0.154152
    17  H    0.147726
    18  H    0.155548
    19  H    0.143149
    20  H    0.141257
    21  H    0.176783
    22  H    0.136651
    23  H    0.118525
    24  H    0.126290
    25  H    0.126351
    26  H    0.127848
    27  H    0.130314
 Sum of Mulliken charges =  -0.00000
 Mulliken charges with hydrogens summed into heavy atoms:
               1
     1  O   -0.430508
     2  C    0.426667
     3  C   -0.012097
     4  C   -0.004671
     5  C   -0.005935
     6  C    0.029523
     7  C   -0.051323
     8  C    0.170637
     9  C   -0.061700
    10  C   -0.001955
    11  C   -0.005199
    12  C   -0.000445
    13  C   -0.052997
 APT charges:
               1
     1  O   -0.676573
     2  C    0.806976
     3  C   -0.095983
     4  C    0.048733
     5  C   -0.056311
     6  C    0.120465
     7  C    0.091605
     8  C    0.081778
     9  C   -0.064332
    10  C    0.008046
    11  C   -0.044719
    12  C    0.011122
    13  C   -0.068566
    14  H   -0.012571
    15  H    0.007035
    16  H   -0.022174
    17  H   -0.043317
    18  H   -0.020854
    19  H   -0.047213
    20  H   -0.035586
    21  H    0.005999
    22  H   -0.050063
    23  H    0.012396
    24  H    0.005727
    25  H    0.010372
    26  H    0.007361
    27  H    0.020648
 Sum of APT charges =  -0.00000
 APT charges with hydrogens summed into heavy atoms:
               1
     1  O   -0.676573
     2  C    0.806976
     3  C   -0.101519
     4  C   -0.016758
     5  C   -0.077166
     6  C    0.037665
     7  C    0.047541
     8  C    0.081778
     9  C   -0.051937
    10  C    0.013773
    11  C   -0.034346
    12  C    0.018483
    13  C   -0.047918
 Electronic spatial extent (au):  <R**2>=           3541.7573
 Charge=             -0.0000 electrons
 Dipole moment (field-independent basis, Debye):
    X=              0.8478    Y=             -2.4292    Z=              0.8012  Tot=              2.6947
 Quadrupole moment (field-independent basis, Debye-Ang):
   XX=            -69.4694   YY=            -78.4595   ZZ=            -77.6673
   XY=             -6.0690   XZ=              0.4200   YZ=              4.6142
 Traceless Quadrupole moment (field-independent basis, Debye-Ang):
   XX=              5.7294   YY=             -3.2608   ZZ=             -2.4686
   XY=             -6.0690   XZ=              0.4200   YZ=              4.6142
 Octapole moment (field-independent basis, Debye-Ang**2):
  XXX=             22.4161  YYY=             -3.9187  ZZZ=             -2.1115  XYY=            -14.3864
  XXY=            -18.0546  XXZ=             13.8327  XZZ=             13.5416  YZZ=              1.3489
  YYZ=              2.8410  XYZ=              0.8542
 Hexadecapole moment (field-independent basis, Debye-Ang**3):
 XXXX=          -3707.5632 YYYY=           -539.6294 ZZZZ=           -253.6390 XXXY=             -4.9706
 XXXZ=            -56.7168 YYYX=            -14.2566 YYYZ=             13.9524 ZZZX=             -1.5802
 ZZZY=             -1.1392 XXYY=           -764.6685 XXZZ=           -720.8351 YYZZ=           -131.6712
 XXYZ=             45.0114 YYXZ=              4.1026 ZZXY=              2.0754
 N-N= 7.198587128093D+02 E-N=-2.694536511608D+03  KE= 5.356977929055D+02
  Exact polarizability: 160.571   1.822 118.066  -8.776  11.405  81.277
 Approx polarizability: 206.198   4.924 201.172 -18.933  22.646 128.046
 Calling FoFJK, ICntrl=    100127 FMM=F ISym2X=0 I1Cent= 0 IOpClX= 0 NMat=1 NMatS=1 NMatT=0.
 Full mass-weighted force constant matrix:
 Low frequencies ---   -4.1425   -2.2863   -0.0003    0.0003    0.0006    0.9005
 Low frequencies ---   25.4495   38.8136   58.5560
 Diagonal vibrational polarizability:
       26.3750044       8.1574189      52.2531013
 Harmonic frequencies (cm**-1), IR intensities (KM/Mole), Raman scattering
 activities (A**4/AMU), depolarization ratios for plane and unpolarized
 incident light, reduced masses (AMU), force constants (mDyne/A),
 and normal coordinates:
                      1                      2                      3
                      A                      A                      A
 Frequencies --     25.4488                38.8128                58.5556
 Red. masses --      3.9470                 4.2394                 3.5415
 Frc consts  --      0.0015                 0.0038                 0.0072
 IR Inten    --      0.9077                 0.6539                 2.0876
  Atom  AN      X      Y      Z        X      Y      Z        X      Y      Z
     1   8     0.00   0.06   0.19     0.18  -0.04  -0.10     0.10  -0.04  -0.16
     2   6     0.00   0.02   0.06     0.09  -0.05  -0.06     0.01  -0.01   0.00
     3   6     0.01  -0.07  -0.01     0.08  -0.13  -0.10    -0.12   0.03   0.25
     4   6     0.00  -0.09  -0.13    -0.03  -0.02   0.03    -0.11  -0.04   0.03
     5   6    -0.00   0.01  -0.07    -0.03   0.02   0.05    -0.01  -0.01  -0.07
     6   6     0.00  -0.02  -0.06    -0.01   0.15   0.09    -0.03   0.02  -0.12
     7   6    -0.00   0.06  -0.01    -0.00   0.19   0.10    -0.01   0.09  -0.09
     8   6    -0.00   0.03  -0.00    -0.02   0.09   0.06     0.00   0.06  -0.06
     9   6     0.07  -0.06   0.17     0.06   0.03   0.01     0.04   0.02  -0.01
    10   6     0.07  -0.08   0.18     0.04  -0.08  -0.05     0.07  -0.04   0.07
    11   6    -0.00  -0.01   0.01    -0.07  -0.13  -0.06     0.06  -0.07   0.11
    12   6    -0.08   0.07  -0.17    -0.16  -0.06  -0.01     0.01  -0.03   0.06
    13   6    -0.07   0.09  -0.18    -0.14   0.04   0.05    -0.01   0.03  -0.02
    14   1     0.02  -0.15   0.05     0.19  -0.12  -0.16    -0.36   0.03   0.37
    15   1    -0.00  -0.00  -0.04     0.01  -0.26  -0.14     0.06   0.13   0.44
    16   1     0.01  -0.19  -0.12     0.02   0.09   0.05    -0.23  -0.17  -0.02
    17   1    -0.01  -0.08  -0.23    -0.14  -0.08   0.08    -0.03   0.01  -0.02
    18   1    -0.01   0.11  -0.12    -0.10  -0.03   0.07     0.02   0.00  -0.07
    19   1     0.00  -0.04  -0.13    -0.08   0.18   0.12    -0.05   0.01  -0.18
    20   1     0.00  -0.08  -0.02     0.05   0.17   0.08    -0.04  -0.04  -0.08
    21   1    -0.01   0.07   0.05    -0.03   0.21   0.17    -0.00   0.11  -0.03
    22   1    -0.01   0.11  -0.05     0.05   0.24   0.07    -0.01   0.15  -0.13
    23   1     0.13  -0.11   0.31     0.15   0.06   0.01     0.05   0.04  -0.04
    24   1     0.13  -0.15   0.32     0.11  -0.13  -0.09     0.10  -0.07   0.11
    25   1     0.00  -0.03   0.01    -0.09  -0.21  -0.10     0.08  -0.12   0.19
    26   1    -0.13   0.12  -0.31    -0.25  -0.10  -0.01     0.00  -0.05   0.09
    27   1    -0.13   0.15  -0.31    -0.21   0.09   0.09    -0.04   0.06  -0.05
                      4                      5                      6
                      A                      A                      A
 Frequencies --     83.0191               106.1331               170.3699
 Red. masses --      3.1664                 3.4194                 2.5657
 Frc consts  --      0.0129                 0.0227                 0.0439
 IR Inten    --      0.8764                 1.9468                 0.6387
  Atom  AN      X      Y      Z        X      Y      Z        X      Y      Z
     1   8    -0.09  -0.06  -0.12     0.20   0.07  -0.04    -0.12  -0.05   0.00
     2   6    -0.05  -0.01  -0.02     0.09   0.06   0.03    -0.07  -0.03   0.00
     3   6    -0.05   0.10   0.06     0.02   0.00   0.10    -0.05   0.00   0.01
     4   6     0.10  -0.05  -0.09     0.03  -0.06  -0.13     0.03  -0.09  -0.10
     5   6     0.04  -0.07  -0.03     0.03   0.09  -0.05    -0.06  -0.02   0.03
     6   6     0.05  -0.13   0.04     0.05   0.10   0.04    -0.01   0.18   0.16
     7   6     0.04   0.06   0.15    -0.06  -0.12   0.02     0.03  -0.01   0.02
     8   6     0.03   0.03   0.13    -0.05  -0.10   0.05     0.03   0.03  -0.05
     9   6     0.05   0.02   0.07    -0.10  -0.06   0.04     0.05   0.02  -0.06
    10   6     0.01   0.02  -0.06    -0.12   0.02  -0.01     0.06  -0.01  -0.02
    11   6    -0.05   0.03  -0.13    -0.09   0.05  -0.05     0.07  -0.03   0.02
    12   6    -0.07   0.03  -0.05    -0.03   0.01  -0.02     0.04  -0.01  -0.00
    13   6    -0.02   0.03   0.08    -0.02  -0.07   0.03     0.03   0.02  -0.05
    14   1    -0.23   0.10   0.14    -0.12  -0.08   0.23    -0.16  -0.02   0.07
    15   1     0.07   0.28   0.14     0.13   0.14   0.20     0.01   0.13   0.04
    16   1     0.11  -0.24  -0.09     0.03  -0.28  -0.13     0.11  -0.29  -0.07
    17   1     0.23   0.04  -0.23     0.05  -0.01  -0.33     0.07  -0.03  -0.30
    18   1     0.00  -0.02  -0.06    -0.06   0.16  -0.10    -0.23  -0.02   0.02
    19   1     0.06  -0.17  -0.12     0.12   0.12   0.22    -0.10   0.27   0.42
    20   1     0.09  -0.28   0.14     0.09   0.23  -0.03     0.08   0.42   0.02
    21   1     0.07   0.09   0.31    -0.12  -0.14  -0.17     0.04  -0.05  -0.14
    22   1     0.03   0.20   0.05    -0.08  -0.27   0.11     0.09  -0.18   0.14
    23   1     0.10   0.02   0.10    -0.14  -0.08   0.06     0.06   0.03  -0.07
    24   1     0.03   0.02  -0.11    -0.16   0.05  -0.03     0.07  -0.02  -0.00
    25   1    -0.09   0.04  -0.23    -0.10   0.12  -0.10     0.08  -0.06   0.07
    26   1    -0.11   0.04  -0.10     0.00   0.03  -0.04     0.04  -0.03   0.02
    27   1    -0.04   0.04   0.12     0.02  -0.10   0.04     0.02   0.03  -0.05
                      7                      8                      9
                      A                      A                      A
 Frequencies --    232.0067               260.7379               348.0742
 Red. masses --      3.3796                 4.5439                 2.4288
 Frc consts  --      0.1072                 0.1820                 0.1734
 IR Inten    --      1.9838                 1.5935                 0.2264
  Atom  AN      X      Y      Z        X      Y      Z        X      Y      Z
     1   8    -0.10  -0.03   0.09    -0.09  -0.11   0.09    -0.03  -0.03   0.00
     2   6     0.02  -0.06  -0.09     0.11  -0.10  -0.05     0.01  -0.02  -0.01
     3   6    -0.04  -0.02   0.04     0.13   0.07   0.06     0.01  -0.00   0.01
     4   6    -0.11   0.03   0.04     0.19   0.01   0.05     0.01  -0.01   0.00
     5   6     0.04  -0.05  -0.16     0.18  -0.11  -0.06     0.00   0.01   0.01
     6   6     0.07   0.16  -0.11     0.13   0.06  -0.06     0.00   0.08   0.00
     7   6    -0.01   0.02  -0.08    -0.01   0.02  -0.04     0.03   0.20   0.05
     8   6     0.05  -0.02   0.10    -0.07   0.05  -0.05    -0.02  -0.13  -0.05
     9   6     0.07  -0.04   0.13    -0.12   0.08  -0.08    -0.07  -0.12  -0.00
    10   6     0.03  -0.01  -0.01    -0.10   0.02   0.01    -0.07   0.01   0.02
    11   6    -0.02   0.04  -0.13    -0.09  -0.04   0.13     0.01   0.06   0.01
    12   6     0.01  -0.01   0.01    -0.12   0.00   0.01     0.08   0.00  -0.01
    13   6     0.05  -0.04   0.14    -0.14   0.05  -0.08     0.04  -0.12  -0.06
    14   1    -0.08   0.04   0.01    -0.04   0.18   0.07    -0.02   0.01   0.01
    15   1    -0.00  -0.13   0.12     0.23   0.10   0.18     0.03   0.00   0.03
    16   1    -0.28   0.17  -0.02     0.14   0.01   0.04     0.03  -0.03   0.01
    17   1    -0.09  -0.00   0.23     0.29   0.05   0.10     0.01  -0.00  -0.02
    18   1     0.04  -0.18  -0.08     0.19  -0.23   0.01    -0.03  -0.01   0.02
    19   1     0.00   0.24   0.13     0.07   0.11   0.08    -0.06   0.09  -0.08
    20   1     0.21   0.34  -0.21     0.23   0.17  -0.12     0.03   0.02   0.05
    21   1    -0.08   0.02  -0.22    -0.04   0.01  -0.10    -0.15   0.36   0.41
    22   1    -0.11  -0.06  -0.03    -0.06  -0.02  -0.02     0.27   0.51  -0.13
    23   1     0.11  -0.05   0.18    -0.15   0.09  -0.13    -0.15  -0.17   0.02
    24   1     0.03  -0.00  -0.05    -0.07   0.00   0.02    -0.14   0.06   0.06
    25   1    -0.08   0.09  -0.30    -0.05  -0.10   0.26     0.01   0.13   0.01
    26   1    -0.02   0.00  -0.03    -0.11  -0.00   0.03     0.17   0.04  -0.01
    27   1     0.06  -0.05   0.19    -0.19   0.10  -0.12     0.11  -0.17  -0.10
                     10                     11                     12
                      A                      A                      A
 Frequencies --    358.5577               417.4019               440.7769
 Red. masses --      3.4152                 2.9956                 2.8892
 Frc consts  --      0.2587                 0.3075                 0.3307
 IR Inten    --      0.4710                 0.0002                 2.6253
  Atom  AN      X      Y      Z        X      Y      Z        X      Y      Z
     1   8     0.04   0.07   0.06     0.00   0.00  -0.00     0.15   0.04   0.13
     2   6     0.02   0.00  -0.13    -0.00   0.00   0.00     0.01  -0.09  -0.17
     3   6    -0.09  -0.00   0.01    -0.00  -0.00   0.00    -0.05   0.11  -0.07
     4   6    -0.16   0.06  -0.02     0.00  -0.00   0.00     0.06   0.04   0.00
     5   6     0.00  -0.05  -0.18     0.00  -0.00  -0.00    -0.09  -0.11   0.03
     6   6     0.11  -0.06   0.11     0.00  -0.00  -0.00    -0.12  -0.04   0.04
     7   6     0.05  -0.05   0.21    -0.00  -0.01  -0.00    -0.03   0.01  -0.03
     8   6     0.01  -0.04   0.04     0.00   0.01   0.00    -0.03   0.02  -0.06
     9   6    -0.03   0.01  -0.09     0.06  -0.07   0.19     0.01  -0.01   0.02
    10   6    -0.01   0.02  -0.04    -0.06   0.07  -0.19     0.02  -0.02   0.02
    11   6     0.05  -0.03   0.10    -0.00  -0.00  -0.00    -0.00   0.02  -0.05
    12   6     0.01   0.02  -0.05     0.06  -0.08   0.19     0.02  -0.01   0.03
    13   6    -0.01   0.02  -0.09    -0.06   0.08  -0.19     0.01  -0.00   0.02
    14   1    -0.14   0.05  -0.01     0.01  -0.00  -0.00    -0.50   0.37  -0.05
    15   1    -0.03  -0.11   0.11    -0.00  -0.00  -0.01     0.23   0.20   0.25
    16   1    -0.38   0.21  -0.09    -0.00   0.00   0.00     0.18  -0.03   0.04
    17   1    -0.14   0.02   0.22     0.00  -0.00   0.00     0.15   0.10  -0.08
    18   1    -0.08  -0.13  -0.13     0.00   0.00  -0.00    -0.15  -0.30   0.13
    19   1     0.17  -0.06   0.19     0.01  -0.01   0.00    -0.20  -0.01   0.03
    20   1     0.30  -0.04   0.12    -0.00  -0.00  -0.00    -0.13  -0.01   0.02
    21   1     0.06  -0.04   0.27     0.00  -0.01  -0.01     0.02   0.01   0.02
    22   1     0.12   0.00   0.18    -0.00  -0.02   0.00     0.00   0.03  -0.04
    23   1    -0.05   0.04  -0.15     0.14  -0.15   0.40     0.04  -0.03   0.07
    24   1    -0.03   0.04  -0.07    -0.12   0.16  -0.40     0.03  -0.03   0.07
    25   1     0.09  -0.08   0.23    -0.00  -0.01   0.00    -0.02   0.04  -0.10
    26   1     0.01   0.03  -0.08     0.12  -0.16   0.40     0.03  -0.03   0.08
    27   1    -0.02   0.03  -0.16    -0.14   0.17  -0.40     0.04  -0.03   0.07
                     13                     14                     15
                      A                      A                      A
 Frequencies --    518.3259               542.2643               586.8189
 Red. masses --      3.2179                 2.6119                 3.9456
 Frc consts  --      0.5094                 0.4525                 0.8005
 IR Inten    --      6.7016                 3.1200                 2.6919
  Atom  AN      X      Y      Z        X      Y      Z        X      Y      Z
     1   8    -0.01  -0.03   0.02    -0.13  -0.03   0.01    -0.03   0.04   0.01
     2   6     0.03  -0.03  -0.03     0.13  -0.00  -0.12     0.01   0.00  -0.10
     3   6     0.05   0.00  -0.01     0.15  -0.08   0.03    -0.01  -0.05  -0.04
     4   6     0.03   0.01   0.01    -0.06   0.03  -0.04    -0.06  -0.01  -0.00
     5   6    -0.04   0.05   0.05    -0.01   0.16   0.03    -0.04   0.06   0.10
     6   6    -0.08   0.04  -0.08    -0.03  -0.03   0.05     0.01   0.01  -0.01
     7   6    -0.15   0.01   0.00    -0.03  -0.04   0.05     0.22   0.00  -0.12
     8   6    -0.01  -0.08   0.25    -0.05   0.04  -0.07     0.21  -0.05   0.05
     9   6     0.02  -0.05  -0.02     0.00  -0.00  -0.01     0.03   0.09   0.08
    10   6     0.01  -0.01  -0.13     0.02  -0.03   0.03    -0.04   0.13  -0.02
    11   6     0.16  -0.06   0.11     0.01   0.02  -0.07    -0.17  -0.03   0.16
    12   6     0.02   0.08  -0.10     0.02  -0.00   0.04    -0.07  -0.07  -0.09
    13   6     0.03   0.05   0.01     0.00   0.03  -0.00    -0.01  -0.12   0.01
    14   1    -0.15   0.07   0.03    -0.26  -0.03   0.19    -0.29   0.04   0.04
    15   1     0.18   0.04   0.14     0.47  -0.11   0.44     0.21  -0.04   0.23
    16   1     0.13  -0.05   0.04    -0.03   0.04  -0.03     0.07  -0.09   0.04
    17   1    -0.01   0.01  -0.10    -0.24  -0.03  -0.09    -0.15  -0.02  -0.16
    18   1    -0.00   0.01   0.07    -0.05   0.12   0.04    -0.05  -0.00   0.13
    19   1    -0.07   0.02  -0.15     0.16  -0.13  -0.16    -0.01  -0.02  -0.14
    20   1    -0.17  -0.02  -0.05    -0.15  -0.21   0.15    -0.17  -0.05   0.01
    21   1    -0.25   0.04  -0.04     0.01  -0.06   0.03     0.22  -0.00  -0.11
    22   1    -0.28   0.03  -0.02     0.00  -0.06   0.07     0.22  -0.03  -0.09
    23   1     0.03   0.08  -0.24     0.06  -0.02   0.07    -0.17   0.07  -0.03
    24   1    -0.12   0.12  -0.33     0.04  -0.06   0.13     0.02   0.12  -0.26
    25   1     0.18  -0.09   0.16     0.01   0.02  -0.08    -0.17  -0.03   0.15
    26   1    -0.12   0.14  -0.33     0.03  -0.05   0.14     0.01   0.06  -0.28
    27   1     0.03   0.08  -0.24     0.05  -0.02   0.07    -0.18   0.01  -0.05
                     16                     17                     18
                      A                      A                      A
 Frequencies --    636.7427               688.2548               715.3319
 Red. masses --      6.3335                 3.2731                 1.9954
 Frc consts  --      1.5130                 0.9135                 0.6016
 IR Inten    --      0.0208                 2.4592                20.3025
  Atom  AN      X      Y      Z        X      Y      Z        X      Y      Z
     1   8    -0.00   0.00   0.00    -0.06   0.21  -0.04    -0.01   0.02  -0.01
     2   6     0.00   0.00  -0.00     0.01   0.13  -0.18     0.01   0.02  -0.01
     3   6     0.00  -0.00  -0.00    -0.07  -0.11   0.03     0.02  -0.01   0.02
     4   6    -0.00   0.00  -0.00     0.03  -0.13   0.14     0.01  -0.00  -0.00
     5   6    -0.00   0.00   0.00     0.07  -0.07   0.08     0.00  -0.03  -0.02
     6   6    -0.00  -0.01  -0.00     0.05  -0.01  -0.03    -0.02  -0.01   0.01
     7   6    -0.01  -0.04  -0.02    -0.02   0.00  -0.01    -0.01  -0.00  -0.01
     8   6    -0.02  -0.13  -0.04    -0.03  -0.00   0.02    -0.05   0.04  -0.10
     9   6     0.20  -0.20  -0.14    -0.02  -0.02  -0.02     0.02  -0.04   0.08
    10   6     0.28   0.22  -0.00    -0.01  -0.04   0.01    -0.05   0.04  -0.14
    11   6     0.02   0.13   0.05     0.03   0.01  -0.03     0.04  -0.03   0.07
    12   6    -0.21   0.24   0.16     0.00   0.02   0.03    -0.05   0.06  -0.13
    13   6    -0.26  -0.18   0.01    -0.01   0.04  -0.00     0.02  -0.02   0.08
    14   1    -0.01  -0.00   0.01     0.10  -0.08  -0.06     0.06  -0.05   0.03
    15   1     0.01   0.00   0.01    -0.09  -0.39   0.09     0.00  -0.03   0.01
    16   1     0.00   0.00   0.00     0.18  -0.52   0.19    -0.01   0.01  -0.01
    17   1    -0.01  -0.00  -0.00     0.14  -0.00  -0.25     0.03  -0.00   0.03
    18   1     0.01   0.00   0.00     0.12  -0.32   0.22    -0.01  -0.04  -0.01
    19   1     0.01  -0.01   0.02     0.02   0.01   0.03    -0.04   0.00   0.07
    20   1    -0.01   0.01  -0.02     0.05   0.03  -0.05     0.01   0.03  -0.01
    21   1    -0.01  -0.05  -0.07    -0.05   0.02   0.02     0.03  -0.01   0.03
    22   1    -0.01  -0.09   0.02    -0.05   0.05  -0.04     0.03   0.03  -0.03
    23   1     0.06  -0.26  -0.12     0.01  -0.00  -0.04     0.15  -0.19   0.45
    24   1     0.16   0.30   0.07    -0.03  -0.02   0.05     0.03  -0.06   0.15
    25   1    -0.04  -0.27  -0.10     0.03   0.01  -0.04     0.17  -0.20   0.49
    26   1    -0.06   0.31   0.14    -0.03  -0.00   0.05     0.03  -0.05   0.14
    27   1    -0.14  -0.25  -0.06     0.01   0.02  -0.03     0.15  -0.17   0.45
                     19                     20                     21
                      A                      A                      A
 Frequencies --    737.7333               756.7380               774.8380
 Red. masses --      1.7263                 1.5483                 2.2194
 Frc consts  --      0.5536                 0.5224                 0.7851
 IR Inten    --      8.6206                11.3776                13.0622
  Atom  AN      X      Y      Z        X      Y      Z        X      Y      Z
     1   8    -0.03   0.07  -0.04    -0.01  -0.02   0.01    -0.01   0.00  -0.00
     2   6    -0.00   0.08   0.01     0.08  -0.00  -0.04     0.04   0.02  -0.01
     3   6     0.10  -0.06   0.04     0.03   0.05   0.10     0.06   0.01   0.07
     4   6     0.05   0.01  -0.04    -0.01   0.05  -0.01     0.01   0.04  -0.01
     5   6    -0.01  -0.10  -0.03    -0.02  -0.01  -0.06    -0.04  -0.03  -0.04
     6   6    -0.09  -0.06   0.03    -0.07  -0.00   0.06    -0.10  -0.01  -0.02
     7   6    -0.01  -0.01  -0.03    -0.01   0.01  -0.00    -0.06  -0.02   0.02
     8   6     0.00   0.01  -0.02    -0.01   0.02  -0.07     0.08  -0.06   0.13
     9   6     0.01   0.00   0.02     0.02  -0.01   0.04     0.02   0.09  -0.05
    10   6     0.01   0.00   0.01     0.01   0.01   0.01     0.05   0.07   0.02
    11   6     0.00  -0.01   0.03     0.00  -0.02   0.05    -0.09   0.04  -0.07
    12   6     0.00  -0.01   0.01     0.01  -0.01  -0.01     0.03  -0.07  -0.03
    13   6     0.01  -0.01   0.02     0.01  -0.03   0.03    -0.00  -0.04  -0.09
    14   1    -0.01  -0.25   0.24     0.45   0.06  -0.11     0.26  -0.03  -0.00
    15   1     0.20   0.12   0.10    -0.23  -0.31  -0.12    -0.06  -0.15  -0.03
    16   1    -0.03   0.32  -0.07    -0.10  -0.27  -0.04    -0.02  -0.10  -0.02
    17   1    -0.03  -0.10   0.29     0.20   0.19  -0.20     0.11   0.10  -0.09
    18   1    -0.01  -0.05  -0.06    -0.20  -0.13  -0.01    -0.09  -0.10  -0.01
    19   1    -0.23   0.06   0.36    -0.05  -0.05  -0.12    -0.14   0.03   0.11
    20   1     0.01   0.25  -0.15    -0.11  -0.14   0.13    -0.10   0.11  -0.09
    21   1     0.05   0.02   0.20     0.03  -0.02  -0.07    -0.10   0.02   0.13
    22   1     0.02   0.17  -0.14     0.03  -0.08   0.07    -0.13   0.09  -0.06
    23   1    -0.03   0.06  -0.11    -0.03   0.04  -0.08     0.02   0.02   0.08
    24   1    -0.04   0.08  -0.19    -0.06   0.10  -0.25     0.26  -0.14   0.35
    25   1    -0.07   0.08  -0.20    -0.08   0.09  -0.22     0.06  -0.15   0.40
    26   1    -0.06   0.07  -0.20    -0.05   0.09  -0.25     0.24  -0.18   0.33
    27   1    -0.05   0.05  -0.12    -0.03   0.02  -0.07    -0.00  -0.06   0.04
                     22                     23                     24
                      A                      A                      A
 Frequencies --    793.7318               833.7729               861.2992
 Red. masses --      1.3237                 3.4996                 1.2484
 Frc consts  --      0.4914                 1.4334                 0.5456
 IR Inten    --      1.0913                 0.9918                 0.0109
  Atom  AN      X      Y      Z        X      Y      Z        X      Y      Z
     1   8     0.01  -0.04   0.01    -0.00  -0.01   0.00    -0.00   0.00   0.00
     2   6     0.02  -0.03   0.01     0.03   0.01  -0.00    -0.00   0.00  -0.00
     3   6    -0.01   0.03  -0.01     0.06   0.03   0.05    -0.00  -0.00   0.00
     4   6    -0.05   0.03   0.01    -0.05   0.08  -0.09     0.00  -0.00  -0.00
     5   6    -0.00   0.07   0.03    -0.04  -0.06   0.02    -0.00  -0.00  -0.00
     6   6     0.02  -0.06  -0.04    -0.03  -0.02   0.04    -0.00   0.01   0.00
     7   6     0.00  -0.08  -0.02     0.23   0.02  -0.13     0.00   0.00  -0.00
     8   6    -0.01   0.01  -0.02     0.05  -0.05   0.12     0.00  -0.00   0.00
     9   6    -0.00   0.01   0.01    -0.07  -0.10  -0.04    -0.02   0.03  -0.07
    10   6     0.00  -0.01  -0.00    -0.11  -0.14  -0.02    -0.02   0.03  -0.06
    11   6     0.01  -0.01   0.01     0.07   0.02  -0.09     0.00  -0.00   0.00
    12   6    -0.01   0.02   0.01    -0.07   0.14   0.08     0.02  -0.02   0.07
    13   6     0.00   0.02   0.02    -0.04   0.11   0.04     0.02  -0.02   0.07
    14   1     0.03   0.14  -0.12     0.21  -0.07   0.05     0.00  -0.01   0.00
    15   1    -0.04  -0.11  -0.01    -0.03  -0.07  -0.03    -0.00   0.00  -0.00
    16   1     0.02  -0.22   0.03    -0.09   0.02  -0.10    -0.00   0.01  -0.00
    17   1    -0.04   0.10  -0.27    -0.02   0.09  -0.09     0.01  -0.00   0.02
    18   1     0.12   0.07   0.04    -0.20  -0.13   0.04    -0.02  -0.00  -0.00
    19   1     0.14   0.01   0.41    -0.18   0.01  -0.04     0.01  -0.00  -0.02
    20   1     0.01   0.32  -0.27    -0.14  -0.00   0.01    -0.02  -0.02   0.01
    21   1     0.06   0.02   0.44     0.28   0.00  -0.13    -0.00   0.00  -0.01
    22   1     0.06   0.33  -0.28     0.25  -0.04  -0.09     0.00  -0.01   0.00
    23   1     0.02   0.01   0.02    -0.07  -0.05  -0.15     0.14  -0.19   0.45
    24   1    -0.01   0.01  -0.04    -0.21  -0.11   0.24     0.14  -0.17   0.43
    25   1    -0.01  -0.00  -0.06     0.18  -0.11   0.26    -0.00   0.00  -0.01
    26   1    -0.07   0.03  -0.04    -0.19  -0.01   0.28    -0.14   0.17  -0.44
    27   1    -0.01   0.04  -0.01    -0.03   0.13  -0.07    -0.14   0.17  -0.44
                     25                     26                     27
                      A                      A                      A
 Frequencies --    917.9864               926.9188               939.2879
 Red. masses --      1.6597                 1.9286                 2.3548
 Frc consts  --      0.8240                 0.9763                 1.2240
 IR Inten    --      1.0459                 1.9751                 3.7672
  Atom  AN      X      Y      Z        X      Y      Z        X      Y      Z
     1   8    -0.01  -0.00   0.01     0.00  -0.01   0.01     0.02  -0.02   0.01
     2   6     0.01  -0.01  -0.03    -0.02  -0.02  -0.03    -0.10  -0.03   0.01
     3   6    -0.07  -0.04   0.01    -0.08  -0.09   0.03    -0.06  -0.15   0.04
     4   6     0.10  -0.05   0.05     0.14   0.04   0.03     0.06   0.25  -0.05
     5   6    -0.00   0.09  -0.06    -0.04   0.08  -0.06    -0.04  -0.00   0.01
     6   6    -0.03   0.01   0.05    -0.04   0.04  -0.01     0.07  -0.01  -0.03
     7   6    -0.01  -0.03  -0.03     0.05  -0.05  -0.01    -0.02   0.02   0.03
     8   6    -0.01   0.01  -0.03     0.04  -0.03   0.05    -0.02   0.02  -0.04
     9   6     0.02  -0.02   0.07    -0.03   0.03  -0.07     0.01  -0.01   0.03
    10   6     0.00   0.00  -0.01    -0.01  -0.02   0.01     0.00   0.01  -0.00
    11   6    -0.02   0.02  -0.07     0.03  -0.03   0.06    -0.01   0.01  -0.03
    12   6    -0.01   0.01   0.00    -0.02   0.03   0.01     0.01  -0.01  -0.00
    13   6     0.02  -0.01   0.07    -0.02   0.05  -0.06     0.01  -0.02   0.03
    14   1    -0.07   0.06  -0.07    -0.05  -0.11   0.03    -0.06  -0.45   0.24
    15   1    -0.07  -0.08   0.02    -0.08  -0.15   0.05    -0.03  -0.18   0.09
    16   1    -0.07   0.09  -0.01     0.05   0.13  -0.00     0.37   0.07   0.05
    17   1     0.26  -0.04   0.28     0.31   0.08   0.20     0.04   0.30  -0.32
    18   1    -0.16   0.23  -0.16    -0.19   0.15  -0.12     0.15  -0.20   0.14
    19   1     0.15  -0.05   0.01     0.09  -0.02  -0.06     0.07   0.01   0.00
    20   1    -0.15  -0.01   0.04    -0.18   0.02  -0.02     0.19  -0.01  -0.02
    21   1     0.02   0.00   0.14     0.03  -0.00   0.12    -0.02  -0.01  -0.06
    22   1     0.11   0.08  -0.10     0.10   0.07  -0.08    -0.04  -0.04   0.06
    23   1    -0.12   0.16  -0.37     0.11  -0.15   0.37    -0.05   0.07  -0.16
    24   1     0.02  -0.01   0.02    -0.03   0.00  -0.03     0.01   0.01  -0.00
    25   1     0.13  -0.18   0.41    -0.13   0.15  -0.41     0.05  -0.06   0.17
    26   1    -0.02  -0.01   0.02    -0.04  -0.01   0.06     0.01   0.01  -0.05
    27   1    -0.12   0.16  -0.35     0.11  -0.12   0.37    -0.05   0.05  -0.15
                     28                     29                     30
                      A                      A                      A
 Frequencies --    963.2578               965.7334               992.9341
 Red. masses --      1.3959                 1.3547                 1.2580
 Frc consts  --      0.7631                 0.7444                 0.7307
 IR Inten    --      0.2113                 0.1215                 0.0858
  Atom  AN      X      Y      Z        X      Y      Z        X      Y      Z
     1   8     0.00   0.00  -0.01    -0.00  -0.00   0.01    -0.00   0.00  -0.00
     2   6    -0.04   0.00   0.04     0.02  -0.00  -0.02     0.00   0.00  -0.00
     3   6     0.04  -0.03  -0.03    -0.02   0.01   0.01     0.00   0.00   0.00
     4   6     0.01   0.01   0.06    -0.00  -0.01  -0.02     0.00  -0.01   0.01
     5   6    -0.03   0.01  -0.05     0.01  -0.00   0.02    -0.01   0.00  -0.01
     6   6    -0.06  -0.04  -0.04     0.02   0.02   0.02    -0.01   0.01  -0.02
     7   6     0.04   0.05   0.06    -0.02  -0.03  -0.03     0.01  -0.01   0.02
     8   6     0.01   0.01  -0.00    -0.00  -0.01   0.00     0.00   0.00  -0.01
     9   6     0.01  -0.04   0.02     0.02  -0.02   0.07    -0.01   0.01  -0.03
    10   6    -0.03  -0.00  -0.04    -0.01   0.04  -0.07     0.02  -0.03   0.06
    11   6     0.00   0.01   0.00     0.00  -0.01   0.01    -0.02   0.03  -0.07
    12   6     0.01  -0.01   0.04     0.02  -0.03   0.07     0.02  -0.02   0.07
    13   6    -0.02  -0.00  -0.04    -0.02   0.04  -0.07    -0.01   0.01  -0.04
    14   1    -0.10   0.23  -0.15     0.05  -0.10   0.06     0.01  -0.01   0.01
    15   1     0.16  -0.27   0.20    -0.08   0.12  -0.09    -0.01   0.04  -0.02
    16   1    -0.06  -0.19   0.03     0.02   0.09  -0.02     0.02   0.00   0.01
    17   1     0.17   0.10  -0.06    -0.07  -0.05   0.03    -0.02  -0.01   0.00
    18   1     0.24   0.33  -0.20    -0.12  -0.15   0.09    -0.01  -0.03   0.01
    19   1    -0.28   0.07   0.12     0.13  -0.03  -0.05    -0.00   0.01  -0.03
    20   1     0.20   0.09  -0.09    -0.10  -0.04   0.04    -0.02   0.00  -0.02
    21   1     0.16  -0.05  -0.15    -0.08   0.02   0.08     0.00  -0.01   0.02
    22   1    -0.05  -0.16   0.18     0.03   0.08  -0.09     0.02  -0.00   0.01
    23   1    -0.07   0.04  -0.19    -0.12   0.17  -0.38     0.07  -0.09   0.23
    24   1     0.01  -0.08   0.22     0.16  -0.18   0.42    -0.14   0.17  -0.43
    25   1     0.01   0.04   0.01    -0.02  -0.00  -0.06     0.15  -0.20   0.48
    26   1    -0.04   0.09  -0.20    -0.13   0.14  -0.37    -0.16   0.19  -0.47
    27   1     0.05  -0.08   0.17     0.13  -0.15   0.41     0.09  -0.11   0.27
                     31                     32                     33
                      A                      A                      A
 Frequencies --   1013.5182              1018.5285              1041.8702
 Red. masses --      2.5105                 6.0383                 2.8237
 Frc consts  --      1.5194                 3.6907                 1.8059
 IR Inten    --      0.3523                 0.1761                44.0663
  Atom  AN      X      Y      Z        X      Y      Z        X      Y      Z
     1   8    -0.00   0.00  -0.00    -0.00   0.00  -0.00    -0.04  -0.05   0.01
     2   6     0.01   0.00  -0.01     0.00   0.00   0.00     0.25   0.04  -0.02
     3   6     0.04   0.02   0.02     0.01   0.01   0.00    -0.20  -0.02  -0.02
     4   6     0.01  -0.04   0.08     0.00  -0.01   0.03    -0.00   0.00  -0.05
     5   6    -0.08   0.02  -0.09    -0.03   0.01  -0.03     0.10   0.06   0.03
     6   6    -0.10   0.10  -0.17    -0.03   0.03  -0.05    -0.11  -0.08  -0.00
     7   6     0.09  -0.10   0.18     0.04  -0.03   0.05     0.02   0.08   0.04
     8   6     0.01   0.01  -0.05     0.03   0.00  -0.03     0.01   0.03   0.02
     9   6     0.02  -0.04   0.00    -0.12   0.33   0.18     0.01  -0.04  -0.02
    10   6    -0.01  -0.01  -0.01    -0.04  -0.06  -0.02    -0.03  -0.03  -0.00
    11   6    -0.04  -0.00   0.02     0.34  -0.02  -0.11     0.00   0.03   0.01
    12   6    -0.02   0.02   0.00    -0.02   0.07   0.03     0.02  -0.01  -0.01
    13   6     0.04   0.04   0.03    -0.22  -0.32  -0.04    -0.02  -0.04  -0.01
    14   1     0.09  -0.13   0.11     0.02  -0.02   0.02    -0.10  -0.20   0.06
    15   1    -0.03   0.39  -0.19    -0.00   0.10  -0.05    -0.29   0.21  -0.20
    16   1     0.34  -0.02   0.20     0.09  -0.01   0.06     0.18   0.21   0.01
    17   1    -0.23  -0.12  -0.10    -0.05  -0.03  -0.03     0.03  -0.00   0.05
    18   1     0.04  -0.30   0.10     0.00  -0.07   0.02     0.33  -0.03   0.10
    19   1    -0.04   0.07  -0.20    -0.02   0.02  -0.06    -0.24   0.02   0.23
    20   1    -0.08   0.04  -0.13    -0.02   0.02  -0.04    -0.06   0.15  -0.13
    21   1     0.13  -0.11   0.20     0.02  -0.02   0.05     0.31  -0.07  -0.14
    22   1     0.23  -0.09   0.18     0.05  -0.03   0.05    -0.25  -0.11   0.14
    23   1    -0.04   0.01  -0.14    -0.09   0.39   0.12     0.07  -0.02  -0.01
    24   1     0.01  -0.04   0.06     0.01  -0.09  -0.01    -0.09   0.01   0.03
    25   1    -0.07  -0.00  -0.04     0.35  -0.01  -0.14     0.02   0.14   0.05
    26   1    -0.01  -0.01   0.09     0.03   0.06   0.05     0.10   0.03  -0.02
    27   1    -0.01   0.10  -0.13    -0.20  -0.33  -0.14    -0.05  -0.03   0.01
                     34                     35                     36
                      A                      A                      A
 Frequencies --   1059.0871              1074.3975              1096.2283
 Red. masses --      2.2158                 2.0217                 2.3466
 Frc consts  --      1.4644                 1.3750                 1.6615
 IR Inten    --      2.2394                 3.3737                27.0229
  Atom  AN      X      Y      Z        X      Y      Z        X      Y      Z
     1   8     0.00   0.00  -0.00    -0.01  -0.00  -0.01     0.02   0.02   0.02
     2   6    -0.01  -0.00   0.00     0.07   0.04   0.05    -0.11  -0.06  -0.10
     3   6     0.00  -0.00  -0.00    -0.06  -0.01  -0.05     0.02   0.04   0.07
     4   6    -0.00   0.00  -0.00    -0.04   0.04  -0.08     0.04  -0.01  -0.11
     5   6     0.00  -0.00   0.00     0.10  -0.09   0.09     0.06  -0.01   0.16
     6   6     0.01  -0.00   0.01    -0.05   0.08  -0.05    -0.00   0.04  -0.11
     7   6    -0.03   0.00  -0.00     0.02  -0.09   0.06     0.03  -0.03   0.10
     8   6     0.02  -0.00  -0.01    -0.02  -0.04  -0.03    -0.02   0.06  -0.02
     9   6     0.06   0.05   0.00    -0.03   0.05   0.03     0.05  -0.04  -0.02
    10   6    -0.05  -0.17  -0.05     0.04   0.03   0.00    -0.03  -0.03  -0.00
    11   6    -0.14   0.01   0.05    -0.01  -0.04  -0.02     0.00   0.05   0.02
    12   6     0.00   0.18   0.07    -0.02   0.03   0.02     0.03  -0.03  -0.02
    13   6     0.05  -0.06  -0.04     0.05   0.04   0.01    -0.05  -0.04   0.01
    14   1    -0.00   0.00  -0.00    -0.14   0.02  -0.04     0.21  -0.02   0.02
    15   1     0.01  -0.01   0.01     0.04  -0.26   0.16    -0.07  -0.23   0.04
    16   1    -0.01  -0.01  -0.00    -0.18   0.03  -0.14    -0.39   0.12  -0.25
    17   1     0.00   0.00  -0.00     0.27   0.15   0.07     0.02  -0.09   0.18
    18   1    -0.00   0.00   0.00     0.22   0.13  -0.02    -0.08   0.20   0.03
    19   1     0.02  -0.01   0.01    -0.31   0.12  -0.24     0.05   0.04  -0.06
    20   1     0.02  -0.01   0.02    -0.13  -0.05   0.03    -0.28   0.13  -0.19
    21   1    -0.06   0.01  -0.01    -0.29   0.04   0.14     0.16  -0.08   0.07
    22   1    -0.05   0.02  -0.01     0.34  -0.01   0.03    -0.21   0.00   0.06
    23   1     0.37   0.20  -0.04    -0.14   0.01   0.01     0.20   0.06  -0.09
    24   1     0.24  -0.38  -0.23     0.15  -0.04  -0.06    -0.13   0.03   0.05
    25   1    -0.16   0.00   0.06    -0.04  -0.24  -0.08     0.04   0.27   0.10
    26   1     0.35   0.35   0.03    -0.14  -0.02   0.04     0.17   0.03  -0.04
    27   1     0.30  -0.22  -0.19     0.13  -0.01  -0.08    -0.19   0.06   0.03
                     37                     38                     39
                      A                      A                      A
 Frequencies --   1114.9200              1136.3537              1186.6886
 Red. masses --      1.9659                 1.6600                 1.5078
 Frc consts  --      1.4398                 1.2629                 1.2510
 IR Inten    --     35.7424                 3.0840                 5.3711
  Atom  AN      X      Y      Z        X      Y      Z        X      Y      Z
     1   8    -0.02  -0.00  -0.02     0.01  -0.00   0.00    -0.01  -0.01   0.01
     2   6     0.11   0.08   0.13    -0.06  -0.02  -0.00     0.06  -0.01  -0.07
     3   6    -0.01  -0.02  -0.08     0.00  -0.02  -0.01    -0.02   0.03   0.06
     4   6    -0.05   0.01   0.01     0.00   0.03   0.03     0.01  -0.03  -0.02
     5   6    -0.08  -0.08  -0.01     0.11   0.01  -0.07    -0.12   0.00   0.06
     6   6     0.07   0.04  -0.04    -0.08   0.04   0.09     0.06  -0.04  -0.03
     7   6    -0.00  -0.05   0.01    -0.02  -0.06  -0.06    -0.01  -0.02  -0.01
     8   6    -0.00   0.03  -0.00     0.01  -0.01   0.02    -0.01  -0.03  -0.01
     9   6     0.06  -0.03  -0.03     0.06   0.00  -0.02     0.03   0.02  -0.00
    10   6    -0.04  -0.03  -0.00    -0.03  -0.02   0.00    -0.02   0.01   0.01
    11   6     0.01   0.05   0.02     0.01   0.04   0.01    -0.00  -0.01  -0.00
    12   6     0.03  -0.04  -0.02     0.02  -0.02  -0.02     0.02   0.00  -0.01
    13   6    -0.06  -0.02   0.02    -0.06   0.01   0.02    -0.02   0.02   0.02
    14   1    -0.21   0.07  -0.05    -0.04  -0.03   0.01     0.16   0.01  -0.01
    15   1     0.15  -0.09   0.14     0.01   0.06  -0.02    -0.12  -0.02  -0.05
    16   1     0.09  -0.04   0.06    -0.03  -0.09   0.01     0.27   0.17   0.07
    17   1     0.38   0.19   0.07    -0.20  -0.03  -0.16    -0.04  -0.07   0.08
    18   1    -0.40  -0.15   0.01     0.45  -0.03  -0.02    -0.01   0.37  -0.14
    19   1     0.15  -0.01  -0.11    -0.15   0.01  -0.10    -0.28   0.08   0.01
    20   1    -0.07  -0.03  -0.01    -0.03  -0.12   0.19     0.46  -0.05   0.01
    21   1    -0.03  -0.02   0.09    -0.21   0.05   0.11    -0.35   0.09  -0.05
    22   1    -0.04   0.08  -0.08     0.36   0.01  -0.07     0.30  -0.04   0.02
    23   1     0.29   0.09  -0.08     0.32   0.11  -0.04     0.18   0.09  -0.02
    24   1    -0.15   0.04   0.07    -0.12   0.03   0.06    -0.08   0.05   0.05
    25   1     0.05   0.32   0.12     0.05   0.29   0.10    -0.01  -0.05  -0.02
    26   1     0.16   0.03  -0.04     0.12   0.02  -0.03     0.10   0.04  -0.02
    27   1    -0.26   0.11   0.11    -0.28   0.14   0.18    -0.14   0.10   0.08
                     40                     41                     42
                      A                      A                      A
 Frequencies --   1192.1570              1212.7853              1213.5638
 Red. masses --      1.1040                 1.3835                 1.1517
 Frc consts  --      0.9245                 1.1990                 0.9993
 IR Inten    --      0.0493                 0.5639                 0.1244
  Atom  AN      X      Y      Z        X      Y      Z        X      Y      Z
     1   8    -0.00  -0.00   0.00    -0.01   0.02  -0.02    -0.00   0.00  -0.00
     2   6     0.01  -0.00  -0.01     0.02   0.02   0.05     0.00   0.00   0.01
     3   6    -0.00   0.01   0.01    -0.01  -0.11   0.09    -0.00  -0.02   0.01
     4   6     0.00  -0.00  -0.00     0.07   0.03  -0.06     0.01   0.00  -0.01
     5   6    -0.02  -0.00   0.01    -0.01   0.01  -0.00    -0.00   0.00   0.00
     6   6     0.01  -0.01  -0.00     0.02  -0.01  -0.01     0.00  -0.00  -0.00
     7   6    -0.00  -0.01  -0.00     0.00  -0.01   0.01     0.01  -0.00  -0.00
     8   6    -0.00  -0.01  -0.00    -0.01  -0.00  -0.01    -0.01   0.00   0.00
     9   6    -0.00  -0.00  -0.00     0.01   0.01  -0.00    -0.05  -0.02   0.01
    10   6     0.03  -0.02  -0.02    -0.01   0.01   0.00     0.04  -0.02  -0.02
    11   6     0.01   0.06   0.02    -0.00   0.00   0.00     0.01  -0.00  -0.00
    12   6    -0.04  -0.02   0.00    -0.01  -0.00   0.00     0.05   0.02  -0.01
    13   6    -0.00  -0.00  -0.00     0.01  -0.00  -0.00    -0.04   0.03   0.03
    14   1     0.03   0.00   0.00    -0.15   0.68  -0.42    -0.02   0.10  -0.06
    15   1    -0.02  -0.00  -0.01    -0.11   0.03  -0.08    -0.02   0.00  -0.01
    16   1     0.05   0.03   0.01    -0.05   0.13  -0.10    -0.01   0.02  -0.01
    17   1    -0.01  -0.01   0.01    -0.34  -0.16  -0.05    -0.04  -0.02  -0.00
    18   1     0.01   0.06  -0.02    -0.06  -0.24   0.13    -0.01  -0.04   0.02
    19   1    -0.05   0.01  -0.00    -0.10   0.03  -0.03    -0.01   0.00  -0.01
    20   1     0.07  -0.01   0.01    -0.01   0.01  -0.03    -0.00   0.01  -0.01
    21   1    -0.07   0.02  -0.01    -0.05   0.01  -0.01     0.01  -0.00   0.01
    22   1     0.06  -0.01   0.00    -0.00   0.01   0.00     0.02  -0.01   0.01
    23   1    -0.13  -0.06   0.01     0.09   0.04  -0.01    -0.43  -0.21   0.06
    24   1     0.36  -0.24  -0.21    -0.06   0.04   0.03     0.37  -0.24  -0.22
    25   1     0.10   0.64   0.22    -0.00   0.01   0.00     0.01  -0.01  -0.00
    26   1    -0.42  -0.20   0.05    -0.08  -0.04   0.01     0.46   0.21  -0.06
    27   1     0.09  -0.07  -0.06     0.06  -0.04  -0.04    -0.36   0.24   0.21
                     43                     44                     45
                      A                      A                      A
 Frequencies --   1233.8154              1242.1923              1260.4552
 Red. masses --      2.5715                 1.2295                 1.3103
 Frc consts  --      2.3064                 1.1177                 1.2265
 IR Inten    --      0.7449                 5.4591                 3.4569
  Atom  AN      X      Y      Z        X      Y      Z        X      Y      Z
     1   8     0.00  -0.00   0.00    -0.00   0.00   0.01    -0.01   0.00   0.00
     2   6     0.00   0.00   0.00     0.01  -0.01  -0.04     0.03   0.00  -0.02
     3   6    -0.01   0.01  -0.00     0.04  -0.09   0.00    -0.02  -0.02   0.00
     4   6     0.01  -0.00  -0.00    -0.01   0.05   0.04     0.01   0.06   0.06
     5   6     0.01  -0.01  -0.00    -0.01   0.01   0.04     0.05  -0.10  -0.01
     6   6     0.01  -0.00   0.02     0.03  -0.02  -0.01     0.03   0.02   0.02
     7   6    -0.11  -0.01   0.06     0.00  -0.00   0.01     0.03  -0.03   0.01
     8   6     0.30  -0.00  -0.12     0.00  -0.01  -0.01    -0.02   0.03   0.00
     9   6     0.04  -0.01  -0.01     0.01   0.00   0.00    -0.01  -0.01   0.00
    10   6    -0.08  -0.06   0.00    -0.00   0.00   0.00     0.01   0.00  -0.00
    11   6     0.02  -0.00  -0.01    -0.00  -0.00  -0.00    -0.00   0.00   0.00
    12   6    -0.06   0.06   0.04     0.00   0.00   0.00    -0.00  -0.01  -0.00
    13   6     0.04   0.00  -0.01    -0.00   0.00   0.00     0.00  -0.01  -0.00
    14   1     0.01  -0.00   0.00    -0.09  -0.04   0.02    -0.04  -0.01   0.01
    15   1     0.00  -0.06   0.03    -0.04   0.61  -0.33    -0.04   0.09  -0.06
    16   1     0.03   0.02   0.00    -0.47  -0.28  -0.11     0.17  -0.05   0.12
    17   1    -0.06  -0.03  -0.01     0.27   0.19  -0.01    -0.38  -0.05  -0.25
    18   1    -0.00   0.01  -0.01    -0.06   0.08  -0.00    -0.30   0.50  -0.38
    19   1    -0.05   0.01  -0.01    -0.14   0.03   0.00    -0.18   0.06  -0.12
    20   1    -0.04  -0.00   0.01     0.03   0.03  -0.04    -0.25   0.00   0.01
    21   1    -0.38   0.07   0.01    -0.13   0.03  -0.04     0.05  -0.03   0.05
    22   1    -0.43   0.08  -0.02     0.01  -0.01   0.01    -0.25   0.10  -0.11
    23   1    -0.36  -0.22   0.02     0.01   0.01  -0.00    -0.02  -0.01  -0.01
    24   1    -0.25   0.05   0.10     0.00  -0.00  -0.00     0.01   0.00  -0.00
    25   1     0.01  -0.01  -0.01     0.00   0.01   0.00    -0.00  -0.01  -0.00
[...]
 00035494,-0.00040639,0.00014494,0.00021499,-0.00022505,0.00003866,0.00
 006440,0.00006689,0.00001902,-0.00001344,0.00009200,-0.00002169,0.0000
 4880,0.00060818,0.00003902,0.00012831,0.00017992,-0.00099921,-0.003778
 59,-0.00386776,0.00457856,-0.00653512,0.01572896,-0.02444394,0.0917679
 4,0.00161196,-0.00026879,0.00048333,-0.00240204,0.00174200,-0.00006568
 ,-0.00007344,-0.00022017,-0.00029215,0.00071917,0.00046330,0.00015428,
 -0.00469548,0.00423953,-0.01950671,-0.06075174,0.08235117,-0.25131923,
 -0.00214986,0.00519058,-0.01013291,0.00009764,-0.00122263,0.00044359,-
 0.00012580,0.00047352,0.00034809,-0.00009637,-0.00019061,-0.00026688,0
 .00021374,-0.00008596,0.00015796,0.00005261,0.00018972,0.00020508,-0.0
 0025112,0.00019918,0.00015662,0.00001821,-0.00010516,0.00003522,-0.000
 08154,0.00002399,0.00009727,-0.00048302,-0.00055769,0.00061787,-0.0000
 8781,0.00010735,0.00030864,-0.00048989,-0.00337161,-0.00172968,0.00058
 331,-0.00133136,0.00407275,0.06632255,-0.08823299,0.27563643,0.0013311
 7,0.00198802,0.00040872,-0.00250903,-0.00112355,-0.00050495,0.00010292
 ,-0.00006133,-0.00001547,0.00028037,-0.00018692,0.00012945,0.00051250,
 0.00073210,0.00032377,-0.02277042,0.01127263,0.00354238,-0.22915560,0.
 11949134,0.03114150,0.00742464,-0.00482944,-0.00190947,-0.00008467,-0.
 00061324,-0.00076230,-0.00016487,-0.00064173,-0.00025253,0.00037260,-0
 .00029104,0.00010072,0.00034514,0.00046187,0.00020624,0.00035713,-0.00
 122838,-0.00094957,0.00003429,-0.00000946,-0.00001036,0.00005133,-0.00
 000182,-0.00000822,0.00005193,0.00011545,-0.00008495,0.00011332,0.0000
 8586,-0.00003592,-0.00006181,-0.00005874,-0.00011366,-0.00235833,-0.00
 384794,0.00178209,0.00120978,0.00009350,-0.00001743,0.25166625,0.00185
 395,-0.00092169,0.00016024,-0.00270540,-0.00024776,-0.00027015,0.00020
 540,-0.00002883,0.00007394,0.00023740,0.00006897,0.00013966,0.00041338
 ,0.00097504,-0.00027070,-0.01976494,0.01132546,0.00333267,0.12023267,-
 0.12421144,-0.02130824,0.01954365,-0.01621498,-0.00387285,-0.00129988,
 -0.00204682,-0.00406115,0.00035058,-0.00088038,0.00066193,-0.00006535,
 0.00020198,-0.00004488,-0.00035799,-0.00044505,0.00011516,0.00072416,0
 .00090001,0.00224157,0.00001725,-0.00000770,-0.00000507,0.00009240,0.0
 0003471,-0.00000702,0.00003459,0.00003115,-0.00006937,0.00009027,0.000
 06420,-0.00000172,0.00006085,-0.00000598,0.00000721,-0.00411665,-0.002
 54448,0.00175997,0.00082618,0.00077599,-0.00029855,-0.12528601,0.13888
 849,-0.00012628,-0.00022523,-0.00089392,0.00014550,-0.00008330,0.00059
 648,0.00006200,0.00005008,0.00016140,-0.00006241,0.00005662,-0.0002157
 0,-0.00072948,-0.00015131,0.00026276,0.01160801,-0.00550543,-0.0018942
 2,0.02971735,-0.02033426,-0.05985841,0.01784194,-0.01216528,-0.0033773
 5,-0.00157315,-0.00192613,-0.00256023,0.00037772,-0.00055517,0.0008940
 4,-0.00009554,0.00006261,-0.00021664,0.00012534,0.00003604,0.00007361,
 0.00093151,-0.00071719,0.00134421,-0.00000364,0.00000005,-0.00000528,0
 .00001365,0.00001665,-0.00000847,0.00003795,-0.00000117,0.00000618,-0.
 00002474,-0.00004683,-0.00000079,-0.00010956,0.00020321,-0.00003880,0.
 00195458,0.00140991,0.00008360,-0.00019288,-0.00086895,0.00025594,-0.0
 3425248,0.02462470,0.06045249,0.00026054,0.00036923,0.00027792,-0.0004
 1882,-0.00007692,-0.00007903,0.00012401,0.00008077,-0.00003510,-0.0002
 0596,0.00018405,0.00019489,0.00093643,0.00087575,0.00065213,0.00580458
 ,-0.01221563,0.02349903,-0.06990192,0.03124302,-0.06287521,-0.00332386
 ,0.00144027,-0.00657310,0.00020384,0.00088453,0.00108119,-0.00033152,-
 0.00047753,0.00003253,0.00004034,0.00006875,0.00012324,-0.00042388,-0.
 00019375,-0.00013417,0.00056467,-0.00121860,-0.00128885,-0.00001133,0.
 00001325,0.00001189,0.00000968,0.00002097,-0.00000722,0.00004877,0.000
 02847,-0.00013174,0.00001017,-0.00002706,-0.00007422,0.00008389,0.0000
 8204,-0.00049134,0.00137167,0.00087944,-0.00014350,-0.00314881,-0.0037
 7980,0.00185048,-0.00685780,0.00935027,-0.02531253,0.07426926,-0.00034
 687,-0.00018540,-0.00034392,0.00045448,-0.00014937,0.00016942,0.000017
 30,-0.00000132,0.00018390,-0.00024649,0.00002460,-0.00025030,0.0009021
 2,0.00090487,0.00131567,0.00526497,-0.00946370,0.01850397,0.03116326,-
 0.08561841,0.08447769,-0.00833055,0.00871246,-0.02437481,-0.00102251,0
 .00066492,-0.00056037,-0.00003701,0.00043056,0.00021230,-0.00016233,0.
 00012851,-0.00032533,-0.00114824,-0.00028112,-0.00022224,0.00048854,-0
 .00308668,-0.00208839,-0.00002453,0.00000228,-0.00000086,0.00000991,0.
 00001716,-0.00002214,0.00011830,0.00015820,-0.00015273,-0.00002959,-0.
 00005244,-0.00005500,-0.00042273,-0.00023484,-0.00087855,-0.00006995,0
 .00094683,-0.00074223,-0.00367501,-0.00195126,0.00093936,0.00420308,-0
 .00653064,0.01598208,-0.02735488,0.09570536,0.00004580,0.00007966,0.00
 005499,-0.00013000,0.00002996,0.00001154,-0.00005627,-0.00002796,-0.00
 006804,0.00018843,-0.00003874,0.00029043,-0.00027506,-0.00090794,0.000
 63120,-0.00217497,0.00599710,-0.01174083,-0.06254964,0.08265798,-0.244
 37791,-0.00760052,0.00698850,-0.01851447,-0.00127874,0.00195391,0.0014
 9155,-0.00043351,-0.00056424,-0.00005767,0.00040996,-0.00026182,0.0001
 6651,-0.00103244,0.00060781,0.00026233,0.00070081,-0.00348011,-0.00214
 015,0.00000497,-0.00000757,-0.00000244,-0.00000950,-0.00001153,0.00001
 539,-0.00012321,-0.00016964,0.00003215,0.00003326,0.00007230,0.0000123
 5,0.00027797,0.00059575,0.00062199,0.00000245,-0.00046621,0.00035209,0
 .00210318,0.00122295,0.00028446,0.00079632,-0.00174344,0.00547298,0.06
 962424,-0.09185170,0.26744172,0.00004332,-0.00000106,0.00002246,-0.000
 04474,0.00003235,-0.00000029,-0.00000804,-0.00000136,-0.00000649,-0.00
 000315,-0.00000795,-0.00002040,-0.00006503,0.00001384,0.00001130,0.000
 14131,-0.00006478,0.00005039,-0.00156459,-0.00216321,0.00027121,-0.009
 11933,0.00100316,-0.01278406,-0.18574299,0.02828219,-0.14440699,-0.001
 27191,0.00165452,-0.00246360,0.00429298,0.00051207,-0.00282833,0.00021
 096,0.00027349,0.00058811,0.00200677,0.00476413,-0.00154100,0.00000215
 ,-0.00000372,0.00000046,0.00000106,0.00000036,0.00000093,0.00000082,-0
 .00000041,0.00000440,-0.00000164,-0.00000507,-0.00000041,0.00000770,0.
 00001181,0.00001423,0.00002108,-0.00003004,-0.00006445,-0.00002259,-0.
 00010916,0.00002681,0.00013384,0.00001755,0.00036439,0.00040134,0.0003
 5017,0.00116684,0.19287285,-0.00009781,0.00007438,-0.00001275,0.000145
 40,-0.00011590,0.00004604,0.00001314,0.00004260,-0.00002076,-0.0000171
 9,-0.00000410,-0.00001454,-0.00026776,0.00002169,0.00000810,0.00025502
 ,-0.00041830,-0.00019324,-0.00095852,0.00052512,0.00221544,0.01920737,
 0.00123234,0.01961922,0.02886283,-0.06002790,0.01528066,-0.01837706,0.
 00658201,-0.01687261,0.00147713,-0.00232687,-0.00439008,0.00012268,-0.
 00104894,-0.00039398,0.00394678,-0.00365269,-0.00209365,0.00000535,0.0
 0001644,-0.00000353,-0.00000091,0.00000233,0.00000449,0.00000295,0.000
 00023,-0.00000182,0.00000256,-0.00000261,0.00000181,-0.00000020,-0.000
 02690,-0.00002760,-0.00028396,-0.00016960,0.00012674,0.00000227,0.0001
 6946,-0.00005367,-0.00010532,0.00033296,-0.00012824,0.00006735,-0.0000
 4307,-0.00055188,-0.03294090,0.05830848,0.00007230,0.00000991,0.000017
 80,-0.00011878,-0.00001567,-0.00005656,0.00001262,-0.00000056,0.000006
 29,-0.00000443,0.00002563,0.00005775,0.00033975,0.00001641,-0.00008958
 ,-0.00030918,0.00044630,0.00039022,0.00236511,0.00029281,-0.00053257,-
 0.00100056,-0.00127151,0.00107599,-0.14474201,0.01547783,-0.18227197,-
 0.01521990,0.00472436,-0.01110891,-0.00217446,-0.00545388,0.00134078,0
 .00050103,-0.00034183,0.00012594,-0.00169703,-0.00128762,0.00346415,-0
 .00000623,-0.00000276,0.00000146,0.00000182,-0.00000010,-0.00000124,-0
 .00000558,0.00000337,-0.00000794,0.00001451,0.00001919,0.00000463,-0.0
 0001629,-0.00000375,-0.00000150,0.00031138,0.00018757,-0.00004834,0.00
 002720,-0.00006253,0.00000557,-0.00004372,-0.00017835,0.00001018,-0.00
 012530,0.00042810,0.00007328,0.16029766,-0.01449927,0.18927684,-0.0000
 0794,0.00001543,0.00001013,0.00001177,-0.00003419,-0.00000276,0.000007
 71,0.00001107,-0.00000657,-0.00000260,0.00000643,0.00000827,0.00000827
 ,0.00001026,-0.00000336,-0.00000408,0.00000885,0.00002522,0.00028627,-
 0.00028240,-0.00018568,0.00359556,0.00072818,-0.00357864,0.00602805,-0
 .00616464,0.00028243,-0.12946265,0.13212764,-0.01736604,-0.00836480,0.
 02004908,0.00117132,0.00056052,0.00075801,-0.00627783,-0.00018192,-0.0
 0064522,-0.00036800,-0.00000046,0.00000318,-0.00000151,0.00000015,0.00
 000069,0.00000236,-0.00000172,-0.00000281,0.00000127,0.00000390,0.0000
 0272,0.00000086,0.00000053,0.00000062,0.00000572,-0.00001035,-0.000020
 75,-0.00000072,-0.00000404,-0.00000786,0.00000666,-0.00006235,-0.00012
 417,-0.00005578,0.00001417,0.00002106,0.00004875,-0.00126137,-0.001024
 02,0.00217751,0.13091928,-0.00003042,-0.00009518,-0.00001880,0.0000473
 9,0.00012134,0.00000637,-0.00002392,-0.00003853,0.00001958,0.00001317,
 -0.00001315,-0.00004265,-0.00005358,-0.00004026,0.00007913,0.00015116,
 -0.00001842,-0.00015660,0.00096318,-0.00050949,0.00039445,-0.00051506,
 -0.00022525,-0.00514965,0.01383674,-0.01582538,0.00347890,0.13226419,-
 0.25238158,0.00443346,0.00004050,0.00072860,-0.00097416,0.00169667,0.0
 0246727,-0.00097557,-0.00067077,0.00034097,-0.00035041,-0.00000103,-0.
 00001133,0.00000257,-0.00000098,-0.00000132,-0.00000382,0.00000321,0.0
 0000071,0.00000646,-0.00001930,-0.00001800,-0.00000513,0.00000767,0.00
 000933,0.00000020,-0.00003920,0.00000152,0.00000577,-0.00000265,-0.000
 00955,0.00001633,-0.00011565,-0.00033142,-0.00021314,-0.00004519,0.000
 02328,-0.00001726,-0.00149695,0.00025035,0.00100548,-0.14480370,0.2657
 3296,-0.00000078,-0.00003681,-0.00000453,0.00001090,0.00004282,0.00000
 433,-0.00000803,-0.00000800,0.00000571,-0.00000129,-0.00000921,-0.0000
 1392,-0.00004018,-0.00001202,0.00001505,0.00005806,0.00001794,-0.00008
 577,0.00074646,-0.00056965,0.00048081,-0.00422487,-0.00456391,0.000248
 44,0.01281158,-0.01783814,0.00458372,-0.01749611,0.00442529,-0.0514386
 2,-0.01126520,0.02032341,0.00311975,-0.00569948,-0.00189116,-0.0003669
 8,-0.00040015,-0.00038565,-0.00096256,-0.00000006,-0.00000391,0.000000
 86,-0.00000012,-0.00000108,-0.00000142,0.00000013,0.00000144,0.0000000
 9,-0.00000688,-0.00000663,0.00000024,0.00000326,0.00000213,-0.00000151
 ,-0.00002511,0.00000696,0.00002484,-0.00000802,-0.00000081,-0.00000351
 ,-0.00000740,-0.00017780,-0.00016758,-0.00003422,0.00004489,-0.0000310
 3,0.00191416,0.00152809,-0.00088882,0.02160351,-0.00315176,0.04656342,
 0.00001975,-0.00000534,0.00000901,-0.00002632,0.00002052,-0.00000352,-
 0.00000152,-0.00000727,0.00000432,0.00000215,-0.00000634,-0.00001669,-
 0.00001977,-0.00002598,0.00002539,-0.00000743,-0.00004036,-0.00005149,
 -0.00036235,-0.00042357,0.00034738,-0.00098003,0.00054712,0.00001272,0
 .00010175,0.00316395,-0.00543496,-0.00021328,-0.01878025,-0.01411143,-
 0.05759394,-0.02920512,-0.04291476,0.00643580,0.01287594,0.01289150,0.
 00131220,0.00449836,-0.00332175,0.00000070,-0.00000428,-0.00000013,0.0
 0000045,0.00000019,-0.00000016,0.00000027,0.00000062,0.00000229,-0.000
 00273,-0.00000347,-0.00000021,0.00000125,0.00000707,0.00000422,0.00001
 798,0.00000496,-0.00000672,-0.00001352,-0.00002614,0.00001076,-0.00003
 241,0.00000991,-0.00004666,0.00010727,0.00000121,0.00012759,0.00001009
 ,-0.00084854,-0.00093903,-0.00112975,-0.00100931,0.00225241,0.05318624
 ,-0.00002181,-0.00004843,-0.00001989,0.00002915,0.00007339,0.00000691,
 -0.00001588,-0.00002380,0.00001166,0.00000653,-0.00000948,-0.00002342,
 -0.00002447,-0.00001979,0.00002731,0.00001405,-0.00000879,-0.00004669,
 -0.00031201,-0.00014312,0.00015157,0.00046223,-0.00009892,0.00087601,0
 .00231730,0.00207538,-0.00071714,0.00130654,0.00594411,0.00395063,-0.0
 2916796,-0.20719061,-0.14011123,-0.00731285,-0.01523599,-0.01859043,0.
 00540104,-0.00192008,-0.00001882,-0.00000013,-0.00000725,0.00000236,-0
 .00000096,-0.00000050,-0.00000265,0.00000249,0.00000223,0.00000335,-0.
 00000980,-0.00000769,-0.00000230,-0.00000003,0.00000192,-0.00000233,-0
 .00002265,-0.00000977,-0.00000346,0.00001691,0.00001020,-0.00001038,-0
 .00003433,0.00007443,0.00003338,-0.00000812,-0.00002075,-0.00001528,0.
 00022009,0.00025061,0.00016694,-0.00151881,0.00010865,0.00086997,0.030
 04971,0.21677854,0.00000754,-0.00004355,-0.00000945,-0.00000936,0.0000
 6358,-0.00000291,-0.00001216,-0.00001832,0.00000808,0.00000552,-0.0000
 0118,-0.00000229,0.00003809,-0.00000712,0.00000023,0.00002928,0.000057
 66,0.00003363,0.00050265,0.00032872,-0.00024962,-0.00008730,0.00073735
 ,-0.00026350,-0.00599347,0.00030017,0.00090936,-0.00161409,-0.01739078
 ,-0.01076287,-0.04285402,-0.14002686,-0.16854086,0.00023820,0.00255183
 ,0.00383694,-0.00267978,-0.00094525,0.00369930,-0.00000091,-0.00000520
 ,0.00000250,-0.00000039,-0.00000093,-0.00000289,0.00000096,0.00000119,
 0.00000034,-0.00000480,-0.00000275,-0.00000187,0.00000149,0.00000235,0
 .00000058,0.00002639,0.00002058,-0.00001113,0.00000550,-0.00000412,0.0
 0000566,0.00005773,-0.00011223,0.00002305,-0.00009418,0.00003802,-0.00
 003184,-0.00027397,-0.00100572,-0.00057520,0.00193892,0.00140915,-0.00
 087690,0.04881896,0.15308184,0.17362601,0.00001061,-0.00005301,0.00000
 191,-0.00000850,0.00008484,-0.00000515,-0.00001661,-0.00002177,0.00000
 970,0.00000994,-0.00000869,-0.00003007,-0.00003601,-0.00001657,0.00004
 458,0.00003206,0.00002764,-0.00012165,-0.00006585,0.00020471,-0.000161
 80,0.00439208,0.00075697,-0.00263366,0.00024600,0.00013573,0.00061650,
 0.00236911,0.00489949,-0.00167703,-0.00872669,-0.00058417,-0.01208437,
 -0.19263444,0.02852186,-0.14719326,-0.00107880,0.00168929,-0.00244318,
 0.00000004,-0.00001095,0.00000087,0.00000012,-0.00000099,-0.00000108,-
 0.00000132,0.00000149,0.00000473,-0.00000756,-0.00000830,0.00000069,0.
 00000646,0.00000824,0.00000373,-0.00001485,0.00000135,0.00000615,0.000
 00324,-0.00001598,0.00000508,-0.00001704,0.00000350,0.00001695,-0.0000
 7885,-0.00015372,-0.00008691,-0.00062167,-0.00037917,0.00046332,-0.000
 41502,0.00005625,-0.00079986,-0.00115547,-0.00111261,0.00212882,0.1990
 1179,0.00003137,-0.00002980,0.00001474,-0.00003229,0.00005002,-0.00000
 741,-0.00000679,-0.00000883,0.00000360,0.00000701,-0.00001056,-0.00001
 559,-0.00003446,-0.00003100,0.00003767,0.00006154,0.00002188,-0.000126
 90,-0.00070068,0.00055969,-0.00072078,0.00156060,-0.00230003,-0.004272
 24,0.00013419,-0.00110294,-0.00046448,0.00402057,-0.00342839,-0.002302
 88,0.01954834,0.00182210,0.02020002,0.02838208,-0.05977418,0.01433533,
 -0.01841330,0.00679602,-0.01647815,-0.00000007,-0.00000785,-0.00000044
 ,0.00000097,-0.00000101,0.00000035,-0.00000251,-0.00000112,0.00000358,
 -0.00000355,-0.00000583,0.00000094,0.00000897,0.00001032,0.00001392,-0
 .00001402,-0.00000457,0.00000549,-0.00001875,-0.00002306,0.00002266,0.
 00001284,0.00001608,0.00004742,-0.00013350,-0.00027961,-0.00024311,-0.
 00040159,-0.00001628,0.00039792,0.00115498,-0.00000861,0.00101031,-0.0
 0162359,0.00027122,0.00091023,-0.03252032,0.05728488,0.00006572,-0.000
 06834,0.00000013,-0.00007425,0.00011534,-0.00000400,-0.00001480,-0.000
 03001,0.00001647,0.00001248,-0.00001922,-0.00003088,-0.00001935,-0.000
 07699,0.00005337,0.00009141,-0.00001035,-0.00015999,-0.00068649,0.0006
 7155,-0.00025001,-0.00250946,-0.00545122,0.00147968,0.00059816,-0.0005
 0220,0.00006446,-0.00219889,-0.00134107,0.00375020,0.00053578,-0.00083
 616,0.00245029,-0.14706840,0.01434012,-0.18137591,-0.01511508,0.004565
 53,-0.01074177,-0.00000017,-0.00001471,0.00000234,0.00000050,-0.000001
 78,-0.00000378,0.00000106,0.00000266,0.00000214,-0.00000996,-0.0000117
 9,-0.00000174,0.00000492,0.00000862,0.00001141,-0.00000309,-0.00000202
 ,-0.00000376,0.00000045,-0.00000130,0.00003183,0.00003695,-0.00001919,
 0.00000914,-0.00009064,-0.00014980,-0.00020419,0.00048754,0.00038580,-
 0.00053863,-0.00007866,-0.00017523,0.00016989,0.00181358,0.00144026,-0
 .00102909,0.16205766,-0.01390331,0.18723406,0.00014362,0.00009874,0.00
 013637,-0.00021096,-0.00009571,-0.00006450,0.00002584,0.00001881,-0.00
 000670,0.00000652,-0.00002587,-0.00005126,-0.00011739,-0.00020200,0.00
 017893,-0.00018280,-0.00019329,-0.00076116,-0.00104013,-0.00048949,0.0
 0284849,-0.00879312,0.02044196,0.00056522,0.00023709,0.00061565,-0.005
 85747,-0.00024399,-0.00062029,-0.00043769,0.00355281,0.00044618,-0.003
 43941,0.00613170,-0.00626535,0.00006998,-0.13145178,0.13185080,-0.0158
 7688,0.00000641,-0.00000872,-0.00000908,0.00000594,0.00000116,0.000006
 18,-0.00001358,-0.00000033,0.00000343,0.00000927,-0.00000230,0.0000103
 8,0.00002223,0.00006130,0.00005856,0.00016256,0.00003322,0.00008001,-0
 .00024305,-0.00025316,0.00018656,0.00008710,-0.00034356,-0.00061175,0.
 00045215,0.00003003,0.00022021,-0.00041922,0.00119051,-0.00018171,-0.0
 0052712,-0.00025243,0.00061728,0.00034262,-0.00026360,-0.00017561,-0.0
 0120277,-0.00101801,0.00216303,0.13326006,-0.00003640,0.00003059,0.000
 02500,0.00002753,-0.00005761,-0.00000018,0.00000972,0.00000458,-0.0000
 0948,0.00000512,0.00000600,0.00000751,0.00000543,0.00000730,0.00000110
 ,-0.00009406,0.00011032,-0.00002252,-0.00177108,-0.00045271,0.00030690
 ,0.00149143,-0.00028227,-0.00093827,0.00148545,0.00230876,-0.00102141,
 -0.00053306,0.00037401,-0.00020283,-0.00041596,-0.00039493,-0.00532659
 ,0.01376387,-0.01578556,0.00314321,0.13175233,-0.24815206,0.00210643,0
 .00000049,0.00000428,-0.00000137,0.00000018,-0.00000015,0.00000146,0.0
 0000217,0.00000105,-0.00000028,0.00000209,0.00000406,-0.00000180,-0.00
 000430,-0.00000648,-0.00000316,-0.00003212,-0.00001903,-0.00000200,0.0
 0002862,0.00000756,-0.00000913,-0.00002179,0.00072771,0.00039889,-0.00
 005719,0.00017957,0.00015251,0.00009048,0.00004417,-0.00008398,-0.0002
 6962,-0.00025750,0.00038328,0.00083001,-0.00084570,0.00006136,-0.00150
 510,0.00020145,0.00108481,-0.14475423,0.26224262,0.00015182,0.00009806
 ,0.00002948,-0.00017398,-0.00008691,0.00000115,0.00003103,0.00003513,-
 0.00001637,-0.00000905,0.00001751,0.00005162,0.00005054,0.00005955,-0.
 00013031,0.00006031,-0.00001032,0.00030685,0.00103976,0.00268906,-0.00
 026140,-0.01218219,0.01857428,0.00247314,-0.00556810,-0.00154603,-0.00
 077940,-0.00042006,-0.00035674,-0.00084484,-0.00404694,-0.00434847,0.0
 0013345,0.01291423,-0.01800225,0.00438282,-0.01513569,0.00184029,-0.05
 099594,0.00000428,0.00001495,-0.00000095,0.00000179,0.00000167,-0.0000
 0004,0.00000491,-0.00000261,-0.00000838,0.00001578,0.00001306,-0.00000
 241,-0.00000097,-0.00001794,-0.00000894,0.00010810,0.00004721,-0.00001
 697,0.00002405,0.00008709,0.00001615,0.00044255,-0.00067632,-0.0004086
 8,0.00014281,-0.00027703,-0.00004641,-0.00083089,0.00104693,0.00027040
 ,0.00064261,0.00037632,-0.00037400,0.00052738,-0.00105816,0.00021477,0
 .00187732,0.00153111,-0.00093166,0.02032859,-0.00004947,0.04694688\\0.
 00002231,-0.00000495,0.00003005,0.00000961,0.00001771,-0.00000374,-0.0
 0001952,-0.00003630,-0.00003737,-0.00002958,-0.00000706,0.00001089,0.0
 0000349,0.00000994,0.00000099,-0.00000045,-0.00000479,-0.00001644,0.00
 001465,-0.00001431,-0.00001204,-0.00003986,-0.00000436,0.00001519,0.00
 000537,-0.00000869,-0.00000999,-0.00000769,0.00001086,0.00000426,-0.00
 000193,0.00001248,0.00001234,0.00001167,-0.00001055,-0.00000343,0.0000
 1959,0.00000281,0.00000006,0.00000516,0.00002256,0.00000690,0.00000314
 ,0.00000686,0.00000766,-0.00000551,-0.00000090,-0.00000250,-0.00000016
 ,0.00000164,0.00000521,0.00000373,-0.00000783,0.00000188,0.00000741,-0
 .00000086,-0.00000090,-0.00000199,-0.00000002,-0.00000340,-0.00000390,
 0.00000830,-0.00000227,-0.00000437,0.00000312,0.00000612,0.00000587,0.
 00000353,0.00000477,0.00000494,-0.00000804,0.00000359,0.00000328,-0.00
 000588,-0.00000434,-0.00000363,0.00000124,-0.00000973,-0.00000162,0.00
 001348,-0.00000374\\\@


 A SLIP OF THE FOOT YOU MAY SOON RECOVER, BUT A SLIP OF THE TONGUE
 YOU MAY NEVER GET OVER. -- BEN FRANKLIN
 Job cpu time:       0 days  0 hours  2 minutes 13.4 seconds.
 Elapsed time:       0 days  0 hours  2 minutes 22.4 seconds.
 File lengths (MBytes):  RWF=    161 Int=      0 D2E=      0 Chk=     16 Scr=      1
 Normal termination of Gaussian 16 at Sat Feb 24 04:12:31 2024.
