 Entering Gaussian System, Link 0=g16
 Input=/Volumes/SSD-PMU3/b3lyp_6-31gd_freq/YHADNJOEQWBXAR-RXMQYKEDSA-N_calculating/gaussianinput1.gjf
 Output=/Volumes/SSD-PMU3/b3lyp_6-31gd_freq/YHADNJOEQWBXAR-RXMQYKEDSA-N_calculating/gaussianinput1.log
 Initial command:
 /Applications/g16/l1.exe "/Users/macmini_m1_2022/PycharmProjects/sphere_model/sphere_model_lib/Gau-62637.inp" -scrdir="/Users/macmini_m1_2022/PycharmProjects/sphere_model/sphere_model_lib/"
 Entering Link 1 = /Applications/g16/l1.exe PID=     62638.
  
 Copyright (c) 1988,1990,1992,1993,1995,1998,2003,2009,2016,
            Gaussian, Inc.  All Rights Reserved.
  
 This is part of the Gaussian(R) 16 program.  It is based on
 the Gaussian(R) 09 system (copyright 2009, Gaussian, Inc.),
 the Gaussian(R) 03 system (copyright 2003, Gaussian, Inc.),
 the Gaussian(R) 98 system (copyright 1998, Gaussian, Inc.),
 the Gaussian(R) 94 system (copyright 1995, Gaussian, Inc.),
 the Gaussian 92(TM) system (copyright 1992, Gaussian, Inc.),
 the Gaussian 90(TM) system (copyright 1990, Gaussian, Inc.),
 the Gaussian 88(TM) system (copyright 1988, Gaussian, Inc.),
 the Gaussian 86(TM) system (copyright 1986, Carnegie Mellon
 University), and the Gaussian 82(TM) system (copyright 1983,
 Carnegie Mellon University). Gaussian is a federally registered
 trademark of Gaussian, Inc.
  
 This software contains proprietary and confidential information,
 including trade secrets, belonging to Gaussian, Inc.
  
 This software is provided under written license and may be
 used, copied, transmitted, or stored only in accord with that
 written license.
  
 The following legend is applicable only to US Government
 contracts under FAR:
  
                    RESTRICTED RIGHTS LEGEND
  
 Use, reproduction and disclosure by the US Government is
 subject to restrictions as set forth in subparagraphs (a)
 and (c) of the Commercial Computer Software - Restricted
 Rights clause in FAR 52.227-19.
  
 Gaussian, Inc.
 340 Quinnipiac St., Bldg. 40, Wallingford CT 06492
  
  
 ---------------------------------------------------------------
 Warning -- This program may not be used in any manner that
 competes with the business of Gaussian, Inc. or will provide
 assistance to any competitor of Gaussian, Inc.  The licensee
 of this program is prohibited from giving any competitor of
 Gaussian, Inc. access to this program.  By using this program,
 the user acknowledges that Gaussian, Inc. is engaged in the
 business of creating and licensing software in the field of
 computational chemistry and represents and warrants to the
 licensee that it is not a competitor of Gaussian, Inc. and that
 it will not use this program in any manner prohibited above.
 ---------------------------------------------------------------
  

 Cite this work as:
 Gaussian 16, Revision A.03,
 M. J. Frisch, G. W. Trucks, H. B. Schlegel, G. E. Scuseria, 
 M. A. Robb, J. R. Cheeseman, G. Scalmani, V. Barone, 
 G. A. Petersson, H. Nakatsuji, X. Li, M. Caricato, A. V. Marenich, 
 J. Bloino, B. G. Janesko, R. Gomperts, B. Mennucci, H. P. Hratchian, 
 J. V. Ortiz, A. F. Izmaylov, J. L. Sonnenberg, D. Williams-Young, 
 F. Ding, F. Lipparini, F. Egidi, J. Goings, B. Peng, A. Petrone, 
 T. Henderson, D. Ranasinghe, V. G. Zakrzewski, J. Gao, N. Rega, 
 G. Zheng, W. Liang, M. Hada, M. Ehara, K. Toyota, R. Fukuda, 
 J. Hasegawa, M. Ishida, T. Nakajima, Y. Honda, O. Kitao, H. Nakai, 
 T. Vreven, K. Throssell, J. A. Montgomery, Jr., J. E. Peralta, 
 F. Ogliaro, M. J. Bearpark, J. J. Heyd, E. N. Brothers, K. N. Kudin, 
 V. N. Staroverov, T. A. Keith, R. Kobayashi, J. Normand, 
 K. Raghavachari, A. P. Rendell, J. C. Burant, S. S. Iyengar, 
 J. Tomasi, M. Cossi, J. M. Millam, M. Klene, C. Adamo, R. Cammi, 
 J. W. Ochterski, R. L. Martin, K. Morokuma, O. Farkas, 
 J. B. Foresman, and D. J. Fox, Gaussian, Inc., Wallingford CT, 2016.
 
 ******************************************
 Gaussian 16:  EM64M-G16RevA.03 25-Dec-2016
                22-Feb-2024 
 ******************************************
 %nprocshared=8
 Will use up to    8 processors via shared memory.
 %mem=8GB
 %chk= 1.chk
 ---------------------
 # freq b3lyp/6-31g(d)
 ---------------------
 1/10=4,30=1,38=1/1,3;
 2/12=2,17=6,18=5,40=1/2;
 3/5=1,6=6,7=1,11=2,25=1,30=1,71=2,74=-5,140=1/1,2,3;
 4//1;
 5/5=2,38=5,98=1/2;
 8/6=4,10=90,11=11/1;
 11/6=1,8=1,9=11,15=111,16=1/1,2,10;
 10/6=1/2;
 6/7=2,8=2,9=2,10=2,28=1/1;
 7/8=1,10=1,25=1/1,2,3,16;
 1/10=4,30=1/3;
 99//99;
 ---------
 good luck
 ---------
 Symbolic Z-matrix:
 Charge =  0 Multiplicity = 1
 O                     1.21502   0.        0. 
 C                     0.        0.        0. 
 C                    -0.80426  -1.29759  -0.00841 
 C                    -1.9394   -1.28667   1.0396 
 C                    -2.78191  -2.54715   0.93062 
 F                    -2.03275  -3.66166   1.0813 
 F                    -3.74695  -2.58129   1.87743 
 F                    -3.39843  -2.63835  -0.2721 
 C                    -2.80428  -0.01884   0.92402 
 C                    -1.94438   1.24573   1.04856 
 C                    -0.82272   1.28081  -0.00841 
 H                    -0.11908  -2.13417   0.14651 
 H                    -1.25175  -1.40923  -1.00692 
 H                    -1.49405  -1.32054   2.04287 
 H                    -3.32158  -0.02519  -0.0447 
 H                    -3.57829  -0.02983   1.69848 
 H                    -2.57348   2.13754   0.94984 
 H                    -1.49861   1.28758   2.05179 
 H                    -0.14725   2.12892   0.13431 
 H                    -1.27515   1.37864  -1.00742 
 

 GradGradGradGradGradGradGradGradGradGradGradGradGradGradGradGradGradGrad
 Berny optimization.
 Initialization pass.
 Trust Radius=3.00D-01 FncErr=1.00D-07 GrdErr=1.00D-07 EigMax=2.50D+02 EigMin=1.00D-04
 Number of steps in this run=      2 maximum allowed number of steps=      2.
 GradGradGradGradGradGradGradGradGradGradGradGradGradGradGradGradGradGrad

                          Input orientation:                          
 ---------------------------------------------------------------------
 Center     Atomic      Atomic             Coordinates (Angstroms)
 Number     Number       Type             X           Y           Z
 ---------------------------------------------------------------------
      1          8           0        1.215018    0.000000    0.000000
      2          6           0        0.000000    0.000000    0.000000
      3          6           0       -0.804264   -1.297586   -0.008409
      4          6           0       -1.939398   -1.286674    1.039595
      5          6           0       -2.781912   -2.547154    0.930619
      6          9           0       -2.032752   -3.661659    1.081304
      7          9           0       -3.746947   -2.581285    1.877427
      8          9           0       -3.398432   -2.638346   -0.272098
      9          6           0       -2.804282   -0.018839    0.924021
     10          6           0       -1.944379    1.245731    1.048561
     11          6           0       -0.822718    1.280808   -0.008409
     12          1           0       -0.119078   -2.134174    0.146509
     13          1           0       -1.251747   -1.409229   -1.006924
     14          1           0       -1.494047   -1.320538    2.042870
     15          1           0       -3.321580   -0.025192   -0.044703
     16          1           0       -3.578286   -0.029831    1.698480
     17          1           0       -2.573483    2.137538    0.949842
     18          1           0       -1.498606    1.287581    2.051786
     19          1           0       -0.147245    2.128921    0.134306
     20          1           0       -1.275146    1.378641   -1.007418
 ---------------------------------------------------------------------
                    Distance matrix (angstroms):
                    1          2          3          4          5
     1  O    0.000000
     2  C    1.215018   0.000000
     3  C    2.400271   1.526644   0.000000
     4  C    3.561829   2.549030   1.544979   0.000000
     5  C    4.830062   3.884981   2.520771   1.520038   0.000000
     6  F    5.012482   4.325395   2.878454   2.377185   1.351321
     7  F    5.899903   4.922131   3.723391   2.375966   1.352369
     8  F    5.321544   4.310945   2.932043   2.382506   1.354600
     9  C    4.124190   2.952654   2.550430   1.539087   2.528423
    10  C    3.554309   2.536126   2.980857   2.532426   3.886045
    11  C    2.406846   1.522302   2.578460   2.989523   4.401535
    12  H    2.521106   2.142509   1.092410   2.197595   2.806433
    13  H    3.014092   2.136982   1.099881   2.162435   2.718520
    14  H    3.640903   2.854700   2.164272   1.098201   2.097686
    15  H    4.536888   3.321976   2.820848   2.162745   2.757315
    16  H    5.085419   3.961042   3.495121   2.167888   2.749679
    17  H    4.452416   3.477655   3.981012   3.483583   4.689366
    18  H    3.637505   2.848422   3.377810   2.801003   4.196318
    19  H    2.531028   2.138229   3.491846   3.962026   5.425980
    20  H    3.019347   2.131089   2.895158   3.425697   4.630140
                    6          7          8          9         10
     6  F    0.000000
     7  F    2.177036   0.000000
     8  F    2.178061   2.178343   0.000000
     9  C    3.726947   2.892011   2.940329   0.000000
    10  C    4.908295   4.310722   4.352524   1.534301   0.000000
    11  C    5.203810   5.198390   4.697191   2.546587   1.541603
    12  H    2.620916   4.044431   3.344187   3.505637   3.945780
    13  H    3.169244   3.989890   2.580495   2.841144   3.428348
    14  H    2.587597   2.586970   3.274504   2.159389   2.788761
    15  H    4.019062   3.226319   2.624155   1.098209   2.169598
    16  H    3.994966   2.563276   3.274122   1.094984   2.172350
    17  H    5.825835   4.950224   4.998274   2.168847   1.095827
    18  H    5.071698   4.478120   4.941931   2.164111   1.098602
    19  H    6.163015   6.179188   5.784653   3.506618   2.201267
    20  H    5.508298   5.487545   4.602741   2.832254   2.166238
                   11         12         13         14         15
    11  C    0.000000
    12  H    3.490159   0.000000
    13  H    2.901275   1.771692   0.000000
    14  H    3.380152   2.479663   3.060689   0.000000
    15  H    2.819799   3.839321   2.669389   3.061986   0.000000
    16  H    3.496341   4.336242   3.825537   2.475597   1.761989
    17  H    2.171960   4.991690   4.260924   3.783937   2.495229
    18  H    2.168242   4.152299   4.085270   2.608138   3.072763
    19  H    1.093584   4.263206   3.878252   4.165964   3.840397
    20  H    1.101036   3.874004   2.787968   4.078939   2.661853
                   16         17         18         19         20
    16  H    0.000000
    17  H    2.503513   0.000000
    18  H    2.487060   1.758428   0.000000
    19  H    4.344985   2.559649   2.492139   0.000000
    20  H    3.822320   2.468293   3.068706   1.771614   0.000000
 Stoichiometry    C7H9F3O
 Framework group  C1[X(C7H9F3O)]
 Deg. of freedom    54
 Full point group                 C1      NOp   1
 Largest Abelian subgroup         C1      NOp   1
 Largest concise Abelian subgroup C1      NOp   1
                         Standard orientation:                         
 ---------------------------------------------------------------------
 Center     Atomic      Atomic             Coordinates (Angstroms)
 Number     Number       Type             X           Y           Z
 ---------------------------------------------------------------------
      1          8           0       -2.797780   -1.645311   -0.334628
      2          6           0       -2.051717   -0.765886    0.047827
      3          6           0       -0.562011   -1.015086    0.269900
      4          6           0        0.314565    0.086423   -0.366693
      5          6           0        1.781201   -0.137572   -0.036056
      6          9           0        2.204861   -1.352714   -0.448377
      7          9           0        2.569804    0.785685   -0.631544
      8          9           0        2.014160   -0.062832    1.296267
      9          6           0       -0.149594    1.492445    0.053361
     10          6           0       -1.627259    1.710521   -0.297392
     11          6           0       -2.532520    0.645815    0.353333
     12          1           0       -0.311926   -2.005239   -0.117933
     13          1           0       -0.380505   -1.022582    1.354675
     14          1           0        0.247064    0.003726   -1.459694
     15          1           0       -0.000806    1.610519    1.135019
     16          1           0        0.473014    2.247335   -0.438056
     17          1           0       -1.944145    2.710002    0.021135
     18          1           0       -1.753225    1.675885   -1.388198
     19          1           0       -3.573577    0.736005    0.030853
     20          1           0       -2.509076    0.775621    1.446439
 ---------------------------------------------------------------------
 Rotational constants (GHZ):           1.9448886           0.7141150           0.5959533
 Standard basis: 6-31G(d) (6D, 7F)
 There are   183 symmetry adapted cartesian basis functions of A   symmetry.
 There are   183 symmetry adapted basis functions of A   symmetry.
   183 basis functions,   344 primitive gaussians,   183 cartesian basis functions
    43 alpha electrons       43 beta electrons
       nuclear repulsion energy       676.6509441102 Hartrees.
 NAtoms=   20 NActive=   20 NUniq=   20 SFac= 1.00D+00 NAtFMM=   60 NAOKFM=F Big=F
 Integral buffers will be    131072 words long.
 Raffenetti 2 integral format.
 Two-electron integral symmetry is turned on.
 One-electron integrals computed using PRISM.
 NBasis=   183 RedAO= T EigKep=  1.71D-03  NBF=   183
 NBsUse=   183 1.00D-06 EigRej= -1.00D+00 NBFU=   183
 ExpMin= 1.61D-01 ExpMax= 7.00D+03 ExpMxC= 1.05D+03 IAcc=3 IRadAn=         5 AccDes= 0.00D+00
 Harris functional with IExCor=  402 and IRadAn=       5 diagonalized for initial guess.
 HarFok:  IExCor=  402 AccDes= 0.00D+00 IRadAn=         5 IDoV= 1 UseB2=F ITyADJ=14
 ICtDFT=  3500011 ScaDFX=  1.000000  1.000000  1.000000  1.000000
 FoFCou: FMM=F IPFlag=           0 FMFlag=      100000 FMFlg1=           0
         NFxFlg=           0 DoJE=T BraDBF=F KetDBF=T FulRan=T
         wScrn=  0.000000 ICntrl=       500 IOpCl=  0 I1Cent=   200000004 NGrid=           0
         NMat0=    1 NMatS0=      1 NMatT0=    0 NMatD0=    1 NMtDS0=    0 NMtDT0=    0
 Petite list used in FoFCou.
 Requested convergence on RMS density matrix=1.00D-08 within 128 cycles.
 Requested convergence on MAX density matrix=1.00D-06.
 Requested convergence on             energy=1.00D-06.
 No special actions if energy rises.
 Integral accuracy reduced to 1.0D-05 until final iterations.
 Initial convergence to 1.0D-05 achieved.  Increase integral accuracy.
 SCF Done:  E(RB3LYP) =  -646.930664148     A.U. after   13 cycles
            NFock= 13  Conv=0.76D-08     -V/T= 2.0081
 DoSCS=F DFT=T ScalE2(SS,OS)=  1.000000  1.000000
 Range of M.O.s used for correlation:     1   183
 NBasis=   183 NAE=    43 NBE=    43 NFC=     0 NFV=     0
 NROrb=    183 NOA=    43 NOB=    43 NVA=   140 NVB=   140
 Symmetrizing basis deriv contribution to polar:
 IMax=3 JMax=2 DiffMx= 0.00D+00
 G2DrvN: will do    21 centers at a time, making    1 passes.
 Calling FoFCou, ICntrl=  3107 FMM=F I1Cent=   0 AccDes= 0.00D+00.
 End of G2Drv F.D. properties file   721 does not exist.
 End of G2Drv F.D. properties file   722 does not exist.
 End of G2Drv F.D. properties file   788 does not exist.
          IDoAtm=11111111111111111111
          Differentiating once with respect to electric field.
                with respect to dipole field.
          Differentiating once with respect to nuclear coordinates.
 Keep R1 ints in memory in canonical form, NReq=149797757.
          There are    63 degrees of freedom in the 1st order CPHF.  IDoFFX=6 NUNeed=     3.
     60 vectors produced by pass  0 Test12= 9.56D-15 1.59D-09 XBig12= 4.81D+01 2.42D+00.
 AX will form    60 AO Fock derivatives at one time.
     60 vectors produced by pass  1 Test12= 9.56D-15 1.59D-09 XBig12= 5.29D+00 5.91D-01.
     60 vectors produced by pass  2 Test12= 9.56D-15 1.59D-09 XBig12= 5.20D-02 2.58D-02.
     60 vectors produced by pass  3 Test12= 9.56D-15 1.59D-09 XBig12= 2.31D-04 2.23D-03.
     60 vectors produced by pass  4 Test12= 9.56D-15 1.59D-09 XBig12= 3.73D-07 8.60D-05.
     38 vectors produced by pass  5 Test12= 9.56D-15 1.59D-09 XBig12= 2.44D-10 1.66D-06.
      3 vectors produced by pass  6 Test12= 9.56D-15 1.59D-09 XBig12= 1.55D-13 3.90D-08.
 InvSVY:  IOpt=1 It=  1 EMax= 4.44D-15
 Solved reduced A of dimension   341 with    63 vectors.
 Isotropic polarizability for W=    0.000000       72.13 Bohr**3.
 End of Minotr F.D. properties file   721 does not exist.
 End of Minotr F.D. properties file   722 does not exist.
 End of Minotr F.D. properties file   788 does not exist.

 **********************************************************************

            Population analysis using the SCF density.

 **********************************************************************

 Orbital symmetries:
       Occupied  (A) (A) (A) (A) (A) (A) (A) (A) (A) (A) (A) (A)
                 (A) (A) (A) (A) (A) (A) (A) (A) (A) (A) (A) (A)
                 (A) (A) (A) (A) (A) (A) (A) (A) (A) (A) (A) (A)
                 (A) (A) (A) (A) (A) (A) (A)
       Virtual   (A) (A) (A) (A) (A) (A) (A) (A) (A) (A) (A) (A)
                 (A) (A) (A) (A) (A) (A) (A) (A) (A) (A) (A) (A)
                 (A) (A) (A) (A) (A) (A) (A) (A) (A) (A) (A) (A)
                 (A) (A) (A) (A) (A) (A) (A) (A) (A) (A) (A) (A)
                 (A) (A) (A) (A) (A) (A) (A) (A) (A) (A) (A) (A)
                 (A) (A) (A) (A) (A) (A) (A) (A) (A) (A) (A) (A)
                 (A) (A) (A) (A) (A) (A) (A) (A) (A) (A) (A) (A)
                 (A) (A) (A) (A) (A) (A) (A) (A) (A) (A) (A) (A)
                 (A) (A) (A) (A) (A) (A) (A) (A) (A) (A) (A) (A)
                 (A) (A) (A) (A) (A) (A) (A) (A) (A) (A) (A) (A)
                 (A) (A) (A) (A) (A) (A) (A) (A) (A) (A) (A) (A)
                 (A) (A) (A) (A) (A) (A) (A) (A)
 The electronic state is 1-A.
 Alpha  occ. eigenvalues --  -24.72820 -24.72760 -24.72712 -19.14515 -10.43249
 Alpha  occ. eigenvalues --  -10.28251 -10.22840 -10.20833 -10.20789 -10.20713
 Alpha  occ. eigenvalues --  -10.20235  -1.30413  -1.21737  -1.21722  -1.04459
 Alpha  occ. eigenvalues --   -0.85880  -0.78842  -0.74546  -0.70314  -0.64285
 Alpha  occ. eigenvalues --   -0.61869  -0.58784  -0.57942  -0.55198  -0.52837
 Alpha  occ. eigenvalues --   -0.49296  -0.47450  -0.46425  -0.45793  -0.44866
 Alpha  occ. eigenvalues --   -0.44342  -0.43905  -0.41905  -0.41514  -0.40834
 Alpha  occ. eigenvalues --   -0.40213  -0.38757  -0.37486  -0.37077  -0.35006
 Alpha  occ. eigenvalues --   -0.34573  -0.34041  -0.24863
 Alpha virt. eigenvalues --   -0.02474   0.08067   0.09428   0.11747   0.12322
 Alpha virt. eigenvalues --    0.13129   0.14186   0.15098   0.15439   0.15875
 Alpha virt. eigenvalues --    0.16355   0.17598   0.20349   0.21560   0.22123
 Alpha virt. eigenvalues --    0.23061   0.25260   0.26460   0.27933   0.32553
 Alpha virt. eigenvalues --    0.35375   0.47104   0.49195   0.50624   0.52228
 Alpha virt. eigenvalues --    0.52834   0.53982   0.54740   0.57363   0.59976
 Alpha virt. eigenvalues --    0.62162   0.64021   0.66984   0.68017   0.68566
 Alpha virt. eigenvalues --    0.71554   0.73325   0.74784   0.78836   0.80198
 Alpha virt. eigenvalues --    0.82223   0.83876   0.84355   0.86198   0.87227
 Alpha virt. eigenvalues --    0.88481   0.91740   0.92116   0.92579   0.94442
 Alpha virt. eigenvalues --    0.97467   1.01208   1.04339   1.07520   1.08935
 Alpha virt. eigenvalues --    1.09119   1.09983   1.13018   1.17373   1.23857
 Alpha virt. eigenvalues --    1.27274   1.30372   1.32464   1.34305   1.35126
 Alpha virt. eigenvalues --    1.35982   1.37642   1.38252   1.39703   1.40873
 Alpha virt. eigenvalues --    1.45922   1.49428   1.54438   1.59746   1.62982
 Alpha virt. eigenvalues --    1.65827   1.67746   1.69013   1.71870   1.73911
 Alpha virt. eigenvalues --    1.75976   1.78955   1.79199   1.82494   1.82877
 Alpha virt. eigenvalues --    1.84401   1.85257   1.86391   1.88432   1.92163
 Alpha virt. eigenvalues --    1.93378   1.95924   1.97609   1.98478   2.00493
 Alpha virt. eigenvalues --    2.01307   2.02828   2.04082   2.05541   2.05961
 Alpha virt. eigenvalues --    2.09664   2.12176   2.15308   2.17562   2.23887
 Alpha virt. eigenvalues --    2.24918   2.27400   2.32395   2.33671   2.37745
 Alpha virt. eigenvalues --    2.38489   2.41205   2.46908   2.51213   2.51874
 Alpha virt. eigenvalues --    2.57084   2.59165   2.61847   2.67718   2.70981
 Alpha virt. eigenvalues --    2.75108   2.81310   2.86093   2.89311   2.97240
 Alpha virt. eigenvalues --    3.00742   3.01714   3.05803   3.08889   3.98000
 Alpha virt. eigenvalues --    4.12092   4.23646   4.24774   4.35207   4.50712
 Alpha virt. eigenvalues --    4.55487   4.62671   4.65068   4.87728   5.33236
          Condensed to atoms (all electrons):
               1          2          3          4          5          6
     1  O    7.985448   0.593831  -0.077554   0.001020  -0.000049  -0.000000
     2  C    0.593831   4.476752   0.300397  -0.016612   0.001737   0.000202
     3  C   -0.077554   0.300397   5.414211   0.272052  -0.016641   0.001697
     4  C    0.001020  -0.016612   0.272052   5.327371   0.323557  -0.049429
     5  C   -0.000049   0.001737  -0.016641   0.323557   4.049165   0.288830
     6  F   -0.000000   0.000202   0.001697  -0.049429   0.288830   9.097375
     7  F    0.000000  -0.000011   0.002224  -0.048479   0.291298  -0.037137
     8  F   -0.000000   0.000068  -0.001490  -0.054404   0.277652  -0.037684
     9  C    0.000081  -0.012344  -0.041322   0.316080  -0.016929   0.002300
    10  C    0.001563  -0.025277  -0.002510  -0.035857   0.003077  -0.000019
    11  C   -0.078725   0.327386  -0.140283  -0.002942  -0.000292  -0.000002
    12  H    0.004773  -0.019334   0.341609  -0.028206  -0.003542   0.006026
    13  H    0.000801  -0.024701   0.346067  -0.039208  -0.006650  -0.000328
    14  H    0.000359  -0.001522  -0.042394   0.348049  -0.024675   0.000549
    15  H   -0.000008  -0.001304  -0.004001  -0.044835  -0.004457   0.000041
    16  H    0.000001   0.000226   0.004996  -0.034206  -0.003504   0.000048
    17  H   -0.000065   0.002988  -0.000268   0.004241  -0.000076   0.000000
    18  H    0.000369  -0.002668   0.000432  -0.006267  -0.000015  -0.000000
    19  H    0.004576  -0.023189   0.006597   0.000002   0.000009  -0.000000
    20  H    0.001103  -0.028607   0.004027  -0.001800  -0.000008   0.000000
               7          8          9         10         11         12
     1  O    0.000000  -0.000000   0.000081   0.001563  -0.078725   0.004773
     2  C   -0.000011   0.000068  -0.012344  -0.025277   0.327386  -0.019334
     3  C    0.002224  -0.001490  -0.041322  -0.002510  -0.140283   0.341609
     4  C   -0.048479  -0.054404   0.316080  -0.035857  -0.002942  -0.028206
     5  C    0.291298   0.277652  -0.016929   0.003077  -0.000292  -0.003542
     6  F   -0.037137  -0.037684   0.002300  -0.000019  -0.000002   0.006026
     7  F    9.096735  -0.037561  -0.000951   0.000133  -0.000002   0.000035
     8  F   -0.037561   9.111834  -0.001525   0.000093   0.000005  -0.000029
     9  C   -0.000951  -0.001525   5.092929   0.358138  -0.044846   0.004512
    10  C    0.000133   0.000093   0.358138   5.032988   0.331854  -0.000239
    11  C   -0.000002   0.000005  -0.044846   0.331854   5.316428   0.006133
    12  H    0.000035  -0.000029   0.004512  -0.000239   0.006133   0.531746
    13  H    0.000065   0.007719  -0.003689  -0.001047   0.003550  -0.023384
    14  H    0.000709   0.002537  -0.039078  -0.004144   0.000653  -0.002945
    15  H   -0.000246   0.006654   0.371846  -0.038198  -0.003032  -0.000027
    16  H    0.007518  -0.000122   0.365783  -0.027840   0.004158  -0.000139
    17  H    0.000000   0.000000  -0.030380   0.371838  -0.027729   0.000016
    18  H    0.000000  -0.000001  -0.038311   0.376825  -0.042624  -0.000035
    19  H   -0.000000  -0.000000   0.004062  -0.025757   0.346112  -0.000166
    20  H    0.000000  -0.000003  -0.002447  -0.036322   0.349155  -0.000107
              13         14         15         16         17         18
     1  O    0.000801   0.000359  -0.000008   0.000001  -0.000065   0.000369
     2  C   -0.024701  -0.001522  -0.001304   0.000226   0.002988  -0.002668
     3  C    0.346067  -0.042394  -0.004001   0.004996  -0.000268   0.000432
     4  C   -0.039208   0.348049  -0.044835  -0.034206   0.004241  -0.006267
     5  C   -0.006650  -0.024675  -0.004457  -0.003504  -0.000076  -0.000015
     6  F   -0.000328   0.000549   0.000041   0.000048   0.000000  -0.000000
     7  F    0.000065   0.000709  -0.000246   0.007518   0.000000   0.000000
     8  F    0.007719   0.002537   0.006654  -0.000122   0.000000  -0.000001
     9  C   -0.003689  -0.039078   0.371846   0.365783  -0.030380  -0.038311
    10  C   -0.001047  -0.004144  -0.038198  -0.027840   0.371838   0.376825
    11  C    0.003550   0.000653  -0.003032   0.004158  -0.027729  -0.042624
    12  H   -0.023384  -0.002945  -0.000027  -0.000139   0.000016  -0.000035
    13  H    0.555973   0.005757   0.004480  -0.000043  -0.000008   0.000080
    14  H    0.005757   0.583419   0.005859  -0.003720  -0.000006   0.004429
    15  H    0.004480   0.005859   0.581154  -0.032152  -0.003941   0.005375
    16  H   -0.000043  -0.003720  -0.032152   0.563488  -0.002315  -0.003614
    17  H   -0.000008  -0.000006  -0.003941  -0.002315   0.576275  -0.035288
    18  H    0.000080   0.004429   0.005375  -0.003614  -0.035288   0.588728
    19  H   -0.000116  -0.000046  -0.000025  -0.000132  -0.002252  -0.003229
    20  H    0.000989   0.000087   0.004412  -0.000024  -0.006210   0.005597
              19         20
     1  O    0.004576   0.001103
     2  C   -0.023189  -0.028607
     3  C    0.006597   0.004027
     4  C    0.000002  -0.001800
     5  C    0.000009  -0.000008
     6  F   -0.000000   0.000000
     7  F   -0.000000   0.000000
     8  F   -0.000000  -0.000003
     9  C    0.004062  -0.002447
    10  C   -0.025757  -0.036322
    11  C    0.346112   0.349155
    12  H   -0.000166  -0.000107
    13  H   -0.000116   0.000989
    14  H   -0.000046   0.000087
    15  H   -0.000025   0.004412
    16  H   -0.000132  -0.000024
    17  H   -0.002252  -0.006210
    18  H   -0.003229   0.005597
    19  H    0.549102  -0.025479
    20  H   -0.025479   0.575370
 Mulliken charges:
               1
     1  O   -0.437526
     2  C    0.451982
     3  C   -0.367845
     4  C   -0.230126
     5  C    0.841512
     6  F   -0.272467
     7  F   -0.274332
     8  F   -0.273744
     9  C   -0.283909
    10  C   -0.279300
    11  C   -0.344957
    12  H    0.183303
    13  H    0.173693
    14  H    0.166122
    15  H    0.152406
    16  H    0.161594
    17  H    0.153180
    18  H    0.150218
    19  H    0.169931
    20  H    0.160265
 Sum of Mulliken charges =  -0.00000
 Mulliken charges with hydrogens summed into heavy atoms:
               1
     1  O   -0.437526
     2  C    0.451982
     3  C   -0.010849
     4  C   -0.064004
     5  C    0.841512
     6  F   -0.272467
     7  F   -0.274332
     8  F   -0.273744
     9  C    0.030091
    10  C    0.024099
    11  C   -0.014761
 APT charges:
               1
     1  O   -0.639733
     2  C    0.750328
     3  C   -0.082687
     4  C    0.008502
     5  C    1.527105
     6  F   -0.532876
     7  F   -0.537594
     8  F   -0.510967
     9  C    0.074648
    10  C    0.153344
    11  C   -0.060457
    12  H    0.002508
    13  H    0.017740
    14  H   -0.024760
    15  H   -0.019374
    16  H   -0.017449
    17  H   -0.044216
    18  H   -0.039463
    19  H   -0.017240
    20  H   -0.007359
 Sum of APT charges =  -0.00000
 APT charges with hydrogens summed into heavy atoms:
               1
     1  O   -0.639733
     2  C    0.750328
     3  C   -0.062439
     4  C   -0.016258
     5  C    1.527105
     6  F   -0.532876
     7  F   -0.537594
     8  F   -0.510967
     9  C    0.037825
    10  C    0.069665
    11  C   -0.085055
 Electronic spatial extent (au):  <R**2>=           1842.1827
 Charge=             -0.0000 electrons
 Dipole moment (field-independent basis, Debye):
    X=             -0.2701    Y=              2.5730    Z=              0.4767  Tot=              2.6307
 Quadrupole moment (field-independent basis, Debye-Ang):
   XX=            -72.9488   YY=            -64.8212   ZZ=            -60.8206
   XY=             -7.1629   XZ=             -2.5696   YZ=             -1.3056
 Traceless Quadrupole moment (field-independent basis, Debye-Ang):
   XX=             -6.7519   YY=              1.3756   ZZ=              5.3763
   XY=             -7.1629   XZ=             -2.5696   YZ=             -1.3056
 Octapole moment (field-independent basis, Debye-Ang**2):
  XXX=             50.7652  YYY=              0.1155  ZZZ=             -0.2475  XYY=             22.2634
  XXY=             19.8574  XXZ=              6.8546  XZZ=              9.8132  YZZ=             -3.2194
  YYZ=              2.9784  XYZ=              3.2813
 Hexadecapole moment (field-independent basis, Debye-Ang**3):
 XXXX=          -1464.9423 YYYY=           -536.4188 ZZZZ=           -169.1294 XXXY=            -62.1841
 XXXZ=            -10.1269 YYYX=            -16.0747 YYYZ=             -1.0309 ZZZX=             -0.5407
 ZZZY=              2.0328 XXYY=           -358.5035 XXZZ=           -261.1782 YYZZ=           -117.7047
 XXYZ=             -8.6995 YYXZ=             -4.8066 ZZXY=              1.8240
 N-N= 6.766509441102D+02 E-N=-2.874118819837D+03  KE= 6.417423064465D+02
  Exact polarizability:  79.934   1.951  75.444   0.608   1.644  61.008
 Approx polarizability: 103.429   8.525 108.349   3.487   5.708  97.066
 Calling FoFJK, ICntrl=    100127 FMM=F ISym2X=0 I1Cent= 0 IOpClX= 0 NMat=1 NMatS=1 NMatT=0.
 Full mass-weighted force constant matrix:
 Low frequencies ---  -10.1316   -5.7159   -0.0004   -0.0003    0.0012    3.9967
 Low frequencies ---   58.8424   93.6869  102.3014
 Diagonal vibrational polarizability:
       13.9965484      12.1684991      27.0217098
 Harmonic frequencies (cm**-1), IR intensities (KM/Mole), Raman scattering
 activities (A**4/AMU), depolarization ratios for plane and unpolarized
 incident light, reduced masses (AMU), force constants (mDyne/A),
 and normal coordinates:
                      1                      2                      3
                      A                      A                      A
 Frequencies --     58.8416                93.6854               102.3010
 Red. masses --     11.1202                 3.8520                 3.2856
 Frc consts  --      0.0227                 0.0199                 0.0203
 IR Inten    --      2.1088                 2.6881                 1.2821
  Atom  AN      X      Y      Z        X      Y      Z        X      Y      Z
     1   8    -0.07  -0.08   0.40     0.11  -0.03  -0.10     0.05   0.10  -0.17
     2   6    -0.01   0.01   0.08     0.01   0.01   0.02     0.02   0.02   0.07
     3   6     0.01   0.03  -0.04    -0.02   0.07   0.29     0.00   0.01   0.13
     4   6     0.02   0.01  -0.06    -0.03  -0.00   0.15    -0.01  -0.06  -0.02
     5   6     0.01  -0.00   0.00    -0.01  -0.01   0.01    -0.01  -0.02   0.00
     6   9     0.09   0.12  -0.27    -0.06   0.00  -0.11     0.05   0.02  -0.03
     7   9     0.03   0.18   0.31    -0.07   0.01  -0.03    -0.03   0.04   0.06
     8   9    -0.11  -0.33   0.04     0.14  -0.09  -0.02    -0.05  -0.05   0.01
     9   6     0.01   0.03  -0.15    -0.02   0.02   0.08    -0.00  -0.00  -0.20
    10   6     0.03  -0.00  -0.23     0.01   0.02  -0.05    -0.05  -0.06  -0.04
    11   6     0.01   0.07  -0.15    -0.07   0.02  -0.15     0.05  -0.00   0.21
    12   1    -0.02   0.02  -0.03     0.06   0.01   0.50     0.01  -0.03   0.24
    13   1     0.05   0.03  -0.05    -0.13   0.30   0.31     0.01   0.15   0.13
    14   1     0.06  -0.03  -0.06    -0.12  -0.08   0.16    -0.03  -0.21  -0.01
    15   1    -0.03   0.08  -0.15    -0.09   0.05   0.09     0.13   0.18  -0.24
    16   1     0.03  -0.00  -0.16     0.02  -0.00   0.10    -0.07  -0.07  -0.41
    17   1     0.02   0.03  -0.34    -0.03   0.02  -0.08    -0.02  -0.03  -0.11
    18   1     0.07  -0.12  -0.23     0.12   0.02  -0.06    -0.21  -0.20  -0.02
    19   1     0.01   0.03  -0.18    -0.02  -0.02  -0.34    -0.01   0.01   0.41
    20   1    -0.04   0.20  -0.16    -0.27   0.08  -0.16     0.29   0.03   0.20
                      4                      5                      6
                      A                      A                      A
 Frequencies --    162.1478               222.0413               279.2036
 Red. masses --      7.6894                 3.0366                 3.5549
 Frc consts  --      0.1191                 0.0882                 0.1633
 IR Inten    --      2.6044                 0.1304                 2.5874
  Atom  AN      X      Y      Z        X      Y      Z        X      Y      Z
     1   8    -0.23   0.13  -0.02    -0.07   0.05  -0.02    -0.10  -0.04   0.01
     2   6    -0.12   0.03  -0.01    -0.04   0.01   0.01    -0.11   0.00  -0.06
     3   6    -0.12  -0.16   0.02    -0.01  -0.03  -0.09    -0.08   0.06  -0.01
     4   6    -0.01  -0.22   0.07     0.02   0.06   0.09     0.03  -0.00  -0.02
     5   6     0.03  -0.04   0.02     0.04   0.03   0.06     0.09  -0.01   0.03
     6   9     0.31   0.07   0.03    -0.09   0.01  -0.01     0.10  -0.01   0.02
     7   9    -0.23   0.15  -0.06     0.04  -0.00   0.01     0.10  -0.02   0.03
     8   9     0.11   0.05   0.00     0.20  -0.02   0.03     0.18  -0.03   0.02
     9   6     0.07  -0.19   0.08    -0.09   0.03   0.04    -0.03   0.03  -0.15
    10   6     0.14  -0.03  -0.04    -0.06  -0.11  -0.17    -0.13   0.05   0.13
    11   6     0.02   0.08  -0.05    -0.00  -0.01   0.08    -0.16  -0.03  -0.02
    12   1    -0.23  -0.18  -0.02    -0.03   0.04  -0.27    -0.06   0.02   0.09
    13   1    -0.15  -0.23   0.03     0.01  -0.24  -0.09    -0.16   0.14   0.00
    14   1    -0.01  -0.19   0.07     0.10   0.12   0.08     0.10  -0.09  -0.02
    15   1    -0.02  -0.25   0.09    -0.25   0.07   0.06     0.19   0.19  -0.20
    16   1     0.19  -0.24   0.16    -0.07   0.06   0.10    -0.17   0.01  -0.37
    17   1     0.22   0.01  -0.10    -0.16  -0.04  -0.47    -0.04  -0.00   0.38
    18   1     0.20  -0.06  -0.05     0.03  -0.43  -0.17    -0.29   0.29   0.14
    19   1     0.03   0.16  -0.08    -0.05  -0.02   0.25    -0.13  -0.00  -0.10
    20   1    -0.00   0.11  -0.05     0.21   0.08   0.06    -0.27  -0.14  -0.00
                      7                      8                      9
                      A                      A                      A
 Frequencies --    305.7136               368.5803               404.7281
 Red. masses --      4.3848                 7.8707                 3.2120
 Frc consts  --      0.2415                 0.6300                 0.3100
 IR Inten    --      1.8636                 2.9822                 2.0237
  Atom  AN      X      Y      Z        X      Y      Z        X      Y      Z
     1   8    -0.01   0.07  -0.03    -0.24  -0.02  -0.03    -0.10  -0.12  -0.01
     2   6    -0.06   0.06   0.09    -0.08  -0.14  -0.04    -0.10  -0.07  -0.12
     3   6    -0.02   0.07   0.07    -0.06  -0.13   0.16    -0.08   0.14   0.02
     4   6     0.01   0.00  -0.05    -0.02  -0.09   0.05     0.01   0.12   0.05
     5   6     0.07  -0.00  -0.09     0.01   0.10  -0.02     0.00  -0.01  -0.01
     6   9     0.17   0.01  -0.04    -0.21   0.09  -0.18     0.09   0.02   0.02
     7   9     0.22  -0.08  -0.01     0.25   0.02   0.14    -0.02  -0.03  -0.07
     8   9    -0.13   0.03  -0.06    -0.01   0.25  -0.02    -0.06  -0.05   0.01
     9   6    -0.10  -0.09   0.15     0.12  -0.09  -0.03     0.09   0.15   0.06
    10   6    -0.08  -0.10  -0.04     0.15  -0.06   0.04     0.08  -0.06  -0.01
    11   6    -0.16   0.03   0.05     0.11  -0.08  -0.04     0.08  -0.06   0.04
    12   1    -0.08   0.01   0.18     0.07  -0.17   0.35     0.15   0.11   0.25
    13   1     0.03   0.20   0.06    -0.21   0.07   0.18    -0.29   0.35   0.06
    14   1    -0.09   0.06  -0.05    -0.10  -0.20   0.06    -0.03   0.18   0.05
    15   1    -0.30  -0.32   0.20     0.22  -0.01  -0.05     0.09   0.22   0.05
    16   1    -0.08   0.07   0.42     0.14  -0.18  -0.14     0.04   0.15  -0.01
    17   1    -0.08  -0.03  -0.25     0.15  -0.09   0.12    -0.08  -0.05  -0.18
    18   1     0.04  -0.29  -0.05     0.14   0.03   0.03     0.16  -0.22  -0.02
    19   1    -0.13  -0.03  -0.05     0.12   0.06  -0.01     0.02   0.16   0.30
    20   1    -0.23   0.14   0.03     0.15  -0.15  -0.03     0.36  -0.19   0.05
                     10                     11                     12
                      A                      A                      A
 Frequencies --    446.3638               469.9855               503.8035
 Red. masses --      4.1691                 1.7730                 4.6077
 Frc consts  --      0.4894                 0.2307                 0.6891
 IR Inten    --      0.5447                 0.5298                 9.7123
  Atom  AN      X      Y      Z        X      Y      Z        X      Y      Z
     1   8     0.07  -0.07  -0.01    -0.01  -0.01   0.03     0.20  -0.20  -0.00
     2   6    -0.09   0.06   0.00     0.03   0.00  -0.10    -0.10   0.07  -0.04
     3   6    -0.05   0.19  -0.08     0.01   0.02   0.02    -0.15   0.01  -0.06
     4   6     0.07  -0.01  -0.17    -0.02  -0.03  -0.07    -0.04  -0.07   0.07
     5   6     0.00  -0.01  -0.02     0.00  -0.00  -0.01    -0.02  -0.05   0.06
     6   9    -0.11  -0.07   0.05    -0.01  -0.03   0.04     0.05   0.04  -0.16
     7   9    -0.06   0.12   0.09     0.00   0.03   0.03    -0.01  -0.12   0.04
     8   9     0.07   0.03  -0.04     0.05  -0.01  -0.03     0.01   0.13   0.07
     9   6     0.12  -0.13   0.00    -0.10  -0.07   0.01     0.00  -0.04  -0.01
    10   6     0.12  -0.16   0.05    -0.06   0.09  -0.05     0.02   0.10  -0.04
    11   6    -0.11   0.03   0.08     0.09   0.01  -0.01    -0.04   0.16   0.07
    12   1    -0.11   0.08   0.18     0.08  -0.06   0.29    -0.34   0.03  -0.24
    13   1    -0.04   0.45  -0.08    -0.11   0.31   0.05    -0.16  -0.24  -0.06
    14   1     0.16   0.01  -0.18     0.01  -0.06  -0.07     0.02  -0.08   0.07
    15   1     0.17  -0.32   0.02    -0.30  -0.31   0.07    -0.05   0.00  -0.01
    16   1     0.05  -0.01   0.10     0.03   0.01   0.31     0.09  -0.11  -0.00
    17   1     0.18  -0.08  -0.16    -0.00   0.05   0.14     0.13   0.14  -0.03
    18   1     0.16  -0.34   0.05    -0.13   0.25  -0.05    -0.02   0.10  -0.03
    19   1    -0.06   0.18  -0.05    -0.02   0.02   0.35    -0.13   0.35   0.39
    20   1    -0.21   0.02   0.08     0.45  -0.08   0.00     0.31   0.09   0.08
                     13                     14                     15
                      A                      A                      A
 Frequencies --    546.4923               565.2942               641.6264
 Red. masses --      6.0849                 8.6343                 4.1799
 Frc consts  --      1.0707                 1.6257                 1.0139
 IR Inten    --      4.6967                 1.8466                 0.4214
  Atom  AN      X      Y      Z        X      Y      Z        X      Y      Z
     1   8    -0.03   0.11   0.06    -0.06   0.15   0.05    -0.07  -0.06  -0.11
     2   6     0.09   0.08  -0.11     0.13   0.02  -0.07    -0.08  -0.18   0.26
     3   6     0.08   0.10  -0.06     0.09   0.10  -0.04     0.03   0.03  -0.01
     4   6     0.13  -0.03  -0.04     0.03   0.06   0.00    -0.07   0.08  -0.21
     5   6     0.01   0.04   0.16    -0.03  -0.22   0.02    -0.08  -0.00   0.04
     6   9    -0.05   0.18  -0.13     0.13  -0.24  -0.22     0.04   0.10  -0.01
     7   9    -0.06  -0.14  -0.17    -0.20  -0.12   0.24    -0.05  -0.13   0.05
     8   9    -0.04  -0.01   0.27     0.04   0.28  -0.03     0.09   0.01   0.05
     9   6    -0.02  -0.16  -0.05    -0.02   0.13   0.05     0.02   0.05  -0.03
    10   6    -0.02  -0.11   0.04    -0.09  -0.06   0.02     0.06   0.09  -0.05
    11   6    -0.01  -0.06  -0.01     0.03  -0.12  -0.04     0.05  -0.00   0.02
    12   1     0.14  -0.01   0.28     0.25   0.07   0.12     0.13   0.03   0.04
    13   1    -0.10   0.43  -0.02     0.00   0.27  -0.02     0.40   0.21  -0.08
    14   1     0.41  -0.10  -0.05     0.04   0.15  -0.00     0.05   0.08  -0.21
    15   1    -0.04  -0.28  -0.03    -0.01   0.19   0.04    -0.14  -0.31   0.03
    16   1    -0.06  -0.05   0.07    -0.13   0.18  -0.02     0.16   0.17   0.31
    17   1     0.10  -0.10   0.11    -0.24  -0.08  -0.06     0.01   0.02   0.11
    18   1    -0.10  -0.04   0.05    -0.04  -0.14   0.02     0.02   0.22  -0.05
    19   1    -0.00  -0.13  -0.06     0.06  -0.30  -0.16     0.10  -0.01  -0.15
    20   1    -0.07  -0.15   0.00    -0.12  -0.17  -0.03    -0.12   0.30  -0.02
                     16                     17                     18
                      A                      A                      A
 Frequencies --    686.6153               763.8139               816.1173
 Red. masses --      5.9125                 2.0577                 3.8979
 Frc consts  --      1.6423                 0.7073                 1.5296
 IR Inten    --     12.2273                 3.8005                 0.3101
  Atom  AN      X      Y      Z        X      Y      Z        X      Y      Z
     1   8     0.08   0.08   0.07     0.03   0.05   0.00    -0.08  -0.04  -0.01
     2   6     0.12   0.10  -0.12    -0.04   0.06   0.09    -0.05  -0.02  -0.07
     3   6    -0.09  -0.01  -0.04    -0.09   0.12   0.03     0.26   0.05   0.06
     4   6    -0.23  -0.03  -0.05     0.00   0.04   0.04     0.13   0.04   0.12
     5   6    -0.20   0.04  -0.04    -0.01  -0.00  -0.00    -0.04   0.01  -0.01
     6   9     0.04   0.23   0.10     0.01   0.01   0.01    -0.01   0.09   0.04
     7   9     0.01  -0.19   0.12     0.00  -0.00   0.01    -0.07  -0.10   0.07
     8   9     0.11  -0.04  -0.15    -0.00  -0.00  -0.02    -0.02  -0.01  -0.15
     9   6    -0.02  -0.03   0.03     0.02  -0.04  -0.03     0.03  -0.10  -0.01
    10   6     0.03  -0.09   0.08     0.03  -0.12  -0.03     0.00  -0.02  -0.03
    11   6     0.07  -0.04  -0.02     0.05  -0.13  -0.10    -0.17   0.09  -0.00
    12   1    -0.09  -0.04   0.06    -0.27   0.21  -0.31     0.40   0.17  -0.17
    13   1    -0.20   0.11  -0.02     0.08  -0.25  -0.00     0.29  -0.19   0.05
    14   1    -0.32   0.02  -0.05    -0.04  -0.01   0.05     0.11   0.00   0.12
    15   1     0.24   0.07  -0.02    -0.11  -0.07  -0.01     0.00   0.05  -0.02
    16   1    -0.06  -0.16  -0.22    -0.01   0.05   0.06    -0.04  -0.08  -0.08
    17   1    -0.07  -0.02  -0.24     0.03  -0.28   0.47     0.29   0.02   0.13
    18   1     0.17  -0.38   0.07    -0.08   0.37  -0.03    -0.04   0.17  -0.03
    19   1     0.11  -0.10  -0.15    -0.02  -0.05   0.14    -0.25   0.23   0.31
    20   1    -0.09  -0.22   0.01     0.33  -0.06  -0.11     0.19   0.04   0.00
                     19                     20                     21
                      A                      A                      A
 Frequencies --    871.4633               884.5010               904.4416
 Red. masses --      1.7264                 2.1654                 1.8158
 Frc consts  --      0.7725                 0.9981                 0.8751
 IR Inten    --      6.2964                 1.7849                 7.9418
  Atom  AN      X      Y      Z        X      Y      Z        X      Y      Z
     1   8    -0.00   0.01  -0.00     0.00   0.02   0.02     0.02   0.03  -0.01
     2   6    -0.03   0.02   0.01    -0.00   0.05  -0.04     0.01  -0.01   0.09
     3   6     0.07  -0.02   0.04    -0.01  -0.05   0.10    -0.05  -0.05  -0.11
     4   6    -0.07  -0.00  -0.11     0.07  -0.05  -0.08     0.07  -0.05   0.03
     5   6    -0.00   0.00  -0.02     0.00  -0.01  -0.00     0.01  -0.01   0.02
     6   9     0.01  -0.03  -0.01    -0.02   0.04   0.01    -0.02   0.04   0.01
     7   9     0.01   0.01  -0.01    -0.02  -0.02   0.01    -0.01  -0.01   0.01
     8   9     0.02   0.00   0.08     0.00  -0.00  -0.00    -0.01  -0.00  -0.05
     9   6    -0.03  -0.02   0.08     0.16   0.12  -0.01     0.07  -0.00   0.09
    10   6    -0.01  -0.02   0.04    -0.06   0.07  -0.01    -0.04   0.04  -0.07
    11   6    -0.05   0.02  -0.11    -0.11  -0.10  -0.01    -0.06  -0.06  -0.01
    12   1    -0.03  -0.01  -0.03    -0.23  -0.03  -0.10    -0.09  -0.22   0.32
    13   1     0.35   0.00  -0.01     0.08  -0.27   0.07    -0.15   0.38  -0.08
    14   1    -0.16   0.10  -0.11     0.07  -0.25  -0.07     0.21   0.22   0.00
    15   1     0.39   0.14   0.00     0.06  -0.29   0.05     0.20   0.29   0.04
    16   1    -0.23  -0.09  -0.29     0.28   0.24   0.33     0.05  -0.17  -0.19
    17   1    -0.11  -0.00  -0.10    -0.25   0.08  -0.21    -0.08  -0.02   0.10
    18   1     0.32  -0.04   0.00     0.00  -0.13  -0.02     0.11   0.25  -0.09
    19   1    -0.17   0.13   0.32    -0.18  -0.17   0.20    -0.15  -0.30   0.19
    20   1     0.41  -0.06  -0.11     0.08  -0.33   0.02     0.15   0.22  -0.05
                     22                     23                     24
                      A                      A                      A
 Frequencies --    930.0969               992.5489              1052.8978
 Red. masses --      2.4566                 2.4716                 1.8774
 Frc consts  --      1.2521                 1.4346                 1.2263
 IR Inten    --      3.8482                15.9938                 9.2153
  Atom  AN      X      Y      Z        X      Y      Z        X      Y      Z
     1   8     0.02  -0.02  -0.00    -0.03  -0.03  -0.03     0.00   0.02   0.01
     2   6    -0.05   0.04   0.01    -0.03  -0.04   0.08     0.02  -0.01   0.01
     3   6    -0.03  -0.14   0.04    -0.03   0.16   0.00    -0.06  -0.05   0.04
     4   6     0.16  -0.01  -0.07     0.10  -0.06   0.03     0.04   0.09  -0.03
     5   6     0.03   0.00   0.02     0.05  -0.01   0.05     0.01   0.03   0.02
     6   9    -0.02   0.03   0.01    -0.01   0.02   0.00     0.01  -0.02  -0.01
     7   9    -0.04  -0.03   0.02    -0.01  -0.01   0.00    -0.01  -0.01   0.00
     8   9    -0.01  -0.00  -0.05    -0.02  -0.00  -0.07    -0.00  -0.00  -0.02
     9   6    -0.09   0.11   0.01    -0.07  -0.09   0.02    -0.12  -0.02  -0.04
    10   6    -0.01  -0.12   0.08    -0.07   0.14   0.07     0.16   0.07   0.00
    11   6     0.08   0.10  -0.07     0.14  -0.02  -0.06    -0.07  -0.08   0.02
    12   1    -0.26  -0.26   0.20    -0.17   0.19  -0.19    -0.19  -0.08   0.04
    13   1     0.01   0.01   0.03     0.12  -0.09  -0.03    -0.00  -0.04   0.03
    14   1     0.35  -0.02  -0.08     0.31  -0.21   0.03     0.15   0.14  -0.04
    15   1    -0.10   0.08   0.02     0.23  -0.06  -0.02    -0.14   0.08  -0.05
    16   1    -0.36   0.37   0.06    -0.12  -0.16  -0.14    -0.29   0.11  -0.06
    17   1    -0.13  -0.18   0.14    -0.27   0.22  -0.39     0.57   0.25  -0.15
    18   1    -0.02  -0.04   0.08     0.17  -0.33   0.06     0.28   0.00  -0.01
    19   1     0.11   0.41  -0.08     0.14  -0.10  -0.09    -0.11  -0.26   0.12
    20   1     0.10   0.10  -0.07     0.02  -0.16  -0.04     0.01  -0.34   0.05
                     25                     26                     27
                      A                      A                      A
 Frequencies --   1081.0327              1105.5664              1118.8684
 Red. masses --      1.1436                 2.8597                 2.6806
 Frc consts  --      0.7874                 2.0594                 1.9771
 IR Inten    --      7.0164                27.7416                30.1969
  Atom  AN      X      Y      Z        X      Y      Z        X      Y      Z
     1   8    -0.01   0.00   0.00    -0.02  -0.03   0.00     0.03   0.04   0.00
     2   6     0.06  -0.05  -0.01     0.04  -0.02  -0.06     0.01  -0.03   0.09
     3   6    -0.04   0.01   0.00    -0.09  -0.05   0.12    -0.05  -0.10  -0.04
     4   6     0.01   0.03  -0.01     0.09   0.20  -0.07    -0.06   0.16   0.08
     5   6     0.00   0.02   0.01     0.06   0.02  -0.09    -0.07   0.06   0.13
     6   9     0.00  -0.01  -0.00    -0.00   0.01   0.01     0.04  -0.06  -0.02
     7   9    -0.00  -0.00   0.00    -0.05  -0.03   0.03     0.02   0.01  -0.02
     8   9    -0.00  -0.00  -0.00     0.01   0.00   0.04    -0.01  -0.00  -0.05
     9   6    -0.00   0.00  -0.01     0.09  -0.15   0.04     0.07  -0.06  -0.11
    10   6    -0.01  -0.02   0.02    -0.13   0.00  -0.05    -0.06  -0.02   0.10
    11   6    -0.02   0.03   0.01     0.07   0.06   0.02    -0.03   0.04  -0.12
    12   1     0.20   0.11  -0.09    -0.27  -0.02  -0.06     0.28  -0.07   0.13
    13   1    -0.42  -0.18   0.07    -0.07  -0.23   0.11    -0.10   0.13  -0.02
    14   1    -0.03  -0.33   0.01    -0.13   0.59  -0.09     0.31   0.21   0.05
    15   1     0.26  -0.25  -0.01     0.26  -0.01  -0.00     0.05  -0.38  -0.06
    16   1    -0.25   0.23   0.02    -0.03  -0.16  -0.14     0.26  -0.06   0.14
    17   1    -0.00  -0.01   0.00     0.10   0.07  -0.01    -0.06   0.06  -0.16
    18   1     0.31   0.10  -0.02    -0.32  -0.02  -0.03    -0.12  -0.29   0.11
    19   1    -0.07  -0.20   0.08     0.09  -0.20  -0.12    -0.11   0.22   0.18
    20   1     0.09   0.45  -0.05    -0.10   0.11   0.02     0.24  -0.20  -0.09
                     28                     29                     30
                      A                      A                      A
 Frequencies --   1170.7712              1196.5310              1240.5061
 Red. masses --      2.8054                 3.6804                 2.5094
 Frc consts  --      2.2656                 3.1045                 2.2752
 IR Inten    --    116.7690               167.1088                69.5319
  Atom  AN      X      Y      Z        X      Y      Z        X      Y      Z
     1   8    -0.01  -0.03   0.01     0.03  -0.00   0.01    -0.01  -0.00  -0.01
     2   6    -0.01   0.05  -0.11    -0.13   0.11   0.01     0.03  -0.05   0.03
     3   6     0.01  -0.01   0.10     0.06  -0.05  -0.03    -0.04   0.05  -0.02
     4   6    -0.05   0.03  -0.08     0.02   0.04   0.03    -0.02  -0.12  -0.03
     5   6    -0.15   0.06   0.23     0.11   0.34  -0.10    -0.02   0.26   0.02
     6   9     0.04  -0.06  -0.03     0.02  -0.09  -0.01     0.02  -0.07  -0.02
     7   9     0.05   0.03  -0.04    -0.08  -0.09   0.05    -0.02  -0.04   0.01
     8   9    -0.00  -0.01  -0.07    -0.00  -0.02   0.02     0.00  -0.02  -0.00
     9   6    -0.01  -0.01   0.06    -0.05  -0.03  -0.04     0.08   0.03   0.09
    10   6     0.01  -0.01  -0.08     0.06   0.06  -0.03    -0.06  -0.04  -0.02
    11   6     0.02  -0.02   0.10     0.01  -0.11   0.05     0.02   0.08  -0.04
    12   1    -0.12   0.04  -0.10     0.08  -0.10   0.12     0.03   0.08  -0.05
    13   1     0.30  -0.10   0.05    -0.20   0.03   0.02     0.09   0.04  -0.05
    14   1     0.55   0.03  -0.11    -0.12  -0.08   0.05     0.00  -0.26  -0.02
    15   1     0.21   0.03   0.03     0.14  -0.19  -0.05    -0.05   0.27   0.09
    16   1     0.05  -0.18  -0.12     0.17  -0.20  -0.03    -0.18   0.20   0.01
    17   1    -0.19  -0.15   0.16    -0.59  -0.18   0.05     0.53   0.14  -0.01
    18   1     0.15   0.24  -0.10     0.32   0.10  -0.06    -0.46  -0.08   0.03
    19   1     0.08  -0.11  -0.14     0.08   0.16  -0.10    -0.03  -0.22   0.05
    20   1    -0.17   0.24   0.07    -0.09   0.02   0.03     0.02  -0.23  -0.00
                     31                     32                     33
                      A                      A                      A
 Frequencies --   1249.3245              1263.1901              1288.9097
 Red. masses --      1.9498                 1.3976                 2.8033
 Frc consts  --      1.7931                 1.3140                 2.7439
 IR Inten    --     68.2335                11.0942               129.1845
  Atom  AN      X      Y      Z        X      Y      Z        X      Y      Z
     1   8    -0.03   0.02   0.00    -0.03  -0.03  -0.00     0.01  -0.01   0.00
     2   6     0.17  -0.14  -0.02     0.02   0.01  -0.06    -0.06   0.07  -0.02
     3   6    -0.02   0.07   0.02    -0.01   0.01  -0.00    -0.02  -0.03   0.02
     4   6    -0.01  -0.02  -0.05    -0.02  -0.02   0.09    -0.08  -0.03  -0.08
     5   6     0.08   0.06   0.05    -0.01   0.04  -0.06     0.27  -0.02   0.21
     6   9    -0.00  -0.01  -0.01     0.00  -0.01   0.00    -0.03   0.03  -0.01
     7   9    -0.02  -0.02   0.01    -0.00  -0.01   0.01    -0.04  -0.02  -0.00
     8   9    -0.01  -0.00  -0.02     0.00  -0.00   0.01    -0.03  -0.00  -0.08
     9   6    -0.03   0.02  -0.01     0.01   0.02  -0.08     0.03  -0.01  -0.02
    10   6     0.03  -0.01   0.04    -0.01  -0.02   0.08     0.03  -0.01   0.05
    11   6    -0.08  -0.01  -0.00     0.01   0.02  -0.00     0.01   0.03  -0.02
    12   1    -0.48  -0.03  -0.04    -0.34  -0.09   0.03     0.40   0.11  -0.08
    13   1    -0.10  -0.10   0.03     0.52   0.21  -0.09     0.10   0.01   0.00
    14   1    -0.06   0.09  -0.05     0.08   0.13   0.07    -0.45   0.22  -0.07
    15   1    -0.22   0.17   0.00    -0.11  -0.12  -0.04    -0.29   0.18   0.01
    16   1     0.35  -0.30  -0.02     0.07   0.08   0.11     0.04   0.02   0.02
    17   1    -0.13  -0.05   0.00     0.03   0.03  -0.04    -0.08  -0.03   0.00
    18   1     0.03  -0.02   0.03     0.16  -0.07   0.06    -0.02  -0.09   0.06
    19   1    -0.05   0.53   0.05    -0.04  -0.41   0.04    -0.05  -0.47   0.05
    20   1     0.08   0.21  -0.03     0.10   0.46  -0.06     0.06   0.17  -0.04
                     34                     35                     36
                      A                      A                      A
 Frequencies --   1303.8029              1320.8739              1355.4076
 Red. masses --      1.5502                 1.5013                 1.4607
 Frc consts  --      1.5526                 1.5433                 1.5811
 IR Inten    --     73.5629                22.9870                21.8485
  Atom  AN      X      Y      Z        X      Y      Z        X      Y      Z
     1   8     0.00   0.02   0.01     0.02   0.02   0.01    -0.01  -0.01  -0.01
     2   6     0.07  -0.04  -0.02     0.03  -0.02  -0.02     0.01  -0.01   0.01
     3   6    -0.09  -0.02  -0.02    -0.14  -0.02   0.05    -0.01  -0.01  -0.00
     4   6    -0.06   0.02   0.06     0.03  -0.06  -0.02    -0.00   0.07  -0.02
     5   6     0.12  -0.01   0.01    -0.01   0.01  -0.10     0.04  -0.02  -0.04
     6   9    -0.01   0.02   0.00    -0.00   0.00   0.01    -0.00   0.01   0.01
     7   9    -0.02  -0.01   0.01    -0.00  -0.00   0.01    -0.01  -0.01   0.01
     8   9    -0.02   0.00  -0.02     0.00   0.00   0.03    -0.00   0.00   0.01
     9   6     0.01  -0.00   0.01    -0.01  -0.01   0.00    -0.06   0.05   0.02
    10   6    -0.03  -0.01  -0.08     0.03   0.01   0.02     0.01  -0.07   0.00
    11   6    -0.01   0.02   0.05    -0.03  -0.00   0.00     0.01   0.13  -0.01
    12   1     0.03   0.01  -0.01     0.65   0.28  -0.18    -0.03  -0.02   0.01
    13   1     0.50   0.23  -0.12     0.21  -0.02  -0.01     0.00   0.00  -0.00
    14   1    -0.01  -0.14   0.07     0.42   0.15  -0.07     0.20  -0.41  -0.00
    15   1     0.34  -0.28  -0.01    -0.23   0.22   0.01     0.03  -0.01   0.01
    16   1    -0.23   0.20   0.01     0.06  -0.08  -0.02     0.45  -0.42  -0.05
    17   1    -0.01  -0.04   0.05    -0.19  -0.05   0.01    -0.02  -0.12   0.11
    18   1     0.13   0.21  -0.11     0.07  -0.02   0.02     0.12   0.07  -0.01
    19   1     0.05   0.33  -0.07    -0.03   0.08   0.02    -0.07  -0.43   0.08
    20   1    -0.13  -0.31   0.09     0.02   0.06  -0.00    -0.04  -0.35   0.05
                     37                     38                     39
                      A                      A                      A
 Frequencies --   1365.5855              1384.8123              1394.4419
 Red. masses --      1.3580                 1.4369                 1.4535
 Frc consts  --      1.4920                 1.6235                 1.6652
 IR Inten    --      7.9902                 9.0909                 7.0399
  Atom  AN      X      Y      Z        X      Y      Z        X      Y      Z
     1   8    -0.01  -0.00  -0.01     0.00   0.00  -0.00     0.01   0.00   0.00
     2   6     0.03  -0.04   0.02    -0.01   0.00   0.01    -0.04   0.02   0.00
     3   6     0.02   0.04   0.00     0.04   0.03   0.02    -0.00  -0.01   0.00
     4   6     0.01  -0.08   0.01    -0.07  -0.10   0.02     0.01  -0.02  -0.02
     5   6    -0.04   0.02   0.01     0.07   0.00  -0.03     0.01   0.01   0.01
     6   9     0.00  -0.01  -0.00    -0.01   0.01   0.00    -0.00   0.00  -0.00
     7   9     0.01   0.00  -0.00    -0.01  -0.01   0.01    -0.00  -0.00   0.00
     8   9     0.00  -0.00   0.00    -0.01  -0.00  -0.00    -0.00  -0.00  -0.00
     9   6     0.04  -0.02  -0.05    -0.07   0.09   0.00     0.01   0.04  -0.02
    10   6    -0.01  -0.02  -0.00     0.02  -0.03  -0.02    -0.16  -0.05   0.03
    11   6     0.01   0.11   0.01    -0.00  -0.00  -0.01     0.05  -0.05   0.01
    12   1    -0.10   0.00   0.01     0.04   0.04  -0.00     0.12   0.03  -0.01
    13   1    -0.16  -0.10   0.03    -0.21  -0.17   0.06    -0.02  -0.03   0.01
    14   1    -0.09   0.48  -0.02     0.39   0.53  -0.07    -0.05   0.06  -0.02
    15   1    -0.19  -0.02  -0.03     0.41  -0.40  -0.01    -0.11   0.04   0.00
    16   1    -0.16   0.19   0.02     0.10  -0.05  -0.00     0.28  -0.14   0.04
    17   1    -0.32  -0.13   0.03     0.22   0.03   0.01     0.54   0.21  -0.08
    18   1     0.42   0.21  -0.06    -0.22  -0.02   0.01     0.61   0.20  -0.07
    19   1    -0.04  -0.17   0.07    -0.00  -0.05  -0.02     0.10   0.23  -0.08
    20   1    -0.14  -0.43   0.09     0.04   0.01  -0.01    -0.05   0.02   0.00
                     40                     41                     42
                      A                      A                      A
 Frequencies --   1430.3944              1492.7536              1501.4047
 Red. masses --      1.7952                 1.0950                 1.0868
 Frc consts  --      2.1641                 1.4376                 1.4434
 IR Inten    --     16.3391                 9.1762                 6.8798
  Atom  AN      X      Y      Z        X      Y      Z        X      Y      Z
     1   8     0.00  -0.00  -0.00     0.00   0.00   0.00     0.00   0.00   0.00
     2   6    -0.02   0.01   0.00    -0.00   0.00  -0.00     0.00   0.00  -0.01
     3   6     0.08  -0.00   0.01     0.01  -0.03   0.02    -0.03   0.05  -0.04
     4   6    -0.18   0.05  -0.00     0.01  -0.01   0.00    -0.01   0.01  -0.00
     5   6     0.09  -0.03  -0.06    -0.00   0.00   0.00     0.00  -0.00  -0.00
     6   9    -0.01   0.01   0.01     0.00  -0.00  -0.00    -0.00   0.00   0.00
     7   9    -0.01  -0.01   0.01     0.00   0.00  -0.00    -0.00  -0.00   0.00
     8   9    -0.01   0.00   0.01     0.00  -0.00  -0.00    -0.00   0.00   0.00
     9   6     0.10  -0.06   0.01    -0.01   0.01   0.00     0.02   0.01   0.01
    10   6    -0.03   0.01   0.00     0.01   0.00  -0.01     0.00   0.00  -0.00
    11   6     0.01  -0.02  -0.00     0.06  -0.02  -0.05     0.03  -0.01  -0.02
    12   1    -0.21  -0.05  -0.05    -0.05   0.09  -0.30     0.12  -0.17   0.58
    13   1    -0.24   0.00   0.06    -0.06   0.29   0.03     0.21  -0.56  -0.07
    14   1     0.70  -0.19  -0.05    -0.04   0.03   0.00     0.02  -0.04   0.00
    15   1    -0.34   0.26   0.04     0.03  -0.06   0.00    -0.14  -0.14   0.04
    16   1    -0.23   0.18  -0.04     0.01  -0.03  -0.02    -0.07  -0.05  -0.19
    17   1    -0.01   0.01   0.02     0.03  -0.01   0.05     0.01  -0.00   0.02
    18   1     0.11  -0.02  -0.01    -0.02  -0.06  -0.00    -0.01  -0.04   0.00
    19   1     0.01   0.05   0.04    -0.15   0.08   0.62    -0.07   0.04   0.28
    20   1    -0.07   0.02  -0.00    -0.61   0.10  -0.03    -0.28   0.08  -0.02
                     43                     44                     45
                      A                      A                      A
 Frequencies --   1523.9918              1531.6760              1822.9626
 Red. masses --      1.0822                 1.0961                11.1012
 Frc consts  --      1.4809                 1.5151                21.7359
 IR Inten    --      8.9832                 1.2813               187.9810
  Atom  AN      X      Y      Z        X      Y      Z        X      Y      Z
     1   8    -0.00  -0.00  -0.00     0.00   0.00   0.00    -0.30  -0.36  -0.16
     2   6     0.01  -0.00  -0.00    -0.00   0.00  -0.00     0.46   0.55   0.24
     3   6    -0.00   0.01  -0.01     0.00   0.01  -0.01    -0.03  -0.03  -0.02
     4   6    -0.01  -0.01  -0.00    -0.02   0.01  -0.00    -0.02  -0.01  -0.00
     5   6     0.00  -0.00   0.00     0.01  -0.00  -0.00     0.00  -0.00  -0.00
     6   9    -0.00   0.00  -0.00     0.00   0.00   0.00     0.00   0.00   0.00
     7   9     0.00   0.00  -0.00    -0.00  -0.00   0.00     0.00   0.00  -0.00
     8   9    -0.00   0.00   0.00    -0.00   0.00   0.00     0.00   0.00   0.00
     9   6    -0.03  -0.03  -0.03    -0.03  -0.05  -0.02     0.00   0.00  -0.00
    10   6    -0.02   0.04  -0.04     0.02  -0.04   0.03    -0.01  -0.01  -0.00
    11   6    -0.00   0.01  -0.00     0.02  -0.00  -0.01    -0.02  -0.04  -0.02
    12   1     0.02  -0.03   0.10     0.02  -0.04   0.13     0.26   0.04   0.05
    13   1     0.02  -0.11  -0.01     0.03  -0.13  -0.01    -0.11  -0.02   0.02
    14   1     0.00   0.03  -0.01     0.05  -0.01  -0.00     0.04   0.03  -0.01
    15   1     0.27   0.31  -0.10     0.31   0.41  -0.11    -0.00   0.00  -0.00
    16   1     0.12   0.14   0.39     0.14   0.14   0.47     0.00   0.01   0.01
    17   1     0.09  -0.12   0.52    -0.09   0.08  -0.42     0.02  -0.00  -0.03
    18   1     0.20  -0.51  -0.03    -0.14   0.42   0.02     0.03   0.05  -0.00
    19   1    -0.01   0.01   0.03    -0.02   0.00   0.12     0.01   0.25   0.06
    20   1    -0.03  -0.02  -0.00    -0.12   0.02  -0.01    -0.01  -0.11   0.01
                     46                     47                     48
                      A                      A                      A
 Frequencies --   3022.9788              3039.0266              3042.1860
 Red. masses --      1.0698                 1.0705                 1.0669
 Frc consts  --      5.7600                 5.8250                 5.8176
 IR Inten    --      5.0806                 1.4045                23.4685
  Atom  AN      X      Y      Z        X      Y      Z        X      Y      Z
     1   8     0.00   0.00  -0.00     0.00   0.00  -0.00     0.00   0.00   0.00
     2   6    -0.00   0.00  -0.00    -0.00  -0.00  -0.00     0.00  -0.00  -0.00
     3   6     0.00  -0.00   0.01    -0.02   0.02  -0.06    -0.00   0.00  -0.01
     4   6    -0.00  -0.00  -0.00     0.00   0.00   0.03    -0.00  -0.00  -0.00
     5   6     0.00  -0.00  -0.00    -0.00   0.00   0.00     0.00   0.00   0.00
     6   9     0.00   0.00   0.00     0.00  -0.00  -0.00    -0.00   0.00  -0.00
     7   9    -0.00  -0.00   0.00     0.00   0.00  -0.00    -0.00  -0.00   0.00
     8   9     0.00   0.00  -0.00    -0.00  -0.00   0.00     0.00  -0.00  -0.00
     9   6     0.00   0.00  -0.00    -0.00  -0.00  -0.01     0.01   0.01   0.03
    10   6     0.00   0.00   0.02     0.00  -0.00   0.01    -0.02   0.02  -0.06
    11   6     0.02  -0.01  -0.07     0.00  -0.00  -0.01     0.01  -0.00  -0.01
    12   1    -0.01   0.04   0.02     0.05  -0.20  -0.09     0.01  -0.04  -0.02
    13   1    -0.03  -0.00  -0.17     0.15   0.00   0.86     0.02   0.00   0.14
    14   1     0.00   0.00   0.04    -0.03  -0.03  -0.36     0.00   0.00   0.02
    15   1     0.00  -0.00  -0.00     0.01   0.01   0.08    -0.05  -0.04  -0.40
    16   1    -0.01  -0.01   0.01    -0.01  -0.01   0.01    -0.04  -0.05   0.04
    17   1     0.01  -0.01   0.00    -0.01   0.03   0.01     0.10  -0.30  -0.12
    18   1    -0.02  -0.01  -0.21    -0.02  -0.01  -0.14     0.09   0.04   0.80
    19   1    -0.21   0.02  -0.08    -0.03   0.00  -0.01    -0.10   0.01  -0.04
    20   1     0.03   0.12   0.92     0.01   0.02   0.15     0.01   0.02   0.18
                     49                     50                     51
                      A                      A                      A
 Frequencies --   3048.0562              3059.7253              3092.6818
 Red. masses --      1.0691                 1.0747                 1.0983
 Frc consts  --      5.8523                 5.9280                 6.1895
 IR Inten    --      9.0934                26.0903                35.0602
  Atom  AN      X      Y      Z        X      Y      Z        X      Y      Z
     1   8    -0.00   0.00  -0.00     0.00   0.00   0.00    -0.00  -0.00   0.00
     2   6     0.00  -0.00   0.00    -0.00  -0.00  -0.00     0.00   0.00  -0.00
     3   6     0.00  -0.01   0.01    -0.01   0.01  -0.02    -0.00   0.00  -0.00
     4   6     0.00   0.00   0.04    -0.01  -0.00  -0.06    -0.00   0.00  -0.00
     5   6    -0.00  -0.00   0.00     0.00  -0.00  -0.00    -0.00  -0.00  -0.00
     6   9     0.00  -0.00  -0.00    -0.00   0.00   0.00     0.00  -0.00   0.00
     7   9     0.00   0.00  -0.00    -0.00   0.00   0.00     0.00   0.00  -0.00
     8   9    -0.00   0.00  -0.00     0.00   0.00   0.00     0.00   0.00   0.00
     9   6    -0.02  -0.02  -0.04    -0.02  -0.02  -0.02    -0.01  -0.01  -0.00
    10   6    -0.01   0.02  -0.02    -0.01   0.01  -0.00     0.02  -0.07  -0.05
    11   6     0.00  -0.00  -0.00     0.00  -0.00  -0.00     0.00  -0.00  -0.01
    12   1    -0.02   0.07   0.03     0.03  -0.11  -0.05     0.00  -0.01  -0.00
    13   1    -0.03  -0.00  -0.20     0.04  -0.00   0.26     0.00  -0.00   0.02
    14   1    -0.04  -0.04  -0.51     0.05   0.06   0.75     0.00   0.00   0.03
    15   1     0.09   0.06   0.66     0.05   0.04   0.43     0.02   0.01   0.11
    16   1     0.15   0.19  -0.14     0.19   0.23  -0.16     0.10   0.12  -0.08
    17   1     0.07  -0.24  -0.08     0.05  -0.17  -0.06    -0.26   0.80   0.26
    18   1     0.03   0.02   0.29     0.01   0.01   0.08     0.05   0.00   0.39
    19   1    -0.04   0.00  -0.01    -0.03   0.00  -0.01    -0.05   0.00  -0.02
    20   1     0.00   0.00   0.04     0.00   0.00   0.04     0.00   0.01   0.09
                     52                     53                     54
                      A                      A                      A
 Frequencies --   3107.6122              3123.2654              3139.0790
 Red. masses --      1.1000                 1.0943                 1.0949
 Frc consts  --      6.2591                 6.2893                 6.3568
 IR Inten    --     25.6348                16.5840                 7.5080
  Atom  AN      X      Y      Z        X      Y      Z        X      Y      Z
     1   8    -0.00  -0.00  -0.00     0.00   0.00   0.00     0.00   0.00   0.00
     2   6     0.00   0.00   0.00    -0.00  -0.00  -0.00    -0.00  -0.00  -0.00
     3   6     0.00  -0.00   0.00    -0.00   0.00   0.00     0.02  -0.07  -0.05
     4   6     0.00   0.00   0.01     0.00  -0.00  -0.00    -0.00  -0.00  -0.01
     5   6    -0.00  -0.00   0.00     0.00   0.00  -0.00     0.00  -0.00  -0.00
     6   9     0.00  -0.00  -0.00    -0.00   0.00   0.00     0.00   0.00   0.00
     7   9    -0.00   0.00  -0.00    -0.00  -0.00   0.00    -0.00   0.00   0.00
     8   9     0.00  -0.00  -0.00    -0.00   0.00   0.00    -0.00   0.00   0.00
     9   6    -0.04  -0.05   0.07     0.00   0.00  -0.00     0.00   0.00  -0.00
    10   6     0.00   0.00   0.01    -0.00   0.00  -0.01    -0.00   0.00  -0.00
    11   6    -0.00   0.00  -0.00    -0.08   0.00  -0.04    -0.00   0.00  -0.00
    12   1    -0.01   0.03   0.01     0.01  -0.03  -0.01    -0.22   0.87   0.35
    13   1    -0.00   0.00  -0.01     0.00  -0.00  -0.00     0.05  -0.01   0.25
    14   1    -0.01  -0.01  -0.13     0.00   0.00   0.01     0.00   0.00   0.06
    15   1    -0.06  -0.05  -0.41     0.01   0.00   0.03     0.00   0.00   0.01
    16   1     0.50   0.60  -0.40    -0.02  -0.02   0.02    -0.01  -0.01   0.01
    17   1     0.01  -0.05  -0.01    -0.00  -0.00  -0.00     0.00  -0.00  -0.00
    18   1    -0.02  -0.00  -0.14     0.01   0.00   0.08     0.00   0.00   0.01
    19   1     0.06  -0.01   0.02     0.91  -0.08   0.29     0.03  -0.00   0.01
    20   1     0.00   0.00  -0.01    -0.01   0.03   0.23    -0.00   0.00   0.01

 -------------------
 - Thermochemistry -
 -------------------
 Temperature   298.150 Kelvin.  Pressure   1.00000 Atm.
 Atom     1 has atomic number  8 and mass  15.99491
 Atom     2 has atomic number  6 and mass  12.00000
 Atom     3 has atomic number  6 and mass  12.00000
 Atom     4 has atomic number  6 and mass  12.00000
 Atom     5 has atomic number  6 and mass  12.00000
 Atom     6 has atomic number  9 and mass  18.99840
 Atom     7 has atomic number  9 and mass  18.99840
 Atom     8 has atomic number  9 and mass  18.99840
 Atom     9 has atomic number  6 and mass  12.00000
 Atom    10 has atomic number  6 and mass  12.00000
 Atom    11 has atomic number  6 and mass  12.00000
 Atom    12 has atomic number  1 and mass   1.00783
 Atom    13 has atomic number  1 and mass   1.00783
 Atom    14 has atomic number  1 and mass   1.00783
 Atom    15 has atomic number  1 and mass   1.00783
 Atom    16 has atomic number  1 and mass   1.00783
 Atom    17 has atomic number  1 and mass   1.00783
 Atom    18 has atomic number  1 and mass   1.00783
 Atom    19 has atomic number  1 and mass   1.00783
 Atom    20 has atomic number  1 and mass   1.00783
 Molecular mass:   166.06055 amu.
 Principal axes and moments of inertia in atomic units:
                           1         2         3
     Eigenvalues --   927.940672527.241593028.32663
           X            0.99973  -0.02291  -0.00392
           Y            0.02287   0.99969  -0.00992
           Z            0.00415   0.00983   0.99994
 This molecule is an asymmetric top.
 Rotational symmetry number  1.
 Warning -- assumption of classical behavior for rotation
           may cause significant error
 Rotational temperatures (Kelvin)      0.09334     0.03427     0.02860
 Rotational constants (GHZ):           1.94489     0.71412     0.59595
 Zero-point vibrational energy     412058.0 (Joules/Mol)
                                   98.48423 (Kcal/Mol)
 Warning -- explicit consideration of  14 degrees of freedom as
           vibrations may cause significant error
 Vibrational temperatures:     84.66   134.79   147.19   233.29   319.47
          (Kelvin)            401.71   439.85   530.30   582.31   642.22
                              676.20   724.86   786.28   813.33   923.16
                              987.89  1098.96  1174.21  1253.84  1272.60
                             1301.29  1338.20  1428.06  1514.89  1555.36
                             1590.66  1609.80  1684.48  1721.54  1784.81
                             1797.50  1817.45  1854.45  1875.88  1900.44
                             1950.13  1964.77  1992.44  2006.29  2058.02
                             2147.74  2160.19  2192.68  2203.74  2622.84
                             4349.39  4372.48  4377.03  4385.47  4402.26
                             4449.68  4471.16  4493.68  4516.43
 
 Zero-point correction=                           0.156945 (Hartree/Particle)
 Thermal correction to Energy=                    0.166784
 Thermal correction to Enthalpy=                  0.167728
 Thermal correction to Gibbs Free Energy=         0.121063
 Sum of electronic and zero-point Energies=           -646.773720
 Sum of electronic and thermal Energies=              -646.763880
 Sum of electronic and thermal Enthalpies=            -646.762936
 Sum of electronic and thermal Free Energies=         -646.809601
 
                     E (Thermal)             CV                S
                      KCal/Mol        Cal/Mol-Kelvin    Cal/Mol-Kelvin
 Total                  104.658             37.042             98.215
 Electronic               0.000              0.000              0.000
 Translational            0.889              2.981             41.230
 Rotational               0.889              2.981             30.341
 Vibrational            102.881             31.081             26.643
 Vibration     1          0.596              1.974              4.496
 Vibration     2          0.603              1.954              3.582
 Vibration     3          0.604              1.947              3.410
 Vibration     4          0.622              1.889              2.525
 Vibration     5          0.648              1.808              1.942
 Vibration     6          0.680              1.712              1.539
 Vibration     7          0.696              1.663              1.385
 Vibration     8          0.741              1.537              1.086
 Vibration     9          0.770              1.460              0.945
 Vibration    10          0.806              1.369              0.807
 Vibration    11          0.827              1.317              0.738
 Vibration    12          0.859              1.242              0.649
 Vibration    13          0.902              1.147              0.551
 Vibration    14          0.921              1.106              0.513
                       Q            Log10(Q)             Ln(Q)
 Total Bot       0.206496D-55        -55.685088       -128.219652
 Total V=0       0.319418D+17         16.504360         38.002693
 Vib (Bot)       0.257353D-69        -69.589472       -160.235680
 Vib (Bot)    1  0.350993D+01          0.545299          1.255597
 Vib (Bot)    2  0.219319D+01          0.341077          0.785359
 Vib (Bot)    3  0.200521D+01          0.302160          0.695750
 Vib (Bot)    4  0.124597D+01          0.095507          0.219913
 Vib (Bot)    5  0.890076D+00         -0.050573         -0.116449
 Vib (Bot)    6  0.688896D+00         -0.161846         -0.372665
 Vib (Bot)    7  0.620059D+00         -0.207567         -0.477940
 Vib (Bot)    8  0.494424D+00         -0.305900         -0.704362
 Vib (Bot)    9  0.438855D+00         -0.357679         -0.823585
 Vib (Bot)   10  0.385318D+00         -0.414181         -0.953686
 Vib (Bot)   11  0.358896D+00         -0.445031         -1.024722
 Vib (Bot)   12  0.325121D+00         -0.487955         -1.123557
 Vib (Bot)   13  0.288129D+00         -0.540413         -1.244348
 Vib (Bot)   14  0.273521D+00         -0.563009         -1.296377
 Vib (V=0)       0.398085D+03          2.599976          5.986666
 Vib (V=0)    1  0.404537D+01          0.606958          1.397573
 Vib (V=0)    2  0.274947D+01          0.439248          1.011407
 Vib (V=0)    3  0.256661D+01          0.409360          0.942586
 Vib (V=0)    4  0.184255D+01          0.265419          0.611150
 Vib (V=0)    5  0.152090D+01          0.182100          0.419302
 Vib (V=0)    6  0.135122D+01          0.130726          0.301009
 Vib (V=0)    7  0.129654D+01          0.112785          0.259698
 Vib (V=0)    8  0.120318D+01          0.080329          0.184964
 Vib (V=0)    9  0.116528D+01          0.066429          0.152959
 Vib (V=0)   10  0.113124D+01          0.053557          0.123319
 Vib (V=0)   11  0.111547D+01          0.047459          0.109278
 Vib (V=0)   12  0.109641D+01          0.039973          0.092040
 Vib (V=0)   13  0.107708D+01          0.032247          0.074251
 Vib (V=0)   14  0.106992D+01          0.029353          0.067588
 Electronic      0.100000D+01          0.000000          0.000000
 Translational   0.841112D+08          7.924854         18.247650
 Rotational      0.953961D+06          5.979530         13.768378
 ***** Axes restored to original set *****
 -------------------------------------------------------------------
 Center     Atomic                   Forces (Hartrees/Bohr)
 Number     Number              X              Y              Z
 -------------------------------------------------------------------
      1        8          -0.000053412   -0.000007566    0.000006193
      2        6           0.000028231    0.000007749    0.000080149
      3        6           0.000012867   -0.000056314   -0.000019443
      4        6          -0.000019311    0.000034118    0.000007222
      5        6           0.000022535    0.000006685    0.000018442
      6        9           0.000029997   -0.000029571   -0.000051468
      7        9           0.000057023    0.000042150    0.000007722
      8        9          -0.000027928    0.000005570    0.000000375
      9        6           0.000013860    0.000017473   -0.000028704
     10        6          -0.000032343   -0.000008460    0.000026842
     11        6           0.000050519    0.000004490   -0.000072509
     12        1          -0.000029215   -0.000004943    0.000011207
     13        1          -0.000029857   -0.000010861   -0.000006863
     14        1           0.000007374    0.000010883    0.000018277
     15        1          -0.000003553   -0.000005534   -0.000020489
     16        1          -0.000007110    0.000001831   -0.000014521
     17        1           0.000001845    0.000014396    0.000004797
     18        1           0.000008070   -0.000004407    0.000012446
     19        1          -0.000015586   -0.000002163    0.000013314
     20        1          -0.000014005   -0.000015526    0.000007012
 -------------------------------------------------------------------
 Cartesian Forces:  Max     0.000080149 RMS     0.000026588

 GradGradGradGradGradGradGradGradGradGradGradGradGradGradGradGradGradGrad
 Berny optimization.
 Search for a local minimum.
 Step number   1 out of a maximum of    2
 All quantities printed in internal units (Hartrees-Bohrs-Radians)
 Second derivative matrix not updated -- analytic derivatives used.
 ITU=  0
     Eigenvalues ---    0.00129   0.00171   0.00213   0.00475   0.00873
     Eigenvalues ---    0.01229   0.01749   0.02036   0.02333   0.04287
     Eigenvalues ---    0.04454   0.04613   0.04835   0.04923   0.05008
     Eigenvalues ---    0.05554   0.05955   0.06477   0.06853   0.07122
     Eigenvalues ---    0.07765   0.08608   0.09446   0.10962   0.12468
     Eigenvalues ---    0.14004   0.15047   0.16413   0.17912   0.19404
     Eigenvalues ---    0.19685   0.22352   0.27386   0.28569   0.30150
     Eigenvalues ---    0.38027   0.39940   0.47603   0.52305   0.61259
     Eigenvalues ---    0.63593   0.63914   0.71644   0.73310   0.73603
     Eigenvalues ---    0.76194   0.78552   0.80463   0.84814   0.85333
     Eigenvalues ---    0.87869   0.89345   0.93451   1.68317
 Angle between quadratic step and forces=  68.64 degrees.
 Linear search not attempted -- first point.
 B after Tr=    -0.000144    0.000126    0.000230
         Rot=    1.000000   -0.000114   -0.000160    0.000012 Ang=  -0.02 deg.
 Variable       Old X    -DE/DX   Delta X   Delta X   Delta X     New X
                                 (Linear)    (Quad)   (Total)
    X1        2.29605  -0.00005   0.00000   0.00063   0.00049   2.29654
    Y1       -0.00000  -0.00001   0.00000  -0.00148  -0.00142  -0.00142
    Z1       -0.00000   0.00001   0.00000   0.01340   0.01289   0.01289
    X2        0.00000   0.00003   0.00000   0.00070   0.00055   0.00055
    Y2       -0.00000   0.00001   0.00000  -0.00090  -0.00078  -0.00078
    Z2       -0.00000   0.00008   0.00000   0.00359   0.00382   0.00382
    X3       -1.51984   0.00001   0.00000  -0.00034  -0.00055  -1.52039
    Y3       -2.45208  -0.00006   0.00000  -0.00023  -0.00006  -2.45214
    Z3       -0.01589  -0.00002   0.00000  -0.00178  -0.00163  -0.01752
    X4       -3.66493  -0.00002   0.00000  -0.00027   0.00016  -3.66477
    Y4       -2.43146   0.00003   0.00000   0.00081   0.00057  -2.43089
[...]
 ,0.00155821,0.00100965,0.00052218,-0.00170406,-0.01444229,-0.00277457,
 -0.02113891,-0.08253061,-0.03287215,-0.20754096,-0.03281837,0.02511726
 ,-0.01877372,0.00769585,-0.00452443,-0.07558388,0.12357006,0.01838117,
 0.31860234,0.00063980,0.00019215,0.00038785,0.00006549,-0.00059397,-0.
 00185052,-0.01941507,0.02268694,0.00131215,-0.11556075,0.04144190,-0.0
 0667864,0.01964165,-0.00596655,0.00236203,-0.00087124,-0.01036553,-0.0
 0003642,-0.00175180,-0.00002914,0.00100262,-0.00144669,-0.00044842,-0.
 00142985,0.54622717,-0.00010948,-0.00142324,0.00000941,0.00052657,0.00
 345549,-0.00003570,0.00498432,-0.00014714,-0.00385721,0.04284722,-0.13
 806207,0.00792768,0.01073811,-0.03222222,0.00242770,-0.00066995,-0.003
 78584,-0.00007303,0.00203607,0.00001007,-0.00164772,0.00143676,0.00085
 313,0.00222891,0.01060011,0.44506908,0.00030119,-0.00015359,0.00009892
 ,-0.00095025,0.00035845,0.00166110,0.01475247,-0.02055884,0.00217583,-
 0.00683229,0.00730460,-0.08437578,0.00220343,-0.00183348,0.00165879,0.
 00004505,-0.00121542,0.00121157,0.00126859,-0.00075631,-0.00082197,-0.
 00115631,0.00086871,-0.00137821,-0.02106680,0.00022879,0.60863382,0.00
 073804,0.00217668,-0.00057250,-0.02159798,0.00773463,0.01291431,0.0014
 0061,-0.00098396,-0.00228627,0.01462075,0.01539074,0.00202760,-0.00559
 805,0.00132260,-0.00072993,0.00022842,0.00354314,0.00004142,0.00074933
 ,-0.00029551,-0.00035889,0.00064545,0.00002089,0.00068439,-0.11430871,
 -0.04954689,-0.00733155,0.50183779,0.00528926,-0.00556974,0.00396654,0
 .01850517,0.00994336,-0.02359345,-0.00221612,0.00090292,0.00212478,-0.
 01403386,-0.03429130,-0.00265974,0.00537894,-0.00189244,0.00050453,-0.
 00045745,-0.00185397,0.00003972,-0.00085044,0.00056364,0.00022218,-0.0
 0075361,0.00039304,-0.00038797,-0.04771669,-0.15132445,-0.00914826,-0.
 06286268,0.53886851,-0.00489783,0.00346717,-0.00192199,0.00476622,-0.0
 0907266,0.00210896,-0.00020290,-0.00002346,0.00006594,0.00179445,0.002
 60982,0.00094340,-0.00093148,0.00018677,-0.00202259,0.00017147,0.00055
 208,0.00012900,-0.00026674,0.00085746,0.00040132,0.00058135,-0.0007921
 7,0.00079043,-0.00643374,-0.00931278,-0.08360516,0.05473875,-0.0012090
 2,0.54083717,-0.04634573,0.04015147,-0.00217928,-0.09041838,0.02232981
 ,-0.00048941,0.01399690,-0.01345838,0.00277596,0.00127190,0.00252809,-
 0.00026779,-0.00024054,-0.00034708,-0.00002368,-0.00021487,0.00024885,
 0.00005908,0.00025232,-0.00001747,-0.00011555,0.00005080,0.00007579,-0
 .00003954,-0.01970597,-0.00559517,0.01539570,-0.12418784,-0.00038640,0
 .04614489,0.51433159,0.01653915,0.00990713,-0.00062458,0.02569283,-0.1
 7221706,0.00088649,0.01306492,-0.02321945,0.00007613,0.00087710,0.0009
 9685,0.00015322,0.00004304,0.00026328,-0.00014670,-0.00033780,0.000362
 47,0.00016019,-0.00003885,-0.00036222,0.00005087,-0.00007739,0.0000576
 3,0.00005006,-0.02278767,-0.00106571,0.02139078,-0.00495165,-0.0857261
 2,0.00194377,0.07927881,0.53921680,-0.00070313,-0.00145335,0.02521674,
 -0.00129458,0.00115214,-0.08920360,0.00214761,-0.00006432,0.01861238,-
 0.00218833,-0.00228206,0.00005979,0.00009825,0.00085847,0.00091639,-0.
 00005030,-0.00043176,-0.00004872,-0.00027757,-0.00042625,0.00006720,-0
 .00017100,-0.00018336,-0.00055675,0.00103130,0.00380723,0.00217794,0.0
 5245922,-0.00611934,-0.12503387,0.05179021,0.00888870,0.49115055,0.001
 55670,0.00119054,-0.00017856,0.01192025,-0.01523235,0.00326871,-0.1567
 3623,0.13247869,-0.02622585,-0.01383597,0.01644605,-0.00472862,-0.0023
 6605,0.00457293,-0.00030501,0.00178146,-0.00208348,-0.00007416,0.00049
 454,-0.00063431,-0.00016352,0.00015654,-0.00071625,0.00017467,-0.00261
 517,-0.00176097,0.00409634,-0.00021387,-0.00025860,0.00002308,-0.00215
 757,-0.00272540,-0.00042904,0.16817907,0.00026245,0.00602006,-0.000958
 03,0.02152379,-0.02638500,0.00525478,0.13044305,-0.20724226,0.03224202
 ,-0.00119353,0.00190806,-0.00135786,-0.00025919,0.00052365,-0.00042149
 ,-0.00124347,-0.00107282,0.00076176,0.00024775,-0.00000794,-0.00003973
 ,0.00005165,-0.00014612,0.00006244,-0.00083223,0.00066452,0.00018910,-
 0.00030728,0.00015646,0.00036114,-0.00483260,-0.00299774,-0.00074594,-
 0.14123284,0.22484797,0.00083444,0.00034727,-0.00110868,-0.00042858,-0
 .00302161,-0.00053639,-0.02691547,0.03330193,-0.05762945,0.01467871,-0
 .01896767,0.00379488,0.00022288,-0.00136798,0.00053208,-0.00025465,0.0
 0084477,-0.00036172,-0.00022594,0.00018734,-0.00003958,-0.00012009,0.0
 0002340,0.00013663,0.00316732,0.00141846,-0.00324626,0.00008061,0.0005
 5495,-0.00006536,-0.00004281,0.00022670,0.00112888,0.02623103,-0.03498
 331,0.05893786,-0.00091779,-0.00336290,0.00316004,-0.01047844,-0.00042
 935,-0.01701850,-0.08837470,-0.00779370,-0.10219709,0.00954137,0.00346
 323,0.02503124,0.00176777,-0.00067743,0.00203899,-0.00016332,0.0001061
 5,-0.00028852,0.00038210,0.00041459,-0.00085010,-0.00141896,-0.0004796
 7,-0.00070076,0.00156502,-0.00047681,0.00006983,-0.00016572,0.00028397
 ,0.00001779,0.00033817,0.00021737,0.00108180,-0.00758371,-0.00356240,-
 0.01763468,0.09914408,-0.00213982,-0.00246877,0.00352167,-0.01200144,0
 .00044891,-0.02905255,-0.00954389,-0.05393454,-0.02920431,0.00058150,0
 .00021787,0.00106525,0.00076393,0.00074012,0.00231063,-0.00017901,-0.0
 0019565,-0.00038026,0.00014812,-0.00002371,-0.00050582,-0.00078666,-0.
 00062886,-0.00060081,-0.00055822,0.00006476,-0.00097818,-0.00038383,0.
 00024200,0.00010379,0.00138383,-0.00035256,0.00340118,0.00975417,0.004
 30112,0.02368978,0.01293944,0.05187300,0.00095990,-0.00042788,-0.00077
 512,-0.00133309,-0.00080026,0.00122017,-0.09618780,-0.02204083,-0.2518
 2720,-0.00742615,-0.00129780,-0.02456524,-0.00239733,-0.00129250,-0.00
 330572,0.00029754,0.00032367,0.00042396,0.00010807,0.00010958,0.000653
 31,-0.00003030,-0.00012767,0.00265148,-0.00126698,0.00059985,0.0007182
 1,0.00040328,-0.00007201,-0.00014766,-0.00062914,0.00018039,-0.0006696
 8,-0.00147562,-0.00021408,-0.00344992,0.10365159,0.02564006,0.27941315
 ,-0.00035079,0.00023444,-0.00034376,0.00189592,0.00076084,0.00037851,0
 .00905553,-0.00034510,0.02469268,-0.09158390,-0.00188436,-0.09368975,-
 0.00911854,0.00289614,-0.02127333,0.00072100,0.00053810,0.00170476,0.0
 0093188,0.00015455,0.00164599,-0.00263310,-0.00428047,-0.00209901,-0.0
 0943798,0.00225182,-0.01758178,0.00049761,-0.00118518,0.00038972,-0.00
 003020,-0.00005102,0.00021751,0.00113270,0.00013498,-0.00081674,-0.003
 75390,-0.00052361,0.00429668,0.10333522,-0.00001901,0.00001776,-0.0001
 4101,0.00039062,0.00008321,0.00067565,0.00055181,0.00023694,0.00051839
 ,0.00046134,-0.05291284,0.00911933,-0.01157423,0.00212398,-0.02885128,
 0.00066255,0.00081295,0.00163753,0.00160870,0.00034238,0.00122434,-0.0
 0560303,-0.00531335,-0.00357985,0.01316951,-0.00233444,0.02617438,0.00
 050566,0.00179531,0.00121852,-0.00027167,-0.00016912,-0.00018738,-0.00
 026037,0.00022725,-0.00051451,-0.00024945,0.00072540,-0.00008519,-0.00
 162006,0.05811290,0.00106559,0.00031986,0.00027997,-0.00170078,-0.0013
 2170,-0.00037925,-0.00581014,0.00087289,-0.02054928,-0.09692283,0.0035
 0757,-0.26003364,-0.00214539,0.00187914,-0.00793424,0.00085039,-0.0004
 3749,0.00137653,0.00038711,-0.00002959,0.00165382,-0.00030897,-0.00069
 543,0.00127648,-0.00154061,0.00072022,-0.00162363,0.00023381,-0.000395
 51,0.00011322,0.00009474,0.00031068,-0.00026942,-0.00006878,-0.0002762
 2,0.00084276,0.00358452,0.00031668,-0.00198967,0.10217442,-0.00579834,
 0.28449758,0.00021137,-0.00004727,-0.00006080,-0.00052133,0.00010453,0
 .00003377,0.00073791,-0.00077561,-0.00111571,-0.00960048,0.00138533,-0
 .01737986,-0.00073594,-0.00081081,-0.00110854,0.00013294,0.00016155,0.
 00022908,0.00013039,0.00000844,-0.00004336,0.00048756,-0.00083174,0.00
 089098,-0.10632530,0.00016707,-0.10194142,-0.00939423,-0.00087568,-0.0
 1675002,0.00061990,0.00077759,-0.00109454,0.00026979,0.00002905,0.0002
 8415,-0.00026486,0.00029117,0.00065246,-0.00139491,0.00321155,-0.00009
 829,0.11356344,0.00004658,0.00016908,0.00001012,-0.00006226,-0.0004184
 7,-0.00002080,-0.00110652,0.00111161,0.00042246,0.01386836,-0.00177871
 ,0.02653200,0.00247887,0.00125952,0.00403017,-0.00054471,0.00026208,-0
 .00070211,-0.00042669,-0.00019063,-0.00047221,-0.00129937,-0.00078158,
 -0.00208231,-0.00061967,-0.04813220,-0.00193324,-0.01428094,-0.0011527
 3,-0.02681759,0.00108465,0.00113378,-0.00049827,-0.00030486,-0.0000571
 6,-0.00014839,0.00019830,0.00006267,-0.00064268,0.00330550,-0.00486303
 ,0.00000584,0.00022420,0.05708375,-0.00008870,0.00002226,-0.00009948,0
 .00005957,-0.00004236,0.00014682,0.00041781,-0.00015256,0.00071088,-0.
 00075256,0.00166797,-0.00293889,-0.00229166,-0.00063572,-0.00212854,0.
 00032847,0.00031411,0.00022608,0.00029603,0.00036623,0.00033807,0.0011
 1752,-0.00124009,0.00132243,-0.10243732,-0.00004868,-0.25106614,-0.000
 75193,-0.00092531,-0.00248269,0.00038475,0.00032981,0.00085250,-0.0000
 2492,0.00004357,0.00018792,-0.00032032,0.00000686,0.00044796,-0.000101
 09,0.00033335,0.00134078,0.11552625,0.00128101,0.27114728,-0.00037618,
 -0.00004511,-0.00001147,0.00100031,0.00009823,-0.00030972,-0.00106816,
 0.00323697,-0.00151379,-0.01338032,0.00099641,0.01349792,-0.00171678,-
 0.00047985,0.00141232,0.00029392,0.00007038,-0.00019016,0.00103172,-0.
 00162527,-0.00090346,0.00018632,0.00007429,-0.00009443,-0.17840429,-0.
 00062519,0.13043493,-0.01291942,-0.00046903,0.01279384,-0.00094457,-0.
 00332096,-0.00160564,-0.00063773,-0.00014036,0.00087942,0.00007044,0.0
 0002920,0.00014457,0.00028144,-0.00058695,-0.00016397,0.01247151,0.000
 19316,-0.01115860,0.19352185,-0.00004626,0.00085685,-0.00004369,-0.000
 09377,-0.00205048,0.00010974,0.00277609,-0.00496036,0.00175130,0.01949
 587,-0.00045323,-0.02128222,0.00336424,0.00062108,-0.00331891,-0.00066
 237,0.00043668,0.00045126,-0.00185978,-0.00107033,0.00168247,-0.000483
 56,-0.00016484,0.00046792,-0.00230417,-0.04765563,0.00280575,-0.019972
 21,-0.00007301,0.02151702,-0.00309593,-0.00467181,-0.00192995,0.001415
 12,0.00020531,-0.00118117,-0.00028433,0.00003329,0.00012357,-0.0005580
 3,0.00111824,0.00034491,0.00015602,-0.00028750,-0.00021775,0.00179602,
 0.05599344,0.00002296,0.00003493,-0.00005899,-0.00017086,-0.00006977,-
 0.00005630,-0.00031152,0.00031875,0.00089561,-0.00366929,-0.00047428,0
 .00232558,0.00225059,0.00001184,-0.00105620,-0.00033584,-0.00014728,0.
 00004844,-0.00105746,0.00128460,0.00053804,-0.00029010,-0.00026582,0.0
 0024411,0.13161026,0.00095790,-0.18711382,-0.00405819,0.00004232,0.002
 97102,-0.00062019,-0.00021633,0.00085339,0.00001458,0.00015843,0.00025
 454,-0.00021125,0.00014696,0.00037010,-0.00005455,-0.00054806,0.000760
 02,0.02060352,0.00037222,-0.02040455,-0.14380656,-0.00224862,0.1980402
 6,-0.00184055,0.00187697,-0.00082136,-0.00107328,-0.00497639,0.0039920
 7,-0.00000417,0.00015773,-0.00055394,-0.00262992,-0.00316290,-0.000486
 71,0.00125216,-0.00024834,0.00019008,-0.00002665,-0.00088712,-0.000009
 75,0.00000144,0.00007753,-0.00002740,-0.00007972,0.00003694,-0.0001103
 4,0.01238082,-0.01750553,0.00224892,-0.13608255,0.12413943,-0.01732263
 ,-0.01489901,0.02058941,0.00019165,0.00007947,0.00005846,-0.00011529,-
 0.00002553,-0.00005400,-0.00003527,-0.00008115,0.00001686,0.00013646,0
 .00080340,0.00078110,0.00008144,0.00082459,0.00077419,0.00015192,0.147
 67955,-0.00008097,0.00018539,-0.00018354,-0.00052775,0.00037168,0.0004
 4752,-0.00042100,0.00070831,0.00013606,-0.00546519,-0.00362356,-0.0008
 4962,0.00233069,0.00030294,0.00030100,-0.00009878,-0.00127077,0.000002
 63,-0.00038081,-0.00009263,0.00015715,-0.00037195,-0.00013585,-0.00033
 374,0.01578330,-0.02246300,0.00313926,0.12271243,-0.22106657,0.0212044
 1,-0.00126194,0.00274160,-0.00009250,0.00008295,0.00004107,-0.00003298
 ,0.00002536,-0.00002773,-0.00003991,-0.00014689,0.00032318,0.00006548,
 0.00026171,0.00108159,-0.00049010,0.00003628,0.00082906,0.00048911,-0.
 13186006,0.23998902,0.00227034,-0.00183868,0.00092840,0.00193496,0.003
 67783,-0.00375799,-0.00027947,0.00006340,0.00028322,-0.00035997,-0.000
 37176,0.00023097,0.00008401,-0.00019428,0.00053639,-0.00004257,-0.0000
 2032,-0.00005611,-0.00009454,-0.00001366,0.00001278,0.00008117,0.00011
 265,0.00006115,0.00157972,-0.00351301,-0.00061160,-0.01755408,0.022325
 17,-0.05254691,0.01564249,-0.02171043,-0.00023025,-0.00003410,-0.00007
 481,0.00005619,0.00003442,0.00002383,0.00002844,0.00023852,-0.00035547
 ,0.00029397,0.00053704,-0.00007227,0.00024924,-0.00015784,0.00038563,0
 .00000673,0.01517393,-0.02373571,0.05524646,-0.00022115,-0.00019530,-0
 .00034680,0.00179562,-0.00091453,0.00054359,-0.00000374,0.00005897,0.0
 0020866,0.00027216,0.00117819,0.00032185,-0.00027353,0.00038607,-0.000
 26601,0.00006112,-0.00018891,0.00004028,-0.00001524,-0.00006884,0.0001
 3073,0.00022494,-0.00013508,0.00025327,-0.00969287,-0.00140724,-0.0184
 1994,-0.09268724,-0.00105893,-0.09560063,0.00939752,0.00093479,0.02460
 385,0.00006756,0.00004176,-0.00004847,-0.00009741,-0.00001023,0.000005
 56,0.00058640,-0.00041812,0.00026742,-0.00132812,-0.00390169,0.0001977
 7,0.00024856,0.00060907,0.00008137,-0.00804185,-0.00093074,-0.01758946
 ,0.10197514,-0.00017635,0.00016357,0.00015132,-0.00026396,-0.00030220,
 -0.00075286,0.00021996,-0.00011657,0.00021510,-0.00059657,0.00187544,-
 0.00130082,-0.00078581,0.00018615,-0.00032192,0.00012370,0.00002805,0.
 00005433,0.00013371,-0.00000234,0.00007072,0.00039776,-0.00020109,0.00
 037708,-0.01280131,-0.00248042,-0.02668108,-0.00050824,-0.05241999,-0.
 00680743,0.00019836,-0.00006661,0.00072729,0.00005304,-0.00000926,-0.0
 0003249,-0.00007199,0.00009381,0.00013045,0.00036276,-0.00039116,0.000
 57096,-0.00319608,-0.00451384,-0.00049719,0.00066895,0.00112222,0.0004
 5813,0.01090706,0.00159984,0.02533341,0.00563556,0.05428068,0.00125791
 ,-0.00041633,0.00036230,-0.00203644,0.00166456,-0.00053114,0.00010988,
 -0.00039237,-0.00028715,0.00026513,0.00047375,0.00002962,-0.00003431,-
 0.00010626,0.00006694,0.00000256,-0.00010657,0.00002126,-0.00000690,-0
 .00005451,0.00004080,0.00017236,0.00014968,0.00021719,-0.00140024,-0.0
 0034816,-0.00172029,-0.09555643,-0.00692617,-0.25980690,-0.00688013,-0
 .00109730,-0.02099350,-0.00001874,-0.00010703,-0.00002150,-0.00001148,
 0.00006295,0.00011723,0.00024238,-0.00071203,0.00026010,-0.00013123,-0
 .00009583,0.00145269,-0.00024815,-0.00035648,0.00071877,-0.00167213,0.
 00062073,-0.00271182,0.10204120,0.00769758,0.28408377,0.00173283,-0.00
 130499,-0.00014188,0.01171613,0.01598441,0.00324016,-0.00219048,0.0028
 0883,-0.00050600,-0.00035038,0.00024858,0.00008012,-0.00017126,0.00039
 483,0.00013416,0.00014422,-0.00028226,-0.00002706,0.00013871,-0.000120
 12,-0.00009058,0.00002880,-0.00009158,-0.00004529,-0.00258540,0.001611
 75,0.00430824,-0.01281482,-0.01745187,-0.00479993,-0.15244313,-0.13145
 724,-0.02380669,0.00059310,0.00088526,-0.00008831,-0.00009224,-0.00011
 604,0.00002122,0.00005171,-0.00005404,-0.00001752,0.00032942,0.0004219
 4,0.00000376,-0.00062016,-0.00144006,0.00002959,0.00015462,0.00030566,
 -0.00058974,0.00120806,0.00021788,-0.00002995,0.16298536,-0.00004506,0
 .00591313,0.00088483,-0.02167831,-0.02646795,-0.00500834,0.00472076,-0
 .00322883,0.00085195,0.00049810,0.00023814,-0.00044536,0.00036747,0.00
 008401,-0.00005233,-0.00016350,0.00002559,0.00005474,-0.00021667,-0.00
 004862,0.00012272,-0.00009835,-0.00001529,-0.00000999,0.00061842,0.000
 88864,-0.00024091,0.00150435,0.00215982,0.00113261,-0.12706119,-0.2100
 8894,-0.03018619,-0.00088894,-0.00137778,0.00005832,0.00009207,0.00041
 370,-0.00015375,-0.00005073,-0.00002960,0.00008901,-0.00002372,-0.0000
 5440,-0.00004800,0.00012446,0.00016010,-0.00016225,-0.00022889,0.00032
 515,0.00040694,-0.00007667,0.00015071,0.00036672,0.13949818,0.22714366
 ,0.00079236,-0.00026987,-0.00112722,-0.00066044,0.00284192,-0.00064727
 ,0.00002288,-0.00027598,0.00120310,0.00020115,-0.00057032,-0.00007126,
 0.00009167,-0.00019429,-0.00013963,-0.00006540,0.00016411,0.00001900,-
 0.00014174,0.00008591,0.00009316,-0.00001538,0.00003620,0.00007607,0.0
 0306367,-0.00105557,-0.00355718,0.01397496,0.01977849,0.00386014,-0.02
 353778,-0.03076090,-0.05587480,-0.00009410,-0.00006305,0.00036393,0.00
 031558,0.00043981,0.00021216,-0.00002187,0.00003648,-0.00001524,0.0002
 5287,0.00008714,0.00021453,0.00085128,0.00116600,0.00026191,-0.0005765
 3,-0.00037519,0.00065681,-0.00089024,0.00036342,0.00082669,0.02384491,
 0.03233421,0.05706499,-0.00116255,0.00369162,0.00335591,-0.01115337,-0
 .00013853,-0.01811611,0.00033899,-0.00017496,0.00115986,-0.00013559,-0
 .00027836,0.00005311,-0.00001529,-0.00010581,0.00004382,-0.00000604,0.
 00005736,-0.00001098,-0.00000336,0.00002792,-0.00000232,0.00000833,0.0
 0003140,-0.00000958,0.00160130,0.00049745,0.00015566,0.00925243,-0.003
 02025,0.02578435,-0.08867129,0.00773298,-0.10200057,-0.00008489,-0.000
 07430,0.00031246,0.00052762,0.00040540,0.00024081,-0.00010494,0.000078
 34,-0.00001720,-0.00019245,-0.00005594,-0.00048628,0.00013695,0.000413
 86,-0.00017899,0.00160832,0.00000768,-0.00087482,-0.00347594,-0.000518
 42,0.00393469,-0.00781507,0.00310820,-0.01740785,0.09934681,0.00241096
 ,-0.00257400,-0.00358064,0.01201528,0.00101902,0.02904124,-0.00131651,
 -0.00036999,-0.00348220,0.00035603,0.00019091,-0.00012646,0.00012108,-
 0.00013848,0.00005967,-0.00002922,0.00007738,-0.00000416,-0.00000060,0
 .00002628,-0.00002077,-0.00005297,0.00004759,-0.00004280,0.00053121,0.
 00009067,0.00103950,-0.00081793,0.00034527,-0.00111946,0.00904815,-0.0
 5374220,0.02576565,0.00010490,0.00040063,-0.00040281,-0.00035244,-0.00
 158483,0.00008700,0.00000631,0.00009406,-0.00004895,-0.00021729,0.0000
 6620,-0.00006739,-0.00003162,0.00001092,-0.00014277,-0.00049246,0.0001
 8127,-0.00042846,0.00046187,0.00100304,-0.00031693,-0.01005912,0.00380
 876,-0.02376853,-0.01168563,0.05104749,0.00077989,0.00058641,-0.000771
 44,-0.00109321,0.00020834,0.00067356,-0.00056714,-0.00012868,-0.000647
 31,0.00040323,0.00004329,-0.00010446,-0.00007749,-0.00000937,-0.000164
 74,0.00001497,0.00003150,0.00002324,-0.00001618,0.00000482,0.00004260,
 0.00005373,0.00001925,0.00012436,-0.00137579,-0.00043427,0.00078384,-0
 .00835856,0.00187809,-0.02458745,-0.09746254,0.01990846,-0.24815518,0.
 00001263,0.00016829,0.00022319,0.00024690,-0.00000753,0.00047402,0.000
 00070,-0.00016483,0.00009913,0.00071366,0.00074475,0.00048312,0.000149
 52,-0.00022679,0.00040134,-0.00043512,-0.00043006,0.00132395,0.0044659
 9,0.00024401,-0.00212503,-0.00151921,0.00000507,-0.00341988,0.10406404
 ,-0.02244075,0.27532315\\0.00005341,0.00000757,-0.00000619,-0.00002823
 ,-0.00000775,-0.00008015,-0.00001287,0.00005631,0.00001944,0.00001931,
 -0.00003412,-0.00000722,-0.00002253,-0.00000669,-0.00001844,-0.0000300
 0,0.00002957,0.00005147,-0.00005702,-0.00004215,-0.00000772,0.00002793
 ,-0.00000557,-0.00000037,-0.00001386,-0.00001747,0.00002870,0.00003234
 ,0.00000846,-0.00002684,-0.00005052,-0.00000449,0.00007251,0.00002922,
 0.00000494,-0.00001121,0.00002986,0.00001086,0.00000686,-0.00000737,-0
 .00001088,-0.00001828,0.00000355,0.00000553,0.00002049,0.00000711,-0.0
 0000183,0.00001452,-0.00000184,-0.00001440,-0.00000480,-0.00000807,0.0
 0000441,-0.00001245,0.00001559,0.00000216,-0.00001331,0.00001401,0.000
 01553,-0.00000701\\\@


 THE ENLIGHTENED ONE, BECAUSE HE SAW MANKIND DROWNING  
 IN THE GREAT SEA OF BIRTH, DEATH, AND SORROW, LONGED TO SAVE 
 THEM, FOR THIS HE WAS MOVED TO PITY.                         
 BECAUSE HE SAW MEN OF THE WORLD STRAYING IN FALSE PATHS, AND 
 NONE TO GUIDE THEM, FOR THIS HE WAS MOVED TO PITY.           
                     ..................                       
 BECAUSE HE SAW THE MEN OF THE WORLD PLOUGHING THEIR FIELDS,  
 SOWING THE SEED, TRAFFICKING, HUCKSTERING, BUYING, SELLING,  
 AND AT THE END WINNOWING NOTHING BUT BITTERNESS,             
 FOR THIS HE WAS MOVED TO PITY......                   
                   BUDAH'S PITY - UPSAKA SILA SUTRA           
 Job cpu time:       0 days  0 hours  1 minutes 31.5 seconds.
 Elapsed time:       0 days  0 hours  1 minutes 33.1 seconds.
 File lengths (MBytes):  RWF=     89 Int=      0 D2E=      0 Chk=      5 Scr=      1
 Normal termination of Gaussian 16 at Thu Feb 22 11:16:26 2024.
