 Entering Gaussian System, Link 0=g16
 Input=/Volumes/SSD-PMU3/b3lyp_6-31gd_freq/ZALGHXJCZDONDI-XNRSKRNUSA-N/gaussianinput0.gjf
 Output=/Volumes/SSD-PMU3/b3lyp_6-31gd_freq/ZALGHXJCZDONDI-XNRSKRNUSA-N/gaussianinput0.log
 Initial command:
 /Applications/g16/l1.exe "/Volumes/SSD-PMU3/b3lyp_6-31gd_freq/ZALGHXJCZDONDI-XNRSKRNUSA-N/Gau-2783.inp" -scrdir="/Volumes/SSD-PMU3/b3lyp_6-31gd_freq/ZALGHXJCZDONDI-XNRSKRNUSA-N/"
 Entering Link 1 = /Applications/g16/l1.exe PID=      2784.
  
 Copyright (c) 1988,1990,1992,1993,1995,1998,2003,2009,2016,
            Gaussian, Inc.  All Rights Reserved.
  
 This is part of the Gaussian(R) 16 program.  It is based on
 the Gaussian(R) 09 system (copyright 2009, Gaussian, Inc.),
 the Gaussian(R) 03 system (copyright 2003, Gaussian, Inc.),
 the Gaussian(R) 98 system (copyright 1998, Gaussian, Inc.),
 the Gaussian(R) 94 system (copyright 1995, Gaussian, Inc.),
 the Gaussian 92(TM) system (copyright 1992, Gaussian, Inc.),
 the Gaussian 90(TM) system (copyright 1990, Gaussian, Inc.),
 the Gaussian 88(TM) system (copyright 1988, Gaussian, Inc.),
 the Gaussian 86(TM) system (copyright 1986, Carnegie Mellon
 University), and the Gaussian 82(TM) system (copyright 1983,
 Carnegie Mellon University). Gaussian is a federally registered
 trademark of Gaussian, Inc.
  
 This software contains proprietary and confidential information,
 including trade secrets, belonging to Gaussian, Inc.
  
 This software is provided under written license and may be
 used, copied, transmitted, or stored only in accord with that
 written license.
  
 The following legend is applicable only to US Government
 contracts under FAR:
  
                    RESTRICTED RIGHTS LEGEND
  
 Use, reproduction and disclosure by the US Government is
 subject to restrictions as set forth in subparagraphs (a)
 and (c) of the Commercial Computer Software - Restricted
 Rights clause in FAR 52.227-19.
  
 Gaussian, Inc.
 340 Quinnipiac St., Bldg. 40, Wallingford CT 06492
  
  
 ---------------------------------------------------------------
 Warning -- This program may not be used in any manner that
 competes with the business of Gaussian, Inc. or will provide
 assistance to any competitor of Gaussian, Inc.  The licensee
 of this program is prohibited from giving any competitor of
 Gaussian, Inc. access to this program.  By using this program,
 the user acknowledges that Gaussian, Inc. is engaged in the
 business of creating and licensing software in the field of
 computational chemistry and represents and warrants to the
 licensee that it is not a competitor of Gaussian, Inc. and that
 it will not use this program in any manner prohibited above.
 ---------------------------------------------------------------
  

 Cite this work as:
 Gaussian 16, Revision A.03,
 M. J. Frisch, G. W. Trucks, H. B. Schlegel, G. E. Scuseria, 
 M. A. Robb, J. R. Cheeseman, G. Scalmani, V. Barone, 
 G. A. Petersson, H. Nakatsuji, X. Li, M. Caricato, A. V. Marenich, 
 J. Bloino, B. G. Janesko, R. Gomperts, B. Mennucci, H. P. Hratchian, 
 J. V. Ortiz, A. F. Izmaylov, J. L. Sonnenberg, D. Williams-Young, 
 F. Ding, F. Lipparini, F. Egidi, J. Goings, B. Peng, A. Petrone, 
 T. Henderson, D. Ranasinghe, V. G. Zakrzewski, J. Gao, N. Rega, 
 G. Zheng, W. Liang, M. Hada, M. Ehara, K. Toyota, R. Fukuda, 
 J. Hasegawa, M. Ishida, T. Nakajima, Y. Honda, O. Kitao, H. Nakai, 
 T. Vreven, K. Throssell, J. A. Montgomery, Jr., J. E. Peralta, 
 F. Ogliaro, M. J. Bearpark, J. J. Heyd, E. N. Brothers, K. N. Kudin, 
 V. N. Staroverov, T. A. Keith, R. Kobayashi, J. Normand, 
 K. Raghavachari, A. P. Rendell, J. C. Burant, S. S. Iyengar, 
 J. Tomasi, M. Cossi, J. M. Millam, M. Klene, C. Adamo, R. Cammi, 
 J. W. Ochterski, R. L. Martin, K. Morokuma, O. Farkas, 
 J. B. Foresman, and D. J. Fox, Gaussian, Inc., Wallingford CT, 2016.
 
 ******************************************
 Gaussian 16:  EM64M-G16RevA.03 25-Dec-2016
                24-Feb-2024 
 ******************************************
 %nprocshared=10
 Will use up to   10 processors via shared memory.
 %mem=12GB
 %chk= 0.chk
 ---------------------
 # freq b3lyp/6-31g(d)
 ---------------------
 1/10=4,30=1,38=1/1,3;
 2/12=2,17=6,18=5,40=1/2;
 3/5=1,6=6,7=1,11=2,25=1,30=1,71=2,74=-5,140=1/1,2,3;
 4//1;
 5/5=2,38=5,98=1/2;
 8/6=4,10=90,11=11/1;
 11/6=1,8=1,9=11,15=111,16=1/1,2,10;
 10/6=1/2;
 6/7=2,8=2,9=2,10=2,28=1/1;
 7/8=1,10=1,25=1/1,2,3,16;
 1/10=4,30=1/3;
 99//99;
 ---------
 good luck
 ---------
 Symbolic Z-matrix:
 Charge =  0 Multiplicity = 1
 O                     1.21672   0.        0. 
 C                     0.        0.        0. 
 C                    -0.85153  -1.2631    0.00343 
 C                    -1.74344  -1.25272   1.27128 
 C                    -1.74398  -1.25653  -1.26012 
 C                    -2.63317   0.       -1.24602 
 C                    -1.74398   1.25653  -1.26012 
 C                    -0.85153   1.2631    0.00343 
 C                    -1.74344   1.25272   1.27128 
 C                    -2.66618   0.        1.32069 
 C                    -3.58087   0.        2.62463 
 C                    -4.49765   1.24541   2.6787 
 C                    -2.73289   0.00002   3.91899 
 C                    -4.49762  -1.24543   2.67872 
 C                    -3.51818   0.        0.01816 
 H                    -0.18511  -2.13188   0.0125 
 H                    -2.34147  -2.17185   1.27461 
 H                    -1.09908  -1.28992   2.157 
 H                    -1.12204  -1.27807  -2.16471 
 H                    -2.36214  -2.16463  -1.27357 
 H                    -3.27949   0.       -2.13363 
 H                    -2.36214   2.16463  -1.27357 
 H                    -1.12204   1.27807  -2.16471 
 H                    -0.1851    2.13188   0.0125 
 H                    -2.34147   2.17186   1.27461 
 H                    -1.09908   1.28992   2.157 
 H                    -5.18504   1.29592   1.82815 
 H                    -5.11127   1.20909   3.58653 
 H                    -3.93005   2.181     2.71221 
 H                    -2.09488   0.88579   4.00142 
 H                    -3.39697   0.00001   4.79135 
 H                    -2.09484  -0.88571   4.00143 
 H                    -5.18499  -1.29599   1.82816 
 H                    -3.93     -2.181     2.71228 
 H                    -5.11126  -1.20909   3.58654 
 H                    -4.17153   0.88033  -0.00745 
 H                    -4.17154  -0.88033  -0.00745 
 

 GradGradGradGradGradGradGradGradGradGradGradGradGradGradGradGradGradGrad
 Berny optimization.
 Initialization pass.
 Trust Radius=3.00D-01 FncErr=1.00D-07 GrdErr=1.00D-07 EigMax=2.50D+02 EigMin=1.00D-04
 Number of steps in this run=      2 maximum allowed number of steps=      2.
 GradGradGradGradGradGradGradGradGradGradGradGradGradGradGradGradGradGrad

                          Input orientation:                          
 ---------------------------------------------------------------------
 Center     Atomic      Atomic             Coordinates (Angstroms)
 Number     Number       Type             X           Y           Z
 ---------------------------------------------------------------------
      1          8           0        1.216723    0.000000    0.000000
      2          6           0        0.000000    0.000000    0.000000
      3          6           0       -0.851528   -1.263101    0.003425
      4          6           0       -1.743444   -1.252722    1.271280
      5          6           0       -1.743978   -1.256525   -1.260121
      6          6           0       -2.633168    0.000000   -1.246020
      7          6           0       -1.743978    1.256525   -1.260121
      8          6           0       -0.851528    1.263101    0.003425
      9          6           0       -1.743442    1.252722    1.271281
     10          6           0       -2.666178    0.000001    1.320692
     11          6           0       -3.580870    0.000001    2.624626
     12          6           0       -4.497645    1.245412    2.678695
     13          6           0       -2.732890    0.000024    3.918991
     14          6           0       -4.497615   -1.245431    2.678720
     15          6           0       -3.518177    0.000002    0.018157
     16          1           0       -0.185105   -2.131877    0.012503
     17          1           0       -2.341471   -2.171855    1.274609
     18          1           0       -1.099082   -1.289923    2.156999
     19          1           0       -1.122045   -1.278070   -2.164711
     20          1           0       -2.362137   -2.164633   -1.273566
     21          1           0       -3.279487    0.000001   -2.133630
     22          1           0       -2.362136    2.164634   -1.273566
     23          1           0       -1.122044    1.278070   -2.164711
     24          1           0       -0.185104    2.131878    0.012503
     25          1           0       -2.341467    2.171856    1.274614
     26          1           0       -1.099078    1.289918    2.156999
     27          1           0       -5.185044    1.295922    1.828153
     28          1           0       -5.111272    1.209089    3.586531
     29          1           0       -3.930049    2.181000    2.712207
     30          1           0       -2.094883    0.885785    4.001420
     31          1           0       -3.396971    0.000012    4.791349
     32          1           0       -2.094842   -0.885706    4.001425
     33          1           0       -5.184992   -1.295991    1.828164
     34          1           0       -3.929995   -2.181004    2.712279
     35          1           0       -5.111263   -1.209091    3.586540
     36          1           0       -4.171534    0.880333   -0.007446
     37          1           0       -4.171538   -0.880327   -0.007446
 ---------------------------------------------------------------------
                    Distance matrix (angstroms):
                    1          2          3          4          5
     1  O    0.000000
     2  C    1.216723   0.000000
     3  C    2.423448   1.523330   0.000000
     4  C    3.456596   2.495007   1.550186   0.000000
     5  C    3.454347   2.491630   1.546951   2.531404   0.000000
     6  C    4.046508   2.913098   2.516104   2.949190   1.539387
     7  C    3.454347   2.491630   2.956608   3.564311   2.513050
     8  C    2.423448   1.523330   2.526202   2.955053   2.956608
     9  C    3.456594   2.495007   2.955052   2.505444   3.564312
    10  C    4.101359   2.975354   2.573630   1.556661   3.014947
    11  C    5.468598   4.439740   3.989415   2.603266   4.477085
    12  C    6.432765   5.381010   5.171448   3.975816   5.418177
    13  C    5.563985   4.777780   4.524010   3.091723   5.420338
    14  C    6.432752   5.381002   4.522330   3.092959   4.805945
    15  C    4.734935   3.518224   2.950706   2.507850   2.522030
    16  H    2.551505   2.139935   1.094977   2.187659   2.194515
    17  H    4.359166   3.438614   2.159091   1.096564   2.760377
    18  H    3.417528   2.743087   2.167921   1.095940   3.477602
    19  H    3.433551   2.752893   2.184998   3.491821   1.097974
    20  H    4.372167   3.447796   2.173800   2.773194   1.098618
    21  H    4.976774   3.912469   3.472379   3.939817   2.167871
    22  H    4.372167   3.447796   3.957526   4.305501   3.476583
    23  H    3.433550   2.752893   3.351349   4.312433   2.762111
    24  H    2.551505   2.139935   3.459781   3.932996   3.940931
    25  H    4.359165   3.438614   3.954083   3.476403   4.305307
    26  H    3.417524   2.743083   3.349189   2.768524   4.310102
    27  H    6.782638   5.648561   5.353279   4.318600   5.281416
    28  H    7.373508   6.360047   6.090631   4.771076   6.395933
    29  H    6.213058   5.249582   5.355056   4.318328   5.689892
    30  H    5.269033   4.602664   4.706124   3.485740   5.691787
    31  H    6.651556   5.873367   5.567670   4.085876   6.397778
    32  H    5.268998   4.602634   4.203839   2.777026   5.286254
    33  H    6.782605   5.648532   4.702091   3.486581   4.623812
    34  H    6.213046   5.249581   4.202070   2.778343   4.627450
    35  H    7.373505   6.360046   5.566594   4.087118   5.901778
    36  H    5.459703   4.263419   3.951818   3.475728   3.468196
    37  H    5.459706   4.263421   3.342020   2.769379   2.757493
                    6          7          8          9         10
     6  C    0.000000
     7  C    1.539387   0.000000
     8  C    2.516104   1.546951   0.000000
     9  C    2.949191   2.531405   1.550186   0.000000
    10  C    2.566924   3.014946   2.573629   1.556661   0.000000
    11  C    3.984977   4.477084   3.989414   2.603266   1.592767
    12  C    4.520035   4.805942   4.522339   3.092976   2.597978
    13  C    5.165974   5.420327   4.523996   3.091703   2.599155
    14  C    4.520049   5.418189   5.171449   3.975817   2.597980
    15  C    1.543173   2.522028   2.950704   2.507850   1.556438
    16  H    3.481636   3.940929   3.459780   3.932995   3.523065
    17  H    3.340002   4.305304   3.954082   3.476403   2.196478
    18  H    3.949413   4.310104   3.349193   2.768527   2.195246
    19  H    2.181960   2.762111   3.351349   4.312434   4.020677
    20  H    2.181709   3.476582   3.957525   4.305502   3.392382
    21  H    1.097989   2.167870   3.472378   3.939818   3.508346
    22  H    2.181710   1.098618   2.173800   2.773195   3.392381
    23  H    2.181961   1.097975   2.184998   3.491822   4.020677
    24  H    3.481638   2.194517   1.094978   2.187660   3.523065
    25  H    3.340007   2.760381   2.159091   1.096564   2.196478
    26  H    3.949412   3.477603   2.167921   1.095940   2.195244
    27  H    4.200241   4.623843   4.702135   3.486631   2.877779
    28  H    5.563852   5.901776   5.566595   4.087122   3.546041
    29  H    4.701725   4.627413   4.202063   2.778348   2.879313
    30  H    5.348831   5.286246   4.203839   2.777015   2.880502
    31  H    6.085493   6.397773   5.567665   4.085868   3.546762
    32  H    5.348827   5.691759   4.706082   3.485691   2.880491
    33  H    4.200239   5.281422   5.353273   4.318602   2.877768
    34  H    4.701773   5.689924   5.355064   4.318329   2.879328
    35  H    5.563856   6.395936   6.090631   4.771076   3.546042
    36  H    2.162319   2.757489   3.342016   2.769377   2.192038
    37  H    2.162319   3.468195   3.951818   3.475729   2.192039
                   11         12         13         14         15
    11  C    0.000000
    12  C    1.547401   0.000000
    13  C    1.547401   2.490720   0.000000
    14  C    1.547401   2.490843   2.490720   0.000000
    15  C    2.607223   3.096589   3.979093   3.096611   0.000000
    16  H    4.785322   6.092016   5.128046   5.147062   3.956553
    17  H    2.841763   4.277646   3.444274   2.734730   2.771330
    18  H    2.835816   4.272039   2.727253   3.438633   3.477150
    19  H    5.533266   6.420375   6.421820   5.903758   3.484226
    20  H    4.622429   5.639962   5.637894   4.585386   2.773197
    21  H    4.767791   5.117952   6.077252   5.117973   2.164985
    22  H    4.622429   4.585383   5.637876   5.639980   2.773195
    23  H    5.533266   5.903756   6.421811   6.420386   3.484225
    24  H    4.785323   5.147078   5.128027   6.092018   3.956552
    25  H    2.841761   2.734748   3.444241   4.277656   2.771332
    26  H    2.835816   3.438663   2.727230   4.272030   3.477149
    27  H    2.210691   1.094756   3.473329   2.766676   2.780996
    28  H    2.174692   1.096368   2.688693   2.688004   4.090616
    29  H    2.210510   1.094812   2.765172   3.473281   3.490601
    30  H    2.210957   2.766261   1.094724   3.473433   4.321662
    31  H    2.174513   2.688087   1.096363   2.688075   4.774731
    32  H    2.210957   3.473434   1.094723   2.766273   4.321665
    33  H    2.210691   2.766691   3.473329   1.094755   2.781006
    34  H    2.210510   3.473281   2.765158   1.094813   3.490655
    35  H    2.174692   2.687991   2.688706   1.096367   4.090622
    36  H    2.837547   2.730382   4.273353   3.441030   1.096592
    37  H    2.837546   3.440998   4.273363   2.730406   1.096593
                   16         17         18         19         20
    16  H    0.000000
    17  H    2.498885   0.000000
    18  H    2.478529   1.760667   0.000000
    19  H    2.519346   3.756963   4.321787   0.000000
    20  H    2.528738   2.548269   3.758883   1.765775   0.000000
    21  H    4.327354   4.148846   4.982727   2.507785   2.503374
    22  H    4.985323   5.029787   5.029716   3.766189   4.329267
    23  H    4.152813   5.021743   5.027156   2.556140   3.766188
    24  H    4.263755   4.976439   4.140403   4.152814   4.985324
    25  H    4.976438   4.343711   3.782332   5.021746   5.029790
    26  H    4.140397   3.782331   2.579841   5.027153   5.029713
    27  H    6.328174   4.518606   4.846630   6.251109   5.437362
    28  H    6.942827   4.944448   4.938248   7.428100   6.523825
    29  H    6.317746   4.851558   4.513307   6.605633   6.101579
    30  H    5.353970   4.104323   3.021128   6.606804   6.099340
    31  H    6.139903   4.265975   3.726127   7.429371   6.522251
    32  H    4.594729   3.024984   2.134675   6.254720   5.434393
    33  H    5.384626   3.026412   4.099125   5.696570   4.282964
    34  H    4.616861   2.142519   3.019343   5.699553   4.283154
    35  H    6.155673   3.734125   4.260014   6.999679   5.664926
    36  H    4.996541   3.782677   4.339907   4.314149   3.761488
    37  H    4.178328   2.580863   3.780552   3.756514   2.554689
                   21         22         23         24         25
    21  H    0.000000
    22  H    2.503374   0.000000
    23  H    2.507785   1.765776   0.000000
    24  H    4.327354   2.528738   2.519346   0.000000
    25  H    4.148851   2.548274   3.756967   2.498885   0.000000
    26  H    4.982727   3.758885   4.321787   2.478529   1.760667
    27  H    4.583261   4.283005   5.696600   5.384683   3.026482
    28  H    6.126791   5.664923   6.999677   6.155676   3.734126
    29  H    5.353702   4.283107   5.699518   4.616863   2.142510
    30  H    6.310843   5.434368   6.254716   4.594721   3.024939
    31  H    6.925976   6.522244   7.429367   6.139895   4.265961
    32  H    6.310845   6.099307   6.606776   5.353915   4.104267
    33  H    4.583269   5.437386   6.251111   6.328174   4.518630
    34  H    5.353763   6.101616   6.605665   6.317749   4.851566
    35  H    6.126798   6.523829   7.428104   6.942828   4.944449
    36  H    2.468074   2.554684   3.756511   4.178323   2.580863
    37  H    2.468074   3.761487   4.314149   4.996542   3.782679
                   26         27         28         29         30
    26  H    0.000000
    27  H    4.099182   0.000000
    28  H    4.260023   1.762066   0.000000
    29  H    3.019384   1.771984   1.761914   0.000000
    30  H    2.134676   3.800052   3.061905   2.589882   0.000000
    31  H    3.726120   3.695554   2.419149   3.060018   1.761821
    32  H    3.021058   4.362564   3.695829   3.799310   1.771491
    33  H    4.846623   2.591913   3.061489   3.800774   4.362564
    34  H    4.513283   3.800768   3.694924   4.362004   3.799305
    35  H    4.938245   3.061447   2.418180   3.694921   3.695833
    36  H    3.780551   2.137602   3.729324   3.024328   4.514811
    37  H    4.339907   3.022032   4.262092   4.102018   4.847954
                   31         32         33         34         35
    31  H    0.000000
    32  H    1.761822   0.000000
    33  H    3.695552   3.800056   0.000000
    34  H    3.059980   2.589880   1.771983   0.000000
    35  H    2.419151   3.061944   1.762065   1.761914   0.000000
    36  H    4.939974   4.847947   3.022077   4.102076   4.262103
    37  H    4.939978   4.514836   2.137599   3.024402   3.729330
                   36         37
    36  H    0.000000
    37  H    1.760660   0.000000
 Stoichiometry    C14H22O
 Framework group  C1[X(C14H22O)]
 Deg. of freedom   105
 Full point group                 C1      NOp   1
 Largest Abelian subgroup         C1      NOp   1
 Largest concise Abelian subgroup C1      NOp   1
                         Standard orientation:                         
 ---------------------------------------------------------------------
 Center     Atomic      Atomic             Coordinates (Angstroms)
 Number     Number       Type             X           Y           Z
 ---------------------------------------------------------------------
      1          8           0       -2.956546   -1.891710    0.000000
      2          6           0       -2.125884   -1.002657    0.000000
      3          6           0       -1.542040   -0.382788    1.263101
      4          6           0       -0.006710   -0.596639    1.252723
      5          6           0       -1.856027    1.131949    1.256525
      6          6           0       -1.238670    1.772048   -0.000000
      7          6           0       -1.856026    1.131948   -1.256525
      8          6           0       -1.542039   -0.382788   -1.263101
      9          6           0       -0.006710   -0.596642   -1.252721
     10          6           0        0.659350    0.043864   -0.000000
     11          6           0        2.236592   -0.177976    0.000000
     12          6           0        2.901986    0.454993   -1.245411
     13          6           0        2.603458   -1.681259   -0.000022
     14          6           0        2.901983    0.454955    1.245432
     15          6           0        0.289257    1.555661   -0.000002
     16          1           0       -1.990377   -0.875937    2.131877
     17          1           0        0.403998   -0.161936    2.171856
     18          1           0        0.200572   -1.672155    1.289924
     19          1           0       -2.941603    1.295073    1.278070
     20          1           0       -1.443832    1.592814    2.164633
     21          1           0       -1.445997    2.850285   -0.000001
     22          1           0       -1.443831    1.592812   -2.164634
     23          1           0       -2.941603    1.295072   -1.278070
     24          1           0       -1.990376   -0.875939   -2.131878
     25          1           0        0.404000   -0.161944   -2.171855
     26          1           0        0.200570   -1.672159   -1.289917
     27          1           0        2.749790    1.537941   -1.295921
     28          1           0        3.984263    0.283584   -1.209087
     29          1           0        2.538974    0.017375   -2.180999
     30          1           0        2.228119   -2.203723   -0.885783
     31          1           0        3.694257   -1.791581   -0.000010
     32          1           0        2.228094   -2.203756    0.885708
     33          1           0        2.749761    1.537896    1.295992
     34          1           0        2.538988    0.017287    2.181005
     35          1           0        3.984263    0.283572    1.209093
     36          1           0        0.716599    2.050545   -0.880333
     37          1           0        0.716601    2.050548    0.880327
 ---------------------------------------------------------------------
 Rotational constants (GHZ):           1.0688970           0.4938530           0.4652069
 Standard basis: 6-31G(d) (6D, 7F)
 There are   269 symmetry adapted cartesian basis functions of A   symmetry.
 There are   269 symmetry adapted basis functions of A   symmetry.
   269 basis functions,   508 primitive gaussians,   269 cartesian basis functions
    57 alpha electrons       57 beta electrons
       nuclear repulsion energy      1126.5781121514 Hartrees.
 NAtoms=   37 NActive=   37 NUniq=   37 SFac= 1.00D+00 NAtFMM=   60 NAOKFM=F Big=F
 Integral buffers will be    131072 words long.
 Raffenetti 2 integral format.
 Two-electron integral symmetry is turned on.
 One-electron integrals computed using PRISM.
 NBasis=   269 RedAO= T EigKep=  2.13D-03  NBF=   269
 NBsUse=   269 1.00D-06 EigRej= -1.00D+00 NBFU=   269
 ExpMin= 1.61D-01 ExpMax= 5.48D+03 ExpMxC= 8.25D+02 IAcc=3 IRadAn=         5 AccDes= 0.00D+00
 Harris functional with IExCor=  402 and IRadAn=       5 diagonalized for initial guess.
 HarFok:  IExCor=  402 AccDes= 0.00D+00 IRadAn=         5 IDoV= 1 UseB2=F ITyADJ=14
 ICtDFT=  3500011 ScaDFX=  1.000000  1.000000  1.000000  1.000000
 FoFCou: FMM=F IPFlag=           0 FMFlag=      100000 FMFlg1=           0
         NFxFlg=           0 DoJE=T BraDBF=F KetDBF=T FulRan=T
         wScrn=  0.000000 ICntrl=       500 IOpCl=  0 I1Cent=   200000004 NGrid=           0
         NMat0=    1 NMatS0=      1 NMatT0=    0 NMatD0=    1 NMtDS0=    0 NMtDT0=    0
 Petite list used in FoFCou.
 Requested convergence on RMS density matrix=1.00D-08 within 128 cycles.
 Requested convergence on MAX density matrix=1.00D-06.
 Requested convergence on             energy=1.00D-06.
 No special actions if energy rises.
 Integral accuracy reduced to 1.0D-05 until final iterations.
 Initial convergence to 1.0D-05 achieved.  Increase integral accuracy.
 SCF Done:  E(RB3LYP) =  -621.979862727     A.U. after   13 cycles
            NFock= 13  Conv=0.89D-08     -V/T= 2.0097
 DoSCS=F DFT=T ScalE2(SS,OS)=  1.000000  1.000000
 Range of M.O.s used for correlation:     1   269
 NBasis=   269 NAE=    57 NBE=    57 NFC=     0 NFV=     0
 NROrb=    269 NOA=    57 NOB=    57 NVA=   212 NVB=   212
 Symmetrizing basis deriv contribution to polar:
 IMax=3 JMax=2 DiffMx= 0.00D+00
 G2DrvN: will do    38 centers at a time, making    1 passes.
 Calling FoFCou, ICntrl=  3107 FMM=F I1Cent=   0 AccDes= 0.00D+00.
 End of G2Drv F.D. properties file   721 does not exist.
 End of G2Drv F.D. properties file   722 does not exist.
 End of G2Drv F.D. properties file   788 does not exist.
          IDoAtm=1111111111111111111111111111111111111
          Differentiating once with respect to electric field.
                with respect to dipole field.
          Differentiating once with respect to nuclear coordinates.
 Keep R1 ints in memory in canonical form, NReq=670428032.
          There are   114 degrees of freedom in the 1st order CPHF.  IDoFFX=6 NUNeed=     3.
    111 vectors produced by pass  0 Test12= 1.21D-14 1.00D-09 XBig12= 9.84D+01 1.98D+00.
 AX will form   111 AO Fock derivatives at one time.
    111 vectors produced by pass  1 Test12= 1.21D-14 1.00D-09 XBig12= 8.46D+00 7.21D-01.
    111 vectors produced by pass  2 Test12= 1.21D-14 1.00D-09 XBig12= 7.35D-02 3.55D-02.
    111 vectors produced by pass  3 Test12= 1.21D-14 1.00D-09 XBig12= 2.84D-04 3.98D-03.
    111 vectors produced by pass  4 Test12= 1.21D-14 1.00D-09 XBig12= 3.03D-07 6.20D-05.
     55 vectors produced by pass  5 Test12= 1.21D-14 1.00D-09 XBig12= 2.19D-10 2.12D-06.
      3 vectors produced by pass  6 Test12= 1.21D-14 1.00D-09 XBig12= 1.87D-13 4.40D-08.
      1 vectors produced by pass  7 Test12= 1.21D-14 1.00D-09 XBig12= 1.63D-16 1.13D-09.
 InvSVY:  IOpt=1 It=  1 EMax= 1.95D-14
 Solved reduced A of dimension   614 with   114 vectors.
 Isotropic polarizability for W=    0.000000      137.02 Bohr**3.
 End of Minotr F.D. properties file   721 does not exist.
 End of Minotr F.D. properties file   722 does not exist.
 End of Minotr F.D. properties file   788 does not exist.

 **********************************************************************

            Population analysis using the SCF density.

 **********************************************************************

 Orbital symmetries:
       Occupied  (A) (A) (A) (A) (A) (A) (A) (A) (A) (A) (A) (A)
                 (A) (A) (A) (A) (A) (A) (A) (A) (A) (A) (A) (A)
                 (A) (A) (A) (A) (A) (A) (A) (A) (A) (A) (A) (A)
                 (A) (A) (A) (A) (A) (A) (A) (A) (A) (A) (A) (A)
                 (A) (A) (A) (A) (A) (A) (A) (A) (A)
       Virtual   (A) (A) (A) (A) (A) (A) (A) (A) (A) (A) (A) (A)
                 (A) (A) (A) (A) (A) (A) (A) (A) (A) (A) (A) (A)
                 (A) (A) (A) (A) (A) (A) (A) (A) (A) (A) (A) (A)
                 (A) (A) (A) (A) (A) (A) (A) (A) (A) (A) (A) (A)
                 (A) (A) (A) (A) (A) (A) (A) (A) (A) (A) (A) (A)
                 (A) (A) (A) (A) (A) (A) (A) (A) (A) (A) (A) (A)
                 (A) (A) (A) (A) (A) (A) (A) (A) (A) (A) (A) (A)
                 (A) (A) (A) (A) (A) (A) (A) (A) (A) (A) (A) (A)
                 (A) (A) (A) (A) (A) (A) (A) (A) (A) (A) (A) (A)
                 (A) (A) (A) (A) (A) (A) (A) (A) (A) (A) (A) (A)
                 (A) (A) (A) (A) (A) (A) (A) (A) (A) (A) (A) (A)
                 (A) (A) (A) (A) (A) (A) (A) (A) (A) (A) (A) (A)
                 (A) (A) (A) (A) (A) (A) (A) (A) (A) (A) (A) (A)
                 (A) (A) (A) (A) (A) (A) (A) (A) (A) (A) (A) (A)
                 (A) (A) (A) (A) (A) (A) (A) (A) (A) (A) (A) (A)
                 (A) (A) (A) (A) (A) (A) (A) (A) (A) (A) (A) (A)
                 (A) (A) (A) (A) (A) (A) (A) (A) (A) (A) (A) (A)
                 (A) (A) (A) (A) (A) (A) (A) (A)
 The electronic state is 1-A.
 Alpha  occ. eigenvalues --  -19.12827 -10.25887 -10.20289 -10.20179 -10.19236
 Alpha  occ. eigenvalues --  -10.18987 -10.18985 -10.18810 -10.18809 -10.18638
 Alpha  occ. eigenvalues --  -10.18637 -10.18134 -10.17408 -10.17407 -10.17340
 Alpha  occ. eigenvalues --   -1.02629  -0.87387  -0.81782  -0.77705  -0.76574
 Alpha  occ. eigenvalues --   -0.74691  -0.68884  -0.68531  -0.66963  -0.64285
 Alpha  occ. eigenvalues --   -0.59950  -0.59840  -0.57187  -0.53373  -0.50308
 Alpha  occ. eigenvalues --   -0.46106  -0.46030  -0.45393  -0.44416  -0.44251
 Alpha  occ. eigenvalues --   -0.43599  -0.43060  -0.42809  -0.41438  -0.41117
 Alpha  occ. eigenvalues --   -0.40105  -0.39361  -0.37623  -0.37114  -0.37107
 Alpha  occ. eigenvalues --   -0.36192  -0.35375  -0.34668  -0.34608  -0.33663
 Alpha  occ. eigenvalues --   -0.33179  -0.32284  -0.32046  -0.29374  -0.28705
 Alpha  occ. eigenvalues --   -0.28477  -0.22567
 Alpha virt. eigenvalues --   -0.00555   0.06392   0.09639   0.11105   0.11271
 Alpha virt. eigenvalues --    0.11732   0.12180   0.12276   0.13329   0.13878
 Alpha virt. eigenvalues --    0.14046   0.14906   0.16121   0.16503   0.17321
 Alpha virt. eigenvalues --    0.17923   0.17999   0.18233   0.19913   0.20633
 Alpha virt. eigenvalues --    0.20956   0.21071   0.21609   0.21998   0.22132
 Alpha virt. eigenvalues --    0.22445   0.23691   0.24449   0.24761   0.25660
 Alpha virt. eigenvalues --    0.26372   0.27072   0.28752   0.28914   0.29380
 Alpha virt. eigenvalues --    0.30535   0.31250   0.31382   0.34517   0.37830
 Alpha virt. eigenvalues --    0.49241   0.49517   0.50470   0.50700   0.53181
 Alpha virt. eigenvalues --    0.53424   0.54731   0.55720   0.56631   0.58512
 Alpha virt. eigenvalues --    0.60085   0.61056   0.63206   0.64343   0.64629
 Alpha virt. eigenvalues --    0.65014   0.65189   0.67439   0.68081   0.68688
 Alpha virt. eigenvalues --    0.69685   0.69898   0.71268   0.72296   0.73347
 Alpha virt. eigenvalues --    0.73390   0.76576   0.77596   0.79414   0.80444
 Alpha virt. eigenvalues --    0.82233   0.84645   0.84766   0.85855   0.85941
 Alpha virt. eigenvalues --    0.86191   0.86967   0.87064   0.87690   0.88430
 Alpha virt. eigenvalues --    0.89620   0.91307   0.92237   0.93009   0.93109
 Alpha virt. eigenvalues --    0.93276   0.93621   0.95124   0.95738   0.96141
 Alpha virt. eigenvalues --    0.97593   0.98003   0.98297   0.99181   1.00775
 Alpha virt. eigenvalues --    1.00852   1.01642   1.03897   1.04851   1.05642
 Alpha virt. eigenvalues --    1.08842   1.10693   1.11727   1.16891   1.17411
 Alpha virt. eigenvalues --    1.19571   1.21571   1.22615   1.23228   1.28131
 Alpha virt. eigenvalues --    1.30982   1.34662   1.41558   1.42156   1.43955
 Alpha virt. eigenvalues --    1.48334   1.49887   1.55265   1.56240   1.57455
 Alpha virt. eigenvalues --    1.61195   1.63410   1.64063   1.66390   1.67046
 Alpha virt. eigenvalues --    1.70296   1.71934   1.72579   1.74924   1.75475
 Alpha virt. eigenvalues --    1.77702   1.79596   1.80377   1.81898   1.83382
 Alpha virt. eigenvalues --    1.83628   1.86486   1.86627   1.87480   1.88582
 Alpha virt. eigenvalues --    1.90892   1.92231   1.92420   1.94872   1.96811
 Alpha virt. eigenvalues --    1.98037   2.02458   2.06107   2.06307   2.08059
 Alpha virt. eigenvalues --    2.08236   2.09091   2.09161   2.12104   2.13458
 Alpha virt. eigenvalues --    2.14023   2.16380   2.17474   2.19859   2.20888
 Alpha virt. eigenvalues --    2.24580   2.25451   2.25958   2.27913   2.28090
 Alpha virt. eigenvalues --    2.29367   2.30330   2.31714   2.33456   2.36190
 Alpha virt. eigenvalues --    2.36532   2.39597   2.41106   2.42656   2.46027
 Alpha virt. eigenvalues --    2.47784   2.48248   2.52228   2.52326   2.55699
 Alpha virt. eigenvalues --    2.57415   2.58828   2.63377   2.66558   2.69000
 Alpha virt. eigenvalues --    2.69573   2.72674   2.75024   2.76776   2.77345
 Alpha virt. eigenvalues --    2.79555   2.80211   2.84257   2.84950   2.90477
 Alpha virt. eigenvalues --    3.01792   3.04217   4.09756   4.11426   4.21697
 Alpha virt. eigenvalues --    4.29643   4.30497   4.32087   4.32202   4.33956
 Alpha virt. eigenvalues --    4.50929   4.57958   4.63369   4.73248   4.81201
 Alpha virt. eigenvalues --    4.83439   4.85168
          Condensed to atoms (all electrons):
               1          2          3          4          5          6
     1  O    8.016549   0.579254  -0.074066   0.000836   0.000979   0.000066
     2  C    0.579254   4.515146   0.331951  -0.029762  -0.028586  -0.021043
     3  C   -0.074066   0.331951   5.225906   0.327793   0.338538  -0.027321
     4  C    0.000836  -0.029762   0.327793   5.174590  -0.039764  -0.014520
     5  C    0.000979  -0.028586   0.338538  -0.039764   5.097819   0.375174
     6  C    0.000066  -0.021043  -0.027321  -0.014520   0.375174   4.933278
     7  C    0.000979  -0.028586  -0.008831  -0.002877  -0.048873   0.375174
     8  C   -0.074066   0.331951  -0.124798  -0.006746  -0.008831  -0.027321
     9  C    0.000836  -0.029762  -0.006746  -0.058480  -0.002877  -0.014520
    10  C    0.000095  -0.019272  -0.018037   0.373943  -0.016132  -0.019132
    11  C   -0.000000   0.000249   0.003342  -0.038329   0.000112   0.003505
    12  C    0.000000  -0.000011  -0.000103   0.004262  -0.000008   0.000213
    13  C   -0.000000  -0.000033   0.000215  -0.008308  -0.000009  -0.000108
    14  C    0.000000  -0.000011   0.000207  -0.008433  -0.000023   0.000213
    15  C   -0.000032  -0.003180  -0.012849  -0.057571  -0.046979   0.366148
    16  H    0.004268  -0.032308   0.344479  -0.031414  -0.031984   0.004253
    17  H   -0.000084   0.003578  -0.031261   0.357247  -0.006202  -0.000828
    18  H    0.000825  -0.001008  -0.039653   0.363736   0.005169   0.000032
    19  H    0.000726  -0.000925  -0.039464   0.005144   0.366941  -0.035046
    20  H   -0.000084   0.003566  -0.031257  -0.006117   0.360429  -0.033519
    21  H   -0.000000   0.000318   0.004718   0.000114  -0.038733   0.368448
    22  H   -0.000084   0.003566  -0.000320   0.000114   0.005314  -0.033518
    23  H    0.000726  -0.000925  -0.000025   0.000045  -0.004386  -0.035046
    24  H    0.004268  -0.032308   0.007222  -0.000055  -0.000045   0.004253
    25  H   -0.000084   0.003578  -0.000299   0.005753   0.000110  -0.000828
    26  H    0.000825  -0.001008   0.000363  -0.006062  -0.000003   0.000032
    27  H    0.000000  -0.000000   0.000000   0.000009  -0.000001  -0.000067
    28  H   -0.000000   0.000000   0.000001  -0.000096   0.000000  -0.000001
    29  H    0.000000  -0.000004  -0.000001   0.000010  -0.000000  -0.000016
    30  H   -0.000000  -0.000006  -0.000017  -0.000113  -0.000000  -0.000000
    31  H   -0.000000   0.000000  -0.000001   0.000144   0.000000   0.000001
    32  H   -0.000000  -0.000006  -0.000054   0.001185  -0.000001  -0.000000
    33  H    0.000000  -0.000000  -0.000014  -0.000110   0.000002  -0.000067
    34  H    0.000000  -0.000004  -0.000059   0.001172   0.000003  -0.000016
    35  H   -0.000000   0.000000  -0.000001   0.000150   0.000000  -0.000001
    36  H    0.000000   0.000145  -0.000061   0.005721   0.005195  -0.035674
    37  H    0.000000   0.000145  -0.001187  -0.005255  -0.003877  -0.035674
               7          8          9         10         11         12
     1  O    0.000979  -0.074066   0.000836   0.000095  -0.000000   0.000000
     2  C   -0.028586   0.331951  -0.029762  -0.019272   0.000249  -0.000011
     3  C   -0.008831  -0.124798  -0.006746  -0.018037   0.003342  -0.000103
     4  C   -0.002877  -0.006746  -0.058480   0.373943  -0.038329   0.004262
     5  C   -0.048873  -0.008831  -0.002877  -0.016132   0.000112  -0.000008
     6  C    0.375174  -0.027321  -0.014520  -0.019132   0.003505   0.000213
     7  C    5.097819   0.338538  -0.039764  -0.016132   0.000112  -0.000023
     8  C    0.338538   5.225906   0.327793  -0.018037   0.003342   0.000207
     9  C   -0.039764   0.327793   5.174590   0.373943  -0.038329  -0.008433
    10  C   -0.016132  -0.018037   0.373943   4.843923   0.371808  -0.044609
    11  C    0.000112   0.003342  -0.038329   0.371808   4.796061   0.377578
    12  C   -0.000023   0.000207  -0.008433  -0.044609   0.377578   5.179716
    13  C   -0.000009   0.000215  -0.008308  -0.044426   0.376729  -0.065517
    14  C   -0.000008  -0.000103   0.004262  -0.044609   0.377578  -0.065459
    15  C   -0.046979  -0.012849  -0.057571   0.380380  -0.040790  -0.008391
    16  H   -0.000045   0.007222  -0.000055   0.003477  -0.000091   0.000001
    17  H    0.000110  -0.000299   0.005753  -0.031893  -0.006184   0.000024
    18  H   -0.000003   0.000363  -0.006062  -0.033059  -0.006440   0.000036
    19  H   -0.004386  -0.000025   0.000045   0.000162   0.000010  -0.000000
    20  H    0.005314  -0.000320   0.000114  -0.001095  -0.000077   0.000000
    21  H   -0.038733   0.004719   0.000114   0.004053  -0.000086  -0.000003
    22  H    0.360429  -0.031257  -0.006117  -0.001095  -0.000077  -0.000011
    23  H    0.366941  -0.039464   0.005144   0.000162   0.000010   0.000000
    24  H   -0.031984   0.344479  -0.031414   0.003477  -0.000091  -0.000001
    25  H   -0.006201  -0.031261   0.357247  -0.031893  -0.006183   0.001834
    26  H    0.005169  -0.039653   0.363736  -0.033059  -0.006440  -0.000229
    27  H    0.000002  -0.000014  -0.000110  -0.005785  -0.028028   0.366018
    28  H    0.000000  -0.000001   0.000150   0.004712  -0.028353   0.365012
    29  H    0.000003  -0.000059   0.001172  -0.005793  -0.028065   0.366264
    30  H   -0.000001  -0.000054   0.001185  -0.005799  -0.028128  -0.004559
    31  H    0.000000  -0.000001   0.000144   0.004702  -0.028218  -0.005977
    32  H   -0.000000  -0.000017  -0.000113  -0.005799  -0.028129   0.005753
    33  H   -0.000001   0.000000   0.000009  -0.005785  -0.028028  -0.004592
    34  H   -0.000000  -0.000001   0.000010  -0.005793  -0.028065   0.005768
    35  H    0.000000   0.000001  -0.000096   0.004712  -0.028353  -0.005975
    36  H   -0.003877  -0.001187  -0.005255  -0.034248  -0.006325   0.001788
    37  H    0.005195  -0.000061   0.005721  -0.034248  -0.006325  -0.000240
              13         14         15         16         17         18
     1  O   -0.000000   0.000000  -0.000032   0.004268  -0.000084   0.000825
     2  C   -0.000033  -0.000011  -0.003180  -0.032308   0.003578  -0.001008
     3  C    0.000215   0.000207  -0.012849   0.344479  -0.031261  -0.039653
     4  C   -0.008308  -0.008433  -0.057571  -0.031414   0.357247   0.363736
     5  C   -0.000009  -0.000023  -0.046979  -0.031984  -0.006202   0.005169
     6  C   -0.000108   0.000213   0.366148   0.004253  -0.000828   0.000032
     7  C   -0.000009  -0.000008  -0.046979  -0.000045   0.000110  -0.000003
     8  C    0.000215  -0.000103  -0.012849   0.007222  -0.000299   0.000363
     9  C   -0.008308   0.004262  -0.057571  -0.000055   0.005753  -0.006062
    10  C   -0.044426  -0.044609   0.380380   0.003477  -0.031893  -0.033059
    11  C    0.376729   0.377578  -0.040790  -0.000091  -0.006184  -0.006440
    12  C   -0.065517  -0.065459  -0.008391   0.000001   0.000024   0.000036
    13  C    5.179899  -0.065517   0.004301  -0.000002  -0.000230   0.001882
    14  C   -0.065517   5.179716  -0.008391  -0.000001   0.001835  -0.000229
    15  C    0.004301  -0.008391   5.148077   0.000164  -0.005100   0.005593
    16  H   -0.000002  -0.000001   0.000164   0.605431  -0.003930  -0.002588
    17  H   -0.000230   0.001835  -0.005100  -0.003930   0.600689  -0.036608
    18  H    0.001882  -0.000229   0.005593  -0.002588  -0.036608   0.593665
    19  H   -0.000000   0.000000   0.005036  -0.002446  -0.000055  -0.000162
    20  H    0.000000  -0.000011  -0.003824  -0.004147   0.006010  -0.000068
    21  H    0.000002  -0.000003  -0.038951  -0.000149  -0.000094   0.000018
    22  H    0.000000   0.000000  -0.003824   0.000024  -0.000005   0.000001
    23  H   -0.000000  -0.000000   0.005036  -0.000083   0.000001  -0.000005
    24  H   -0.000002   0.000001   0.000164  -0.000188   0.000024  -0.000086
    25  H   -0.000230   0.000024  -0.005100   0.000024  -0.000195   0.000002
    26  H    0.001882   0.000036   0.005593  -0.000086   0.000002   0.003932
    27  H    0.005770  -0.004592   0.001210   0.000000  -0.000008  -0.000000
    28  H   -0.005917  -0.005975   0.000147  -0.000000  -0.000002  -0.000001
    29  H   -0.004583   0.005768  -0.000099   0.000000  -0.000001  -0.000007
    30  H    0.366706   0.005753   0.000012   0.000000   0.000030   0.000120
    31  H    0.364808  -0.005977  -0.000096  -0.000000  -0.000036  -0.000094
    32  H    0.366706  -0.004559   0.000012   0.000006   0.000186   0.004352
    33  H    0.005770   0.366017   0.001210   0.000000   0.000136   0.000033
    34  H   -0.004583   0.366265  -0.000099   0.000005   0.004317   0.000206
    35  H   -0.005916   0.365012   0.000147  -0.000000  -0.000083  -0.000036
    36  H    0.000035  -0.000240   0.361053   0.000017  -0.000054  -0.000163
    37  H    0.000035   0.001788   0.361053  -0.000071   0.004311  -0.000044
              19         20         21         22         23         24
     1  O    0.000726  -0.000084  -0.000000  -0.000084   0.000726   0.004268
     2  C   -0.000925   0.003566   0.000318   0.003566  -0.000925  -0.032308
     3  C   -0.039464  -0.031257   0.004718  -0.000320  -0.000025   0.007222
     4  C    0.005144  -0.006117   0.000114   0.000114   0.000045  -0.000055
     5  C    0.366941   0.360429  -0.038733   0.005314  -0.004386  -0.000045
     6  C   -0.035046  -0.033519   0.368448  -0.033518  -0.035046   0.004253
     7  C   -0.004386   0.005314  -0.038733   0.360429   0.366941  -0.031984
     8  C   -0.000025  -0.000320   0.004719  -0.031257  -0.039464   0.344479
     9  C    0.000045   0.000114   0.000114  -0.006117   0.005144  -0.031414
    10  C    0.000162  -0.001095   0.004053  -0.001095   0.000162   0.003477
    11  C    0.000010  -0.000077  -0.000086  -0.000077   0.000010  -0.000091
    12  C   -0.000000   0.000000  -0.000003  -0.000011   0.000000  -0.000001
    13  C   -0.000000   0.000000   0.000002   0.000000  -0.000000  -0.000002
    14  C    0.000000  -0.000011  -0.000003   0.000000  -0.000000   0.000001
    15  C    0.005036  -0.003824  -0.038951  -0.003824   0.005036   0.000164
    16  H   -0.002446  -0.004147  -0.000149   0.000024  -0.000083  -0.000188
    17  H   -0.000055   0.006010  -0.000094  -0.000005   0.000001   0.000024
    18  H   -0.000162  -0.000068   0.000018   0.000001  -0.000005  -0.000086
    19  H    0.596604  -0.035602  -0.003310   0.000005   0.004302  -0.000083
    20  H   -0.035602   0.603810  -0.003369  -0.000203   0.000005   0.000024
    21  H   -0.003310  -0.003369   0.631305  -0.003369  -0.003310  -0.000149
    22  H    0.000005  -0.000203  -0.003369   0.603810  -0.035602  -0.004147
    23  H    0.004302   0.000005  -0.003310  -0.035602   0.596604  -0.002446
    24  H   -0.000083   0.000024  -0.000149  -0.004147  -0.002446   0.605431
    25  H    0.000001  -0.000005  -0.000094   0.006010  -0.000055  -0.003930
    26  H   -0.000005   0.000001   0.000018  -0.000068  -0.000162  -0.002588
    27  H   -0.000000   0.000000   0.000007  -0.000004  -0.000000   0.000000
    28  H   -0.000000  -0.000000  -0.000000   0.000000   0.000000  -0.000000
    29  H   -0.000000   0.000000   0.000000  -0.000004  -0.000000   0.000005
    30  H   -0.000000   0.000000   0.000000   0.000000  -0.000000   0.000006
    31  H   -0.000000  -0.000000  -0.000000  -0.000000  -0.000000  -0.000000
    32  H   -0.000000   0.000000   0.000000   0.000000  -0.000000   0.000000
    33  H   -0.000000  -0.000004   0.000007   0.000000  -0.000000   0.000000
    34  H   -0.000000  -0.000004   0.000000   0.000000  -0.000000   0.000000
    35  H    0.000000   0.000000  -0.000000  -0.000000  -0.000000  -0.000000
    36  H   -0.000167  -0.000061  -0.003597   0.004879  -0.000040  -0.000071
    37  H   -0.000040   0.004879  -0.003597  -0.000061  -0.000167   0.000017
              25         26         27         28         29         30
     1  O   -0.000084   0.000825   0.000000  -0.000000   0.000000  -0.000000
     2  C    0.003578  -0.001008  -0.000000   0.000000  -0.000004  -0.000006
     3  C   -0.000299   0.000363   0.000000   0.000001  -0.000001  -0.000017
     4  C    0.005753  -0.006062   0.000009  -0.000096   0.000010  -0.000113
     5  C    0.000110  -0.000003  -0.000001   0.000000  -0.000000  -0.000000
     6  C   -0.000828   0.000032  -0.000067  -0.000001  -0.000016  -0.000000
     7  C   -0.006201   0.005169   0.000002   0.000000   0.000003  -0.000001
     8  C   -0.031261  -0.039653  -0.000014  -0.000001  -0.000059  -0.000054
     9  C    0.357247   0.363736  -0.000110   0.000150   0.001172   0.001185
    10  C   -0.031893  -0.033059  -0.005785   0.004712  -0.005793  -0.005799
    11  C   -0.006183  -0.006440  -0.028028  -0.028353  -0.028065  -0.028128
    12  C    0.001834  -0.000229   0.366018   0.365012   0.366264  -0.004559
    13  C   -0.000230   0.001882   0.005770  -0.005917  -0.004583   0.366706
    14  C    0.000024   0.000036  -0.004592  -0.005975   0.005768   0.005753
    15  C   -0.005100   0.005593   0.001210   0.000147  -0.000099   0.000012
    16  H    0.000024  -0.000086   0.000000  -0.000000   0.000000   0.000000
    17  H   -0.000195   0.000002  -0.000008  -0.000002  -0.000001   0.000030
    18  H    0.000002   0.003932  -0.000000  -0.000001  -0.000007   0.000120
    19  H    0.000001  -0.000005  -0.000000  -0.000000  -0.000000  -0.000000
    20  H   -0.000005   0.000001   0.000000  -0.000000   0.000000   0.000000
    21  H   -0.000094   0.000018   0.000007  -0.000000   0.000000   0.000000
    22  H    0.006010  -0.000068  -0.000004   0.000000  -0.000004   0.000000
    23  H   -0.000055  -0.000162  -0.000000   0.000000  -0.000000  -0.000000
    24  H   -0.003930  -0.002588   0.000000  -0.000000   0.000005   0.000006
    25  H    0.600689  -0.036608   0.000136  -0.000083   0.004317   0.000186
    26  H   -0.036608   0.593664   0.000033  -0.000036   0.000206   0.004351
    27  H    0.000136   0.000033   0.575498  -0.030255  -0.031529  -0.000040
    28  H   -0.000083  -0.000036  -0.030255   0.582003  -0.030185  -0.000121
    29  H    0.004317   0.000206  -0.031529  -0.030185   0.575072   0.003566
    30  H    0.000186   0.004351  -0.000040  -0.000121   0.003566   0.572970
    31  H   -0.000036  -0.000094  -0.000022   0.004725  -0.000117  -0.030160
    32  H    0.000030   0.000120  -0.000192  -0.000024  -0.000040  -0.031258
    33  H   -0.000008  -0.000000   0.003570  -0.000117  -0.000042  -0.000192
    34  H   -0.000001  -0.000007  -0.000042  -0.000022  -0.000192  -0.000040
    35  H   -0.000002  -0.000001  -0.000117   0.004720  -0.000022  -0.000024
    36  H    0.004311  -0.000044   0.004383  -0.000089   0.000149  -0.000007
    37  H   -0.000054  -0.000163   0.000228  -0.000038   0.000035  -0.000000
              31         32         33         34         35         36
     1  O   -0.000000  -0.000000   0.000000   0.000000  -0.000000   0.000000
     2  C    0.000000  -0.000006  -0.000000  -0.000004   0.000000   0.000145
     3  C   -0.000001  -0.000054  -0.000014  -0.000059  -0.000001  -0.000061
     4  C    0.000144   0.001185  -0.000110   0.001172   0.000150   0.005721
     5  C    0.000000  -0.000001   0.000002   0.000003   0.000000   0.005195
     6  C    0.000001  -0.000000  -0.000067  -0.000016  -0.000001  -0.035674
     7  C    0.000000  -0.000000  -0.000001  -0.000000   0.000000  -0.003877
     8  C   -0.000001  -0.000017   0.000000  -0.000001   0.000001  -0.001187
     9  C    0.000144  -0.000113   0.000009   0.000010  -0.000096  -0.005255
    10  C    0.004702  -0.005799  -0.005785  -0.005793   0.004712  -0.034248
    11  C   -0.028218  -0.028129  -0.028028  -0.028065  -0.028353  -0.006325
    12  C   -0.005977   0.005753  -0.004592   0.005768  -0.005975   0.001788
    13  C    0.364808   0.366706   0.005770  -0.004583  -0.005916   0.000035
    14  C   -0.005977  -0.004559   0.366017   0.366265   0.365012  -0.000240
    15  C   -0.000096   0.000012   0.001210  -0.000099   0.000147   0.361053
    16  H   -0.000000   0.000006   0.000000   0.000005  -0.000000   0.000017
    17  H   -0.000036   0.000186   0.000136   0.004317  -0.000083  -0.000054
    18  H   -0.000094   0.004352   0.000033   0.000206  -0.000036  -0.000163
    19  H   -0.000000  -0.000000  -0.000000  -0.000000   0.000000  -0.000167
    20  H   -0.000000   0.000000  -0.000004  -0.000004   0.000000  -0.000061
    21  H   -0.000000   0.000000   0.000007   0.000000  -0.000000  -0.003597
    22  H   -0.000000   0.000000   0.000000   0.000000  -0.000000   0.004879
    23  H   -0.000000  -0.000000  -0.000000  -0.000000  -0.000000  -0.000040
    24  H   -0.000000   0.000000   0.000000   0.000000  -0.000000  -0.000071
    25  H   -0.000036   0.000030  -0.000008  -0.000001  -0.000002   0.004311
    26  H   -0.000094   0.000120  -0.000000  -0.000007  -0.000001  -0.000044
    27  H   -0.000022  -0.000192   0.003570  -0.000042  -0.000117   0.004383
    28  H    0.004725  -0.000024  -0.000117  -0.000022   0.004720  -0.000089
    29  H   -0.000117  -0.000040  -0.000042  -0.000192  -0.000022   0.000149
    30  H   -0.030160  -0.031258  -0.000192  -0.000040  -0.000024  -0.000007
    31  H    0.582179  -0.030160  -0.000022  -0.000117   0.004725  -0.000002
    32  H   -0.030160   0.572969  -0.000040   0.003566  -0.000121  -0.000000
    33  H   -0.000022  -0.000040   0.575498  -0.031529  -0.030255   0.000228
    34  H   -0.000117   0.003566  -0.031529   0.575072  -0.030185   0.000035
    35  H    0.004725  -0.000121  -0.030255  -0.030185   0.582002  -0.000038
    36  H   -0.000002  -0.000000   0.000228   0.000035  -0.000038   0.607360
    37  H   -0.000002  -0.000007   0.004384   0.000149  -0.000089  -0.036526
              37
     1  O    0.000000
     2  C    0.000145
     3  C   -0.001187
     4  C   -0.005255
     5  C   -0.003877
     6  C   -0.035674
     7  C    0.005195
     8  C   -0.000061
     9  C    0.005721
    10  C   -0.034248
    11  C   -0.006325
    12  C   -0.000240
    13  C    0.000035
    14  C    0.001788
    15  C    0.361053
    16  H   -0.000071
    17  H    0.004311
    18  H   -0.000044
    19  H   -0.000040
    20  H    0.004879
    21  H   -0.003597
    22  H   -0.000061
    23  H   -0.000167
    24  H    0.000017
    25  H   -0.000054
    26  H   -0.000163
    27  H    0.000228
    28  H   -0.000038
    29  H    0.000035
    30  H   -0.000000
    31  H   -0.000002
    32  H   -0.000007
    33  H    0.004384
    34  H    0.000149
    35  H   -0.000089
    36  H   -0.036526
    37  H    0.607360
 Mulliken charges:
               1
     1  O   -0.462732
     2  C    0.455302
     3  C   -0.168311
     4  C   -0.307953
     5  C   -0.278474
     6  C   -0.096525
     7  C   -0.278474
     8  C   -0.168311
     9  C   -0.307953
    10  C    0.106177
    11  C    0.098698
    12  C   -0.460336
    13  C   -0.461255
    14  C   -0.460336
    15  C   -0.292662
    16  H    0.140218
    17  H    0.138899
    18  H    0.146354
    19  H    0.142740
    20  H    0.135616
    21  H    0.123705
    22  H    0.135616
    23  H    0.142740
    24  H    0.140218
    25  H    0.138899
    26  H    0.146354
    27  H    0.143941
    28  H    0.139846
    29  H    0.144191
    30  H    0.145637
    31  H    0.139705
    32  H    0.145637
    33  H    0.143941
    34  H    0.144191
    35  H    0.139846
    36  H    0.132426
    37  H    0.132425
 Sum of Mulliken charges =  -0.00000
 Mulliken charges with hydrogens summed into heavy atoms:
               1
     1  O   -0.462732
     2  C    0.455302
     3  C   -0.028093
     4  C   -0.022700
     5  C   -0.000118
     6  C    0.027180
     7  C   -0.000118
     8  C   -0.028093
     9  C   -0.022700
    10  C    0.106177
    11  C    0.098698
    12  C   -0.032357
    13  C   -0.030277
    14  C   -0.032357
    15  C   -0.027810
 APT charges:
               1
     1  O   -0.641709
     2  C    0.686539
     3  C   -0.042030
     4  C    0.078986
     5  C    0.112772
     6  C    0.110081
     7  C    0.112772
     8  C   -0.042030
     9  C    0.078985
    10  C    0.052220
    11  C    0.138642
    12  C    0.020026
    13  C    0.018843
    14  C    0.020025
    15  C    0.051618
    16  H   -0.055502
    17  H   -0.036162
    18  H   -0.029574
    19  H   -0.045030
    20  H   -0.046361
    21  H   -0.076936
    22  H   -0.046361
    23  H   -0.045030
    24  H   -0.055503
    25  H   -0.036162
    26  H   -0.029573
    27  H   -0.014551
    28  H   -0.030717
    29  H   -0.014581
    30  H   -0.013493
    31  H   -0.030598
    32  H   -0.013492
    33  H   -0.014550
    34  H   -0.014582
    35  H   -0.030717
    36  H   -0.038132
    37  H   -0.038133
 Sum of APT charges =   0.00000
 APT charges with hydrogens summed into heavy atoms:
               1
     1  O   -0.641709
     2  C    0.686539
     3  C   -0.097532
     4  C    0.013250
     5  C    0.021381
     6  C    0.033145
     7  C    0.021381
     8  C   -0.097532
     9  C    0.013250
    10  C    0.052220
    11  C    0.138642
    12  C   -0.039824
    13  C   -0.038740
    14  C   -0.039824
    15  C   -0.024647
 Electronic spatial extent (au):  <R**2>=           2912.3992
 Charge=             -0.0000 electrons
 Dipole moment (field-independent basis, Debye):
    X=              2.3563    Y=              2.3214    Z=              0.0000  Tot=              3.3077
 Quadrupole moment (field-independent basis, Debye-Ang):
   XX=           -101.5241   YY=            -97.3437   ZZ=            -90.9845
   XY=             -8.7273   XZ=             -0.0000   YZ=             -0.0000
 Traceless Quadrupole moment (field-independent basis, Debye-Ang):
   XX=             -4.9067   YY=             -0.7263   ZZ=              5.6329
   XY=             -8.7273   XZ=             -0.0000   YZ=             -0.0000
 Octapole moment (field-independent basis, Debye-Ang**2):
  XXX=             21.5839  YYY=              5.8038  ZZZ=             -0.0001  XYY=             12.6153
  XXY=             25.4081  XXZ=              0.0000  XZZ=             -7.4051  YZZ=             -3.2605
  YYZ=              0.0001  XYZ=              0.0000
 Hexadecapole moment (field-independent basis, Debye-Ang**3):
 XXXX=          -2414.4523 YYYY=           -866.6697 ZZZZ=           -714.0087 XXXY=            -77.5455
 XXXZ=             -0.0000 YYYX=            -13.2736 YYYZ=             -0.0001 ZZZX=             -0.0002
 ZZZY=              0.0000 XXYY=           -594.3331 XXZZ=           -515.8603 YYZZ=           -259.1565
 XXYZ=              0.0001 YYXZ=              0.0002 ZZXY=              6.9990
 N-N= 1.126578112151D+03 E-N=-3.694224354899D+03  KE= 6.159797062604D+02
  Exact polarizability: 153.746   1.806 129.998   0.000   0.000 127.313
 Approx polarizability: 205.840  11.112 201.010   0.000   0.000 193.368
 Calling FoFJK, ICntrl=    100127 FMM=F ISym2X=0 I1Cent= 0 IOpClX= 0 NMat=1 NMatS=1 NMatT=0.
 Full mass-weighted force constant matrix:
 Low frequencies ---  -54.9723   -0.0001    0.0005    0.0007    5.8708    7.4071
 Low frequencies ---   14.5490   87.5394  176.3351
 ******    1 imaginary frequencies (negative Signs) ****** 
 Diagonal vibrational polarizability:
        9.4708749       7.2895380       5.0083666
 Harmonic frequencies (cm**-1), IR intensities (KM/Mole), Raman scattering
 activities (A**4/AMU), depolarization ratios for plane and unpolarized
 incident light, reduced masses (AMU), force constants (mDyne/A),
 and normal coordinates:
                      1                      2                      3
                      A                      A                      A
 Frequencies --    -54.9537                87.5393               176.3335
 Red. masses --      2.2166                 8.5217                 2.8002
 Frc consts  --      0.0039                 0.0385                 0.0513
 IR Inten    --      0.1015                 3.2479                 0.0822
  Atom  AN      X      Y      Z        X      Y      Z        X      Y      Z
     1   8    -0.00  -0.00  -0.06     0.47  -0.38   0.00    -0.00   0.00  -0.06
     2   6    -0.00   0.00  -0.03     0.08  -0.01   0.00     0.00  -0.00  -0.02
     3   6    -0.00  -0.04  -0.01    -0.06   0.12   0.00    -0.05   0.00   0.01
     4   6    -0.00  -0.05  -0.03    -0.06   0.09   0.02    -0.02   0.05   0.12
     5   6    -0.00  -0.04   0.03    -0.03   0.12  -0.01    -0.13  -0.01  -0.06
     6   6    -0.00   0.00   0.06     0.01   0.10   0.00    -0.00  -0.00   0.01
     7   6     0.00   0.04   0.03    -0.03   0.12   0.01     0.13   0.01  -0.06
     8   6     0.00   0.04  -0.01    -0.06   0.12  -0.00     0.05  -0.00   0.01
     9   6     0.00   0.05  -0.03    -0.06   0.09  -0.02     0.02  -0.05   0.12
    10   6    -0.00   0.00   0.00    -0.05   0.04  -0.00     0.00   0.00   0.10
    11   6     0.00   0.00  -0.00    -0.06  -0.06  -0.00     0.00   0.00  -0.02
    12   6    -0.02  -0.14  -0.08    -0.02  -0.11  -0.00    -0.12   0.00  -0.09
    13   6     0.00  -0.00   0.16    -0.17  -0.09  -0.00    -0.00   0.00  -0.08
    14   6     0.02   0.14  -0.08    -0.02  -0.11   0.00     0.12  -0.00  -0.09
    15   6    -0.00   0.00   0.06     0.01   0.06   0.00    -0.00   0.00   0.14
    16   1    -0.00  -0.07  -0.03    -0.07   0.12   0.00    -0.09   0.01  -0.01
    17   1     0.01  -0.11  -0.00    -0.05   0.12   0.00    -0.09   0.15   0.11
    18   1    -0.02  -0.06  -0.09    -0.09   0.09   0.05     0.01   0.06   0.22
    19   1    -0.00  -0.04   0.04    -0.02   0.15  -0.04    -0.14  -0.07  -0.21
    20   1    -0.00  -0.07   0.05    -0.04   0.11  -0.00    -0.28   0.03  -0.01
    21   1    -0.00   0.00   0.09     0.04   0.11   0.00    -0.00  -0.00  -0.00
    22   1     0.00   0.07   0.05    -0.04   0.11   0.00     0.28  -0.03  -0.01
    23   1     0.00   0.04   0.04    -0.02   0.15   0.04     0.14   0.07  -0.21
    24   1     0.00   0.07  -0.03    -0.07   0.12  -0.00     0.09  -0.01  -0.01
    25   1    -0.01   0.11  -0.00    -0.05   0.12  -0.00     0.09  -0.15   0.11
    26   1     0.02   0.06  -0.09    -0.09   0.09  -0.05    -0.01  -0.06   0.22
    27   1    -0.15  -0.17  -0.28     0.03  -0.10  -0.02    -0.13   0.00  -0.08
    28   1    -0.00  -0.00  -0.01    -0.03  -0.16   0.01    -0.11   0.02  -0.17
    29   1     0.07  -0.35  -0.02    -0.03  -0.11   0.00    -0.18  -0.01  -0.06
    30   1    -0.15  -0.13   0.30    -0.20  -0.06   0.00     0.04   0.04  -0.12
    31   1     0.00   0.00  -0.00    -0.18  -0.16   0.00    -0.00  -0.00  -0.04
    32   1     0.15   0.13   0.30    -0.20  -0.06  -0.00    -0.04  -0.04  -0.12
    33   1     0.15   0.17  -0.28     0.03  -0.10   0.02     0.13  -0.00  -0.08
    34   1    -0.07   0.35  -0.02    -0.03  -0.11  -0.00     0.18   0.01  -0.06
    35   1     0.00   0.00  -0.01    -0.03  -0.16  -0.01     0.11  -0.02  -0.17
    36   1     0.02   0.04   0.10     0.02   0.04  -0.00     0.07   0.06   0.21
    37   1    -0.02  -0.04   0.10     0.02   0.04   0.00    -0.07  -0.06   0.21
                      4                      5                      6
                      A                      A                      A
 Frequencies --    211.4005               226.3836               250.3137
 Red. masses --      3.0061                 1.1533                 1.1720
 Frc consts  --      0.0792                 0.0348                 0.0433
 IR Inten    --      0.1958                 0.0562                 0.0240
  Atom  AN      X      Y      Z        X      Y      Z        X      Y      Z
     1   8    -0.04   0.06   0.00     0.00   0.00  -0.03    -0.00  -0.00   0.03
     2   6     0.07  -0.04   0.00     0.00   0.00  -0.01    -0.00  -0.00   0.01
     3   6     0.06  -0.04   0.00     0.00  -0.01  -0.00    -0.00   0.01   0.01
     4   6     0.07   0.13   0.02     0.00  -0.00  -0.00    -0.01  -0.01  -0.01
     5   6    -0.09  -0.07  -0.01     0.01  -0.01   0.02    -0.01   0.01   0.00
     6   6    -0.10  -0.02   0.00     0.00  -0.00   0.02     0.00  -0.00   0.01
     7   6    -0.09  -0.07   0.01    -0.01   0.01   0.02     0.01  -0.01   0.00
     8   6     0.06  -0.04  -0.00    -0.00   0.01  -0.00     0.00  -0.01   0.01
     9   6     0.07   0.13  -0.02    -0.00   0.00  -0.00     0.01   0.01  -0.01
    10   6     0.03   0.11  -0.00     0.00  -0.00  -0.00    -0.00  -0.00  -0.01
    11   6     0.02  -0.00  -0.00    -0.00  -0.00   0.00     0.00   0.00  -0.01
    12   6     0.09  -0.09  -0.01    -0.01  -0.05  -0.03     0.05  -0.04  -0.00
    13   6    -0.13  -0.05  -0.00    -0.00  -0.00   0.06    -0.00   0.00  -0.05
    14   6     0.09  -0.09   0.01     0.01   0.05  -0.03    -0.05   0.04  -0.00
    15   6    -0.06   0.10   0.00     0.00   0.00  -0.01     0.00  -0.00   0.04
    16   1     0.09  -0.07   0.00     0.00  -0.02  -0.01     0.00   0.01   0.01
    17   1     0.02   0.25  -0.01     0.01  -0.00  -0.00     0.00  -0.04  -0.00
    18   1     0.18   0.16   0.12    -0.00  -0.00  -0.00    -0.04  -0.02  -0.03
    19   1    -0.10  -0.17  -0.06     0.01  -0.00   0.03    -0.01  -0.00  -0.01
    20   1    -0.17  -0.03   0.01     0.03  -0.03   0.02    -0.03   0.01   0.00
    21   1    -0.18  -0.04   0.00     0.00  -0.00   0.03     0.00  -0.00  -0.00
    22   1    -0.17  -0.03  -0.01    -0.03   0.03   0.02     0.03  -0.01   0.00
    23   1    -0.10  -0.17   0.06    -0.01   0.00   0.03     0.01   0.00  -0.01
    24   1     0.09  -0.07  -0.00    -0.00   0.02  -0.01    -0.00  -0.01   0.01
    25   1     0.02   0.25   0.01    -0.01   0.00  -0.00    -0.00   0.04  -0.00
    26   1     0.18   0.16  -0.12     0.00   0.00  -0.00     0.04   0.02  -0.03
    27   1     0.06  -0.10  -0.10     0.27  -0.00   0.12    -0.09  -0.06  -0.15
    28   1     0.09  -0.07   0.07    -0.05  -0.34  -0.19     0.07   0.11   0.14
    29   1     0.15  -0.18   0.01    -0.25   0.15  -0.02     0.21  -0.20   0.01
    30   1    -0.17  -0.02   0.00     0.27   0.04  -0.08     0.37   0.15  -0.30
    31   1    -0.14  -0.15   0.00    -0.00  -0.00   0.40    -0.00  -0.00   0.38
    32   1    -0.17  -0.02  -0.00    -0.27  -0.04  -0.08    -0.37  -0.15  -0.30
    33   1     0.06  -0.10   0.10    -0.27   0.00   0.12     0.09   0.06  -0.15
    34   1     0.15  -0.18  -0.01     0.25  -0.15  -0.02    -0.21   0.20   0.01
    35   1     0.09  -0.07  -0.07     0.05   0.34  -0.19    -0.07  -0.11   0.14
    36   1    -0.10   0.13  -0.00    -0.01  -0.01  -0.02     0.03   0.04   0.07
    37   1    -0.10   0.13   0.00     0.01   0.01  -0.02    -0.03  -0.04   0.07
                      7                      8                      9
                      A                      A                      A
 Frequencies --    253.5457               261.6007               304.7942
 Red. masses --      1.1530                 2.0795                 2.3148
 Frc consts  --      0.0437                 0.0838                 0.1267
 IR Inten    --      0.0097                 0.6000                 0.0907
  Atom  AN      X      Y      Z        X      Y      Z        X      Y      Z
     1   8    -0.01  -0.01  -0.00    -0.00  -0.00   0.13    -0.00  -0.00  -0.08
     2   6    -0.01  -0.01  -0.00    -0.00  -0.00   0.05    -0.00   0.00  -0.03
     3   6    -0.00  -0.01  -0.00    -0.00   0.04   0.00    -0.07   0.05   0.00
     4   6    -0.00  -0.00  -0.01    -0.02  -0.11  -0.08    -0.07  -0.05   0.02
     5   6    -0.00  -0.01  -0.00    -0.03   0.04  -0.06     0.09   0.09   0.04
     6   6     0.00  -0.01  -0.00    -0.00  -0.00  -0.06    -0.00   0.00  -0.04
     7   6    -0.00  -0.01   0.00     0.03  -0.04  -0.06    -0.09  -0.09   0.04
     8   6    -0.00  -0.01   0.00     0.00  -0.04   0.00     0.07  -0.05   0.00
     9   6    -0.00  -0.00   0.01     0.02   0.11  -0.08     0.07   0.05   0.02
    10   6     0.00   0.01   0.00     0.00   0.00  -0.00     0.00  -0.00   0.07
    11   6     0.00   0.01   0.00     0.00  -0.00  -0.00     0.00  -0.00   0.05
    12   6     0.04   0.03   0.03    -0.01   0.02  -0.00    -0.12   0.03  -0.00
    13   6    -0.07  -0.01   0.00    -0.00  -0.00   0.01     0.00   0.00  -0.00
    14   6     0.04   0.03  -0.03     0.01  -0.02  -0.00     0.12  -0.03  -0.00
    15   6     0.01   0.01  -0.00    -0.00   0.00   0.13    -0.00  -0.00  -0.03
    16   1     0.00  -0.01   0.00     0.00   0.08   0.02    -0.12   0.08  -0.01
    17   1    -0.01  -0.02   0.00     0.08  -0.31  -0.03    -0.05  -0.18   0.07
    18   1    -0.00  -0.00  -0.02    -0.16  -0.14  -0.26    -0.15  -0.07  -0.09
    19   1     0.00  -0.01  -0.01    -0.04  -0.02  -0.11     0.11   0.23   0.20
    20   1    -0.00  -0.02   0.00    -0.09   0.10  -0.07     0.29   0.04  -0.03
    21   1    -0.01  -0.01   0.00    -0.00  -0.00  -0.10    -0.00   0.00  -0.12
    22   1    -0.00  -0.02  -0.00     0.09  -0.10  -0.07    -0.29  -0.04  -0.03
    23   1     0.00  -0.01   0.01     0.04   0.02  -0.11    -0.11  -0.23   0.20
    24   1     0.00  -0.01  -0.00    -0.00  -0.08   0.02     0.12  -0.08  -0.01
    25   1    -0.01  -0.02  -0.00    -0.08   0.31  -0.03     0.05   0.18   0.07
    26   1    -0.00  -0.00   0.02     0.16   0.14  -0.26     0.15   0.07  -0.09
    27   1     0.36   0.09   0.28     0.09   0.03   0.09    -0.24   0.01  -0.03
    28   1    -0.01  -0.30  -0.13    -0.03  -0.09  -0.08    -0.10   0.15  -0.06
    29   1    -0.20   0.34  -0.02    -0.11   0.12  -0.01    -0.12  -0.05   0.03
    30   1    -0.10   0.01   0.00    -0.06  -0.04   0.06     0.10   0.05  -0.08
    31   1    -0.07  -0.07  -0.00    -0.00  -0.00  -0.05     0.00   0.00   0.11
    32   1    -0.10   0.01  -0.00     0.06   0.04   0.06    -0.10  -0.05  -0.08
    33   1     0.36   0.09  -0.28    -0.09  -0.03   0.09     0.24  -0.01  -0.03
    34   1    -0.20   0.34   0.02     0.11  -0.12  -0.01     0.12   0.05   0.03
    35   1    -0.01  -0.30   0.13     0.03   0.09  -0.08     0.10  -0.15  -0.06
    36   1     0.01   0.00  -0.00     0.16   0.12   0.28    -0.00  -0.09  -0.08
    37   1     0.01   0.00   0.00    -0.16  -0.12   0.28     0.00   0.09  -0.08
                     10                     11                     12
                      A                      A                      A
 Frequencies --    312.1238               339.6127               357.0836
 Red. masses --      3.5657                 2.0614                 2.1859
 Frc consts  --      0.2047                 0.1401                 0.1642
 IR Inten    --      0.2585                 0.0438                 0.2276
  Atom  AN      X      Y      Z        X      Y      Z        X      Y      Z
     1   8    -0.04  -0.06   0.00     0.03   0.05   0.00     0.00   0.00   0.07
     2   6    -0.10  -0.00   0.00     0.07   0.01   0.00     0.00   0.00   0.00
     3   6    -0.10   0.04  -0.02     0.03   0.01   0.01     0.06  -0.04  -0.02
     4   6    -0.06   0.03   0.00     0.03   0.06   0.05     0.04   0.00  -0.05
     5   6    -0.13   0.04  -0.04    -0.03  -0.00  -0.01    -0.02  -0.07  -0.04
     6   6    -0.04   0.02   0.00    -0.00  -0.01   0.00    -0.00  -0.00   0.00
     7   6    -0.13   0.04   0.04    -0.03  -0.00   0.01     0.02   0.07  -0.04
     8   6    -0.10   0.04   0.02     0.03   0.01  -0.01    -0.06   0.04  -0.02
     9   6    -0.06   0.03  -0.00     0.03   0.06  -0.05    -0.04  -0.00  -0.05
    10   6     0.01  -0.02  -0.00     0.00  -0.03  -0.00    -0.00  -0.00  -0.04
    11   6     0.11  -0.03  -0.00    -0.02  -0.06  -0.00     0.00   0.00   0.03
    12   6     0.17  -0.04   0.02    -0.13  -0.04  -0.04    -0.12   0.08   0.02
    13   6     0.26  -0.01   0.00     0.15  -0.03   0.00     0.00  -0.00   0.13
    14   6     0.17  -0.04  -0.02    -0.13  -0.04   0.04     0.12  -0.08   0.02
    15   6    -0.01  -0.02  -0.00     0.00  -0.02   0.00    -0.00  -0.00  -0.06
    16   1    -0.08   0.05   0.00     0.02  -0.00  -0.00     0.08  -0.06  -0.02
    17   1    -0.08   0.05  -0.00    -0.01   0.20  -0.01     0.06   0.01  -0.06
    18   1    -0.08   0.02   0.05     0.09   0.08   0.18     0.06   0.01  -0.04
    19   1    -0.13   0.02  -0.15    -0.04  -0.05  -0.07    -0.03  -0.14  -0.11
    20   1    -0.23   0.05   0.00    -0.10   0.02   0.00    -0.11  -0.04  -0.01
    21   1     0.02   0.04   0.00     0.01  -0.00  -0.00     0.00   0.00   0.06
    22   1    -0.23   0.05  -0.00    -0.10   0.02  -0.00     0.11   0.04  -0.01
    23   1    -0.13   0.02   0.15    -0.04  -0.05   0.07     0.03   0.14  -0.11
    24   1    -0.08   0.05  -0.00     0.02  -0.00   0.00    -0.08   0.06  -0.02
    25   1    -0.08   0.05   0.00    -0.01   0.20   0.01    -0.06  -0.01  -0.06
    26   1    -0.08   0.02  -0.05     0.09   0.08  -0.18    -0.06  -0.01  -0.04
    27   1     0.23  -0.03   0.03     0.01  -0.02   0.08    -0.32   0.05   0.04
    28   1     0.16  -0.09   0.05    -0.15  -0.19  -0.25    -0.09   0.28  -0.03
    29   1     0.17  -0.00  -0.00    -0.35   0.09  -0.01    -0.09   0.02   0.04
    30   1     0.31  -0.05  -0.00     0.22  -0.09  -0.00     0.23  -0.03   0.05
    31   1     0.27   0.12   0.00     0.17   0.13   0.00    -0.00  -0.00   0.44
    32   1     0.31  -0.05   0.00     0.22  -0.09   0.00    -0.23   0.03   0.05
    33   1     0.23  -0.03  -0.03     0.01  -0.02  -0.08     0.32  -0.05   0.04
    34   1     0.17  -0.00   0.00    -0.35   0.09   0.01     0.09  -0.02   0.04
    35   1     0.16  -0.09  -0.05    -0.15  -0.19   0.25     0.09  -0.28  -0.03
    36   1    -0.01  -0.02  -0.00    -0.00  -0.01   0.00    -0.07  -0.02  -0.10
    37   1    -0.01  -0.02   0.00    -0.00  -0.01  -0.00     0.07   0.02  -0.10
                     13                     14                     15
                      A                      A                      A
 Frequencies --    370.7232               389.4406               391.9557
 Red. masses --      4.4545                 2.0281                 3.7202
 Frc consts  --      0.3607                 0.1812                 0.3367
 IR Inten    --      0.7198                 0.0845                 0.0586
  Atom  AN      X      Y      Z        X      Y      Z        X      Y      Z
     1   8     0.16   0.17  -0.00    -0.03  -0.01   0.00     0.00   0.00   0.02
     2   6     0.15   0.16  -0.00     0.00  -0.04   0.00    -0.00   0.00   0.00
     3   6     0.07   0.08   0.06    -0.02  -0.01   0.00     0.10  -0.09  -0.01
     4   6     0.03  -0.10   0.03    -0.01   0.05   0.07     0.08  -0.10   0.10
     5   6    -0.11   0.03   0.05    -0.01  -0.00  -0.05     0.10  -0.09  -0.12
     6   6    -0.16  -0.03  -0.00     0.10  -0.03  -0.00    -0.00   0.00  -0.13
     7   6    -0.11   0.03  -0.05    -0.01  -0.00   0.05    -0.10   0.09  -0.12
     8   6     0.07   0.08  -0.06    -0.02  -0.01  -0.00    -0.10   0.09  -0.01
     9   6     0.03  -0.10  -0.03    -0.01   0.05  -0.07    -0.08   0.10   0.10
    10   6    -0.02  -0.12   0.00     0.00  -0.08   0.00    -0.00   0.00   0.13
    11   6    -0.00  -0.06  -0.00    -0.01  -0.05   0.00     0.00   0.00   0.11
    12   6     0.04   0.04   0.07    -0.00   0.09   0.08    -0.03  -0.10   0.06
    13   6    -0.02  -0.07  -0.00    -0.05  -0.06  -0.00     0.00   0.00  -0.11
    14   6     0.04   0.04  -0.07    -0.00   0.09  -0.08     0.03   0.10   0.06
    15   6    -0.16  -0.14   0.00     0.08  -0.09  -0.00    -0.00   0.00  -0.03
    16   1     0.00  -0.01  -0.02    -0.04   0.02   0.01     0.02  -0.02  -0.01
    17   1     0.17  -0.20   0.01    -0.05   0.27  -0.01     0.04  -0.16   0.15
    18   1    -0.14  -0.14  -0.04     0.06   0.07   0.30     0.12  -0.10   0.02
    19   1    -0.13  -0.15   0.05    -0.01   0.01  -0.18     0.09  -0.14  -0.07
    20   1    -0.17   0.16   0.01    -0.11  -0.01  -0.00     0.11  -0.03  -0.16
    21   1    -0.06  -0.01  -0.00     0.16  -0.01  -0.00    -0.00   0.00  -0.02
    22   1    -0.17   0.16  -0.01    -0.11  -0.01   0.00    -0.11   0.03  -0.16
    23   1    -0.13  -0.15  -0.05    -0.01   0.01   0.18    -0.09   0.14  -0.07
    24   1     0.00  -0.01   0.02    -0.04   0.02  -0.01    -0.02   0.02  -0.01
    25   1     0.17  -0.20  -0.01    -0.05   0.27   0.01    -0.04   0.16   0.15
    26   1    -0.14  -0.14   0.04     0.06   0.07  -0.30    -0.12   0.10   0.02
    27   1    -0.01   0.04   0.17    -0.14   0.07   0.16     0.03  -0.09  -0.04
    28   1     0.04   0.09   0.14     0.02   0.24   0.17    -0.04  -0.15   0.03
    29   1     0.13   0.12  -0.00     0.15   0.12   0.00    -0.09  -0.17   0.12
    30   1    -0.04  -0.06   0.00    -0.09  -0.04   0.00    -0.08   0.20  -0.20
    31   1    -0.02  -0.10  -0.00    -0.06  -0.13  -0.00     0.00   0.00  -0.24
    32   1    -0.04  -0.06  -0.00    -0.09  -0.04  -0.00     0.08  -0.20  -0.20
    33   1    -0.01   0.04  -0.17    -0.14   0.07  -0.16    -0.03   0.09  -0.04
    34   1     0.13   0.12   0.00     0.15   0.12  -0.00     0.09   0.17   0.12
    35   1     0.04   0.09  -0.14     0.02   0.24  -0.17     0.04   0.15   0.03
    36   1    -0.16  -0.13   0.00     0.09  -0.10   0.00     0.08  -0.14  -0.07
    37   1    -0.16  -0.13  -0.00     0.09  -0.10  -0.00    -0.08   0.14  -0.07
                     16                     17                     18
                      A                      A                      A
 Frequencies --    422.0936               435.6889               452.3245
 Red. masses --      1.9146                 1.8669                 2.9606
 Frc consts  --      0.2010                 0.2088                 0.3569
 IR Inten    --      0.2164                 0.1552                 4.0417
  Atom  AN      X      Y      Z        X      Y      Z        X      Y      Z
     1   8    -0.00  -0.00  -0.02     0.00   0.02   0.00    -0.00  -0.00   0.14
     2   6    -0.00   0.00  -0.04     0.03  -0.01  -0.00    -0.00  -0.00  -0.10
     3   6     0.06   0.00  -0.05     0.03   0.02  -0.03    -0.01   0.03  -0.13
     4   6     0.06   0.04   0.03     0.02  -0.05  -0.03    -0.02   0.09  -0.08
     5   6     0.10   0.02  -0.02    -0.07   0.00  -0.10     0.01   0.01   0.05
     6   6    -0.00  -0.00  -0.07     0.08   0.03  -0.00     0.00   0.00   0.06
     7   6    -0.10  -0.02  -0.02    -0.07   0.00   0.10    -0.01  -0.01   0.05
     8   6    -0.06  -0.00  -0.05     0.03   0.02   0.03     0.01  -0.03  -0.13
     9   6    -0.06  -0.04   0.03     0.02  -0.05   0.03     0.02  -0.09  -0.08
    10   6    -0.00  -0.00   0.00     0.04  -0.01   0.00     0.00   0.00  -0.06
    11   6    -0.00  -0.00  -0.05     0.02   0.05  -0.00    -0.00  -0.00   0.12
    12   6     0.02   0.05  -0.02    -0.02   0.00  -0.06    -0.08  -0.09   0.08
    13   6     0.00  -0.00   0.06    -0.06   0.05   0.00    -0.00   0.00  -0.08
    14   6    -0.02  -0.05  -0.02    -0.02   0.00   0.06     0.08   0.09   0.08
    15   6    -0.00  -0.00   0.14     0.07  -0.03   0.00     0.00   0.00   0.06
    16   1     0.03   0.02  -0.05     0.02   0.05  -0.01    -0.00  -0.06  -0.18
    17   1    -0.01   0.17   0.00     0.05  -0.17   0.01    -0.06   0.22  -0.13
    18   1     0.11   0.05   0.16    -0.07  -0.07  -0.14     0.05   0.11   0.05
    19   1     0.11   0.06   0.14    -0.10  -0.12  -0.39     0.01   0.06   0.11
    20   1     0.25  -0.01  -0.08    -0.37   0.05   0.00     0.08  -0.09   0.06
    21   1     0.00  -0.00  -0.08     0.12   0.04  -0.00    -0.00   0.00   0.02
    22   1    -0.25   0.01  -0.08    -0.37   0.05  -0.00    -0.08   0.09   0.06
    23   1    -0.11  -0.06   0.14    -0.10  -0.12   0.39    -0.01  -0.06   0.11
    24   1    -0.03  -0.02  -0.05     0.02   0.05   0.01     0.00   0.06  -0.18
    25   1     0.01  -0.17   0.00     0.05  -0.17  -0.01     0.06  -0.22  -0.13
    26   1    -0.11  -0.05   0.16    -0.07  -0.07   0.14    -0.05  -0.11   0.05
    27   1    -0.01   0.04   0.01    -0.00  -0.00  -0.13    -0.05  -0.09   0.02
    28   1     0.03   0.09   0.01    -0.02  -0.02  -0.12    -0.08  -0.13  -0.03
    29   1     0.07   0.07  -0.05    -0.08  -0.06  -0.01    -0.20  -0.14   0.16
    30   1     0.06  -0.09   0.09    -0.11   0.09   0.00    -0.11   0.18  -0.14
    31   1     0.00  -0.00   0.16    -0.07  -0.04   0.00     0.00   0.00  -0.25
    32   1    -0.06   0.09   0.09    -0.11   0.09  -0.00     0.11  -0.18  -0.14
    33   1     0.01  -0.04   0.01    -0.00  -0.00   0.13     0.05   0.09   0.02
    34   1    -0.07  -0.07  -0.05    -0.08  -0.06   0.01     0.20   0.14   0.16
    35   1    -0.03  -0.09   0.01    -0.02  -0.02   0.12     0.08   0.13  -0.03
    36   1     0.23   0.19   0.36     0.08  -0.04   0.00     0.04   0.14   0.15
    37   1    -0.23  -0.19   0.36     0.08  -0.04  -0.00    -0.04  -0.14   0.15
                     19                     20                     21
                      A                      A                      A
 Frequencies --    460.7075               481.6085               539.2006
 Red. masses --      2.5305                 3.3979                 2.4867
 Frc consts  --      0.3165                 0.4643                 0.4260
 IR Inten    --      0.1314                 7.1724                 0.1025
  Atom  AN      X      Y      Z        X      Y      Z        X      Y      Z
     1   8     0.02   0.02   0.00    -0.00  -0.00   0.23    -0.02  -0.03   0.00
     2   6     0.01   0.03  -0.00    -0.00  -0.00  -0.13    -0.07   0.02   0.00
     3   6    -0.03   0.00   0.04    -0.06  -0.03  -0.14    -0.02   0.02  -0.01
     4   6    -0.02   0.00   0.10    -0.08  -0.05   0.09     0.02   0.02  -0.02
     5   6     0.01   0.00   0.04     0.01  -0.05   0.00    -0.02   0.02   0.04
     6   6     0.01  -0.06   0.00    -0.00  -0.00   0.04    -0.05  -0.03  -0.00
     7   6     0.01   0.00  -0.04    -0.01   0.05   0.00    -0.02   0.02  -0.04
     8   6    -0.03   0.00  -0.04     0.06   0.03  -0.14    -0.02   0.02   0.01
     9   6    -0.02   0.00  -0.10     0.08   0.05   0.09     0.02   0.02   0.02
    10   6    -0.03  -0.10  -0.00    -0.00   0.00   0.12     0.10  -0.02   0.00
    11   6     0.01   0.13   0.00     0.00   0.00  -0.08     0.21  -0.03   0.00
    12   6     0.05  -0.02  -0.09     0.06   0.04  -0.07     0.01   0.07  -0.12
    13   6    -0.06   0.17   0.00     0.00  -0.00   0.03    -0.02  -0.13  -0.00
    14   6     0.05  -0.02   0.09    -0.06  -0.04  -0.07     0.01   0.07   0.12
    15   6    -0.02  -0.15  -0.00    -0.00  -0.00  -0.03    -0.02  -0.04   0.00
    16   1    -0.08  -0.01   0.00    -0.20  -0.10  -0.26     0.03  -0.00   0.01
    17   1    -0.05   0.20   0.01    -0.21  -0.08   0.17    -0.03   0.03  -0.00
    18   1     0.00   0.02   0.32    -0.09  -0.05   0.07    -0.02   0.01   0.03
    19   1     0.02   0.06   0.09     0.02   0.01   0.05    -0.02   0.05   0.14
    20   1     0.09   0.01  -0.00     0.06  -0.16   0.03     0.08   0.01  -0.00
    21   1     0.09  -0.05   0.00    -0.00  -0.00   0.07     0.01  -0.02  -0.00
    22   1     0.09   0.01   0.00    -0.06   0.16   0.03     0.08   0.01   0.00
    23   1     0.02   0.06  -0.09    -0.02  -0.01   0.05    -0.02   0.05  -0.14
    24   1    -0.08  -0.01  -0.00     0.20   0.10  -0.26     0.03  -0.00  -0.01
    25   1    -0.05   0.20  -0.01     0.21   0.08   0.17    -0.03   0.03   0.00
    26   1     0.00   0.02  -0.32     0.09   0.05   0.07    -0.02   0.01  -0.03
[...]
 252,-0.00007349,0.00028300,-0.00012356,0.00000659,-0.00007015,0.000260
 66,0.00055588,0.00047589,0.00008473,-0.00013814,-0.00028450,-0.0000039
 5,-0.00001655,-0.00003374,0.00002374,-0.00004421,0.00020444,0.00017930
 ,0.00028618,-0.00123143,-0.01216695,0.00100995,-0.01538625,0.00036611,
 0.00124246,0.00031414,-0.00210833,-0.00417395,0.00147454,-0.15102884,-
 0.00514453,-0.12842316,-0.00050827,-0.00127641,-0.00034413,0.00000697,
 -0.00000613,0.00003748,-0.00009814,0.00010989,-0.00016648,0.00032559,0
 .00000909,0.00002040,0.00008455,-0.00001833,0.00000948,0.00000669,0.00
 005785,0.00004177,-0.00002091,-0.00001618,0.00001646,-0.00000570,-0.00
 000429,0.00001492,0.00011649,0.00010007,0.00001206,0.00001117,0.000006
 07,0.00003803,-0.00000301,0.00000296,-0.00001977,0.00021355,0.00011790
 ,0.00001511,0.00067741,-0.00039820,0.00016477,0.00003342,-0.00008263,0
 .00012123,-0.00001898,0.00000154,0.00026856,-0.00049655,-0.00028277,-0
 .00146036,0.00028248,0.00004971,-0.00016636,0.00030706,0.00005340,0.00
 032636,0.16124121,0.00003033,0.00001057,0.00001242,-0.00002239,-0.0000
 2221,-0.00002723,-0.00000672,0.00007951,-0.00001382,0.00000091,0.00000
 651,-0.00000836,0.00004058,0.00007551,-0.00005051,0.00005551,0.0000093
 3,0.00017856,0.00001545,-0.00001283,-0.00005080,0.00004541,0.00001297,
 0.00000790,0.00004749,-0.00001693,-0.00011301,0.00050777,0.00069404,-0
 .00036072,-0.01440353,-0.00003030,-0.02209431,-0.00069849,0.00163560,-
 0.00097680,-0.00293453,-0.00481373,0.00091478,-0.00461835,-0.05078376,
 -0.00681275,-0.00014716,0.00020454,0.00035726,-0.00000149,0.00000020,0
 .00001958,-0.00004203,0.00002717,0.00015036,-0.00001108,-0.00011612,-0
 .00000509,0.00001606,-0.00003578,-0.00000407,-0.00000493,-0.00001949,-
 0.00000217,-0.00001031,0.00000838,0.00000169,-0.00000123,-0.00001045,0
 .00000677,0.00003023,0.00002156,0.00000821,0.00000130,0.00000135,0.000
 00017,-0.00000829,-0.00002398,0.00000093,0.00012732,0.00004368,-0.0000
 1120,0.00039834,-0.00042838,0.00043056,0.00002890,-0.00009972,-0.00004
 762,0.00013986,0.00029411,0.00027641,-0.00135222,0.00017040,-0.0014907
 1,0.00022605,-0.00012542,0.00023459,-0.00028457,0.00019578,0.00002839,
 0.00789116,0.05157211,-0.00004537,-0.00000218,-0.00000335,0.00005096,0
 .00000291,0.00002573,0.00000492,-0.00003858,-0.00002658,-0.00004103,-0
 .00007058,0.00001623,-0.00003511,0.00000335,-0.00001749,0.00022959,0.0
 0022511,0.00015663,0.00004149,0.00000588,-0.00008751,-0.00003443,-0.00
 007291,-0.00004188,-0.00018582,0.00014417,0.00010963,0.00000550,-0.000
 54486,-0.00025750,0.00157380,-0.00037963,0.00165212,-0.00000700,0.0002
 3585,0.00004793,-0.00000904,-0.00078464,0.00053923,-0.12918060,-0.0072
 7330,-0.20988228,0.00081938,0.00021730,-0.00173642,-0.00000806,0.00000
 311,0.00001669,-0.00003029,-0.00004538,0.00000721,0.00002380,0.0000012
 7,0.00001565,0.00001115,-0.00000219,0.00001683,0.00001170,0.00000673,-
 0.00000457,-0.00001766,-0.00000356,0.00005871,0.00000594,-0.00000711,-
 0.00000159,0.00003094,0.00002357,0.00001048,-0.00002201,-0.00000144,0.
 00004269,0.00001064,-0.00002448,-0.00000090,0.00003153,-0.00000413,0.0
 0000371,0.00016477,-0.00043054,0.00038701,-0.00013098,0.00000689,-0.00
 012242,0.00024018,-0.00012676,0.00015806,-0.00026386,0.00010854,0.0002
 3697,0.00002329,0.00020595,0.00056042,0.00009514,0.00014390,-0.0000647
 9,0.14144063,0.00682030,0.23106051,0.00002420,-0.00000850,-0.00000854,
 -0.00005482,0.00001502,0.00003687,-0.00010314,-0.00015924,0.00001348,-
 0.00104843,0.00023982,0.00122932,0.00005491,0.00005543,-0.00003243,0.0
 0002035,0.00003503,0.00007653,0.00002154,-0.00001819,-0.00002323,0.000
 03032,0.00008203,0.00001338,0.00005409,-0.00002610,-0.00026341,0.00068
 466,0.00063564,0.00012803,0.01198345,-0.01636167,-0.00031675,-0.002184
 57,-0.00280310,0.00015733,0.00121296,-0.00022089,0.00047301,-0.1237587
 4,0.11890907,-0.00561111,0.00006286,0.00003066,-0.00002522,0.00003061,
 -0.00000290,-0.00001989,-0.00185626,-0.00053065,0.00149353,-0.00010585
 ,0.00003612,-0.00005490,-0.00000557,-0.00001764,-0.00002126,-0.0000146
 0,-0.00001594,-0.00000123,-0.00000527,0.00000240,-0.00000440,-0.000004
 40,-0.00000357,0.00000274,0.00001078,0.00001089,-0.00000992,0.00001946
 ,-0.00000290,-0.00002635,0.00002294,0.00006775,-0.00003270,-0.00000029
 ,-0.00000615,0.00000797,-0.00001897,-0.00013986,0.00024019,-0.00000342
 ,-0.00012933,-0.00033259,0.00092458,-0.00112057,-0.00006186,0.00015368
 ,0.00013862,0.00024081,-0.00008965,0.00006539,-0.00009425,-0.00001377,
 0.00013898,-0.00008979,-0.01078252,0.01651448,0.00127472,0.13485314,0.
 00013583,0.00024352,0.00005124,-0.00001484,-0.00061444,-0.00023856,0.0
 0012779,0.00088104,0.00004506,0.00012921,-0.00076350,-0.00065987,0.000
 04927,-0.00008307,0.00006785,0.00007223,-0.00002699,-0.00001773,0.0000
 0550,-0.00000360,0.00004285,-0.00009830,0.00009638,0.00005583,-0.00005
 579,0.00011908,0.00005626,0.00102941,-0.00019820,-0.00074924,0.0152281
 4,-0.02077402,0.00030600,-0.00530318,-0.00406873,0.00012226,0.00146643
 ,0.00072291,0.00086061,0.11789937,-0.23820791,0.00650212,-0.00021263,-
 0.00005802,0.00020566,-0.00003739,-0.00000533,0.00002940,0.00056326,0.
 00156049,0.00023094,-0.00010489,0.00001579,0.00003193,-0.00003593,0.00
 003651,-0.00005466,-0.00000047,0.00003430,0.00002469,-0.00003188,0.000
 02273,0.00002072,-0.00001171,0.00003629,-0.00001743,-0.00000728,-0.000
 00949,0.00001331,-0.00002356,0.00001826,0.00002584,0.00005360,0.000210
 66,-0.00009698,0.00000085,-0.00001832,-0.00001757,-0.00000156,0.000294
 13,0.00012675,-0.00014511,0.00040448,-0.00005067,0.00112064,-0.0016944
 4,-0.00004119,-0.00022655,0.00037653,0.00012119,-0.00007270,-0.0000724
 1,-0.00003079,-0.00087681,0.00044157,-0.00062736,-0.00110707,0.0022221
 5,0.00042035,-0.13018093,0.25944112,-0.00014729,-0.00010633,-0.0000300
 1,0.00013094,0.00028222,0.00010033,-0.00013770,-0.00031467,-0.00007086
 ,0.00108732,0.00077343,-0.00020181,0.00003527,0.00009068,-0.00004793,-
 0.00000934,0.00001525,0.00000725,0.00000722,0.00000258,-0.00003226,-0.
 00001186,-0.00002030,-0.00002841,0.00017588,-0.00009419,0.00003654,-0.
 00051155,0.00032874,0.00015354,-0.00114881,0.00154023,-0.00165703,0.00
 032749,-0.00004797,-0.00008763,0.00052360,-0.00075506,0.00011520,-0.00
 534296,0.00636700,-0.04962037,0.00017307,0.00000278,-0.00020445,-0.000
 00181,0.00001320,0.00001970,0.00144624,-0.00024228,-0.00087369,-0.0001
 8080,-0.00014610,0.00000338,-0.00000214,-0.00003217,0.00002534,-0.0000
 0367,-0.00004073,-0.00003788,0.00001226,-0.00000806,0.00000497,0.00000
 560,-0.00001601,0.00000184,-0.00000180,0.00000803,-0.00000145,-0.00000
 483,-0.00001934,0.00000623,-0.00003105,-0.00009695,0.00000441,-0.00002
 691,-0.00000356,-0.00000688,0.00026858,-0.00027638,0.00015805,-0.00036
 043,0.00020714,0.00031643,-0.00006187,0.00004121,0.00070216,0.00003750
 ,0.00019980,-0.00009304,0.00013347,-0.00013273,-0.00002642,-0.00030989
 ,-0.00006600,0.00021029,-0.01391056,0.02351616,0.00030073,0.00315390,-
 0.00627383,0.04892095,-0.00019191,-0.00001333,-0.00004245,0.00020418,0
 .00003731,0.00009310,-0.00008215,-0.00015595,-0.00009390,0.00038697,-0
 .00014144,0.00020067,-0.00003521,-0.00000391,-0.00007462,0.00016455,0.
 00020382,0.00015047,0.00002261,-0.00000331,-0.00016815,-0.00021735,-0.
 00042848,-0.00019442,-0.00035086,0.00045118,0.00127971,-0.00153115,-0.
 00325321,-0.00171470,-0.01271294,0.00051018,0.01669353,0.00040263,0.00
 144346,-0.00001884,-0.00006067,0.00060139,0.00152890,-0.12809777,0.007
 22072,0.12003315,-0.00017411,-0.00028784,-0.00070140,-0.00002607,0.000
 01912,0.00005335,-0.00006679,-0.00028851,-0.00013848,-0.00009214,-0.00
 000549,-0.00003504,0.00001195,-0.00001130,0.00003195,0.00001025,0.0000
 1126,-0.00000313,-0.00001336,-0.00000430,0.00006355,0.00001477,-0.0000
 1540,0.00000477,0.00003048,0.00003117,0.00002787,-0.00009887,0.0000029
 7,0.00016799,0.00003465,-0.00011305,0.00000630,-0.00005953,0.00003198,
 -0.00005645,0.00003342,-0.00002893,-0.00013098,0.00075522,-0.00022313,
 -0.00031042,-0.00000342,0.00014511,-0.00036045,0.00043374,0.00017275,-
 0.00029495,-0.00006401,-0.00050825,-0.00105646,-0.00012921,-0.00003443
 ,0.00000502,0.01303219,-0.00122360,-0.01768948,-0.01003570,0.00063939,
 0.01492396,0.13824434,-0.00000247,0.00015691,0.00000884,0.00010098,-0.
 00040707,-0.00012303,0.00007252,0.00043676,0.00002256,0.00015800,-0.00
 083388,-0.00040834,0.00000764,-0.00006941,-0.00000864,0.00010903,0.000
 00451,0.00001736,-0.00002666,0.00000817,-0.00007339,-0.00033865,-0.000
 42899,-0.00007222,-0.00079969,0.00061205,0.00149618,-0.00208974,-0.004
 60264,-0.00127366,-0.01540550,-0.00072594,0.02250118,-0.00102719,0.000
 77760,0.00139759,0.00034132,0.00063018,0.00102474,0.00799136,-0.047885
 52,-0.01056135,-0.00035505,-0.00010750,-0.00038717,-0.00002936,0.00000
 699,0.00002941,0.00020133,0.00065053,0.00014492,-0.00000339,0.00008915
 ,0.00002517,-0.00000561,0.00001661,-0.00001469,0.00000720,0.00003178,0
 .00002376,-0.00001869,0.00001774,0.00004039,0.00000906,0.00000037,0.00
 000021,0.00001569,0.00000500,0.00002298,-0.00012381,0.00001697,0.00018
 574,0.00007256,0.00000373,0.00002656,-0.00002123,0.00002120,-0.0000511
 1,0.00008266,-0.00009972,-0.00000688,0.00022310,-0.00072818,-0.0004479
 5,0.00012931,0.00040449,-0.00020713,0.00037472,-0.00001009,0.00013552,
 -0.00009396,0.00013633,-0.00057013,0.00007452,-0.00001325,-0.00019040,
 0.00057618,-0.00081975,-0.00014003,0.01476716,-0.00067548,-0.02457977,
 -0.00515658,0.05328216,0.00015237,0.00001273,0.00000698,-0.00019618,-0
 .00004684,-0.00000048,0.00002157,0.00000265,0.00000442,-0.00028263,0.0
 0003648,0.00011098,-0.00003565,0.00002725,-0.00001125,0.00003646,0.000
 24768,0.00019901,0.00006448,-0.00008693,-0.00009180,0.00001725,0.00009
 231,0.00005264,-0.00007025,-0.00031971,-0.00000920,-0.00046968,0.00043
 691,0.00068262,0.00071691,-0.00011992,-0.00249519,-0.00010182,-0.00068
 106,-0.00018306,-0.00112774,-0.00078090,0.00042867,0.12081199,-0.00945
 961,-0.22970010,0.00000981,-0.00056519,-0.00009416,0.00003346,-0.00001
 151,-0.00002253,-0.00005163,0.00006552,-0.00002997,0.00010278,0.000007
 94,0.00003024,0.00004010,-0.00000711,-0.00002011,-0.00000746,0.0000214
 0,0.00002402,0.00000583,-0.00000871,-0.00004326,-0.00001141,0.00000742
 ,0.00001004,0.00005789,0.00004374,-0.00001334,0.00003600,0.00000187,-0
 .00002897,-0.00001522,0.00008842,-0.00002859,0.00009766,0.00006805,0.0
 0004766,0.00012123,0.00004764,-0.00012247,-0.00031041,0.00044796,0.000
 59491,-0.00033261,0.00005065,0.00031642,-0.00012938,0.00014699,0.00028
 729,-0.00021316,-0.00025524,0.00052785,-0.00002673,0.00006556,-0.00004
 433,0.01473800,-0.00173780,-0.02113905,-0.00157101,-0.00038106,0.00177
 186,-0.13239415,0.01195497,0.24873433,-0.00002677,-0.00037879,-0.00000
 851,0.00022651,0.00097080,0.00002173,0.00044385,-0.00041539,-0.0000583
 0,-0.00129386,-0.00152888,-0.00370965,-0.00113489,-0.00160119,0.003911
 53,-0.01270740,0.01611028,0.00040247,0.00026981,0.00143333,-0.00081797
 ,-0.00010947,-0.00046474,-0.00000902,0.00035692,0.00142088,0.00058938,
 -0.01155563,0.01479665,-0.00099128,-0.00022848,0.00013244,0.00067429,-
 0.00050554,0.00022538,0.00107388,0.00003839,0.00003674,0.00001673,0.00
 000081,-0.00000978,-0.00006010,-0.13810473,0.11970367,-0.00468919,-0.0
 0000078,-0.00002210,0.00002976,0.00008919,0.00024296,0.00004082,-0.000
 61663,0.00112239,0.00003780,-0.00060333,0.00108736,-0.00003928,0.00012
 603,0.00023343,-0.00002444,0.00091698,-0.00036128,-0.00005784,-0.00006
 719,-0.00099188,0.00020783,0.00045293,-0.00019111,0.00001856,-0.000055
 85,-0.00004207,0.00001142,-0.00004464,-0.00086375,-0.00017757,0.000343
 62,-0.00022078,-0.00000155,0.00031059,0.00033646,0.00171109,0.00021434
 ,-0.00014980,0.00028874,-0.00003007,-0.00008090,-0.00020145,-0.0000255
 8,-0.00001024,-0.00000661,0.00004117,-0.00004148,-0.00007177,0.0000187
 8,-0.00005590,0.00008212,0.00005980,-0.00000981,-0.00010035,-0.0000485
 2,-0.00005319,-0.00003564,0.00004693,0.00003342,-0.00000539,0.15034036
 ,0.00018688,0.00015689,-0.00000208,-0.00026720,-0.00039466,0.00001115,
 -0.00013253,0.00009837,0.00002923,-0.00013800,0.00108669,0.00067249,-0
 .00041572,0.00102900,-0.00067733,-0.00068398,-0.00065474,-0.00031781,-
 0.00069365,0.00062605,0.00037612,0.00011196,0.00003519,-0.00000842,-0.
 00065669,0.00051357,-0.00013013,-0.00063726,-0.00063779,0.00083676,0.0
 0102534,-0.00038155,-0.00021380,0.00151801,-0.00008026,-0.00048395,-0.
 00025764,0.00008946,0.00017238,-0.00013932,0.00009294,0.00026907,0.120
 11095,-0.21856270,0.00509873,0.00004377,-0.00003814,-0.00001604,-0.000
 14682,0.00037760,-0.00014141,0.00037099,0.00010966,-0.00009532,0.00036
 807,0.00011617,0.00009602,-0.00012196,0.00044229,0.00012314,-0.0000376
 4,0.00010625,-0.00054859,0.00019254,0.00054748,0.00006254,-0.00004242,
 0.00021114,-0.00011359,0.00000608,0.00001951,0.00000184,0.00013359,0.0
 0051004,-0.00007476,0.00003460,0.00018593,0.00009885,-0.00056842,0.000
 25764,-0.00144154,-0.00040714,0.00008856,-0.00044698,-0.00006883,-0.00
 006312,-0.00007829,0.00001773,-0.00000334,-0.00001494,-0.00000352,-0.0
 0000490,0.00012602,-0.00006674,0.00005555,-0.00009495,0.00011466,-0.00
 018436,-0.00006447,-0.00006519,0.00015914,-0.00019438,-0.00002850,0.00
 000958,0.00014049,-0.13452449,0.23545425,-0.00004281,0.00001065,-0.000
 01890,0.00006389,-0.00003603,-0.00006288,0.00007546,-0.00006130,-0.000
 45501,-0.00303471,-0.00112611,-0.00538059,0.00324614,0.00127647,-0.004
 90859,0.01752899,-0.02327943,-0.00038315,-0.00057622,-0.00098313,0.001
 01855,-0.00002170,0.00000776,-0.00024417,0.00075105,0.00099046,0.00099
 251,-0.01624944,0.02307640,-0.00026967,-0.00032019,0.00074675,0.001190
 17,0.00004873,-0.00033293,-0.00154746,-0.00001320,-0.00020597,0.000062
 16,0.00016129,-0.00002784,-0.00018826,-0.00439133,0.00433517,-0.046834
 10,0.00001637,0.00000091,0.00027921,0.00022330,-0.00019679,0.00000948,
 -0.00148526,0.00151124,0.00012775,0.00138191,-0.00139440,0.00006555,-0
 .00024538,0.00030788,-0.00002323,-0.00076446,-0.00025091,0.00097156,-0
 .00008125,0.00067358,0.00009119,-0.00043836,-0.00005414,-0.00006477,-0
 .00000946,-0.00000147,0.00007958,0.00001012,-0.00067333,0.00013717,0.0
 0033673,-0.00003188,-0.00006549,0.00143468,-0.00071868,-0.00206960,0.0
 0013953,-0.00002527,0.00028126,0.00008841,-0.00007704,0.00004006,-0.00
 001160,0.00001683,0.00000359,0.00007276,-0.00002859,-0.00002376,0.0000
 9383,-0.00009309,0.00018887,0.00001910,0.00012317,0.00003269,-0.000029
 36,-0.00018093,0.00012083,0.00007466,0.00003255,-0.00003335,0.00157591
 ,-0.00314329,0.05720001,-0.00002677,0.00037879,-0.00000851,0.00022651,
 -0.00097080,0.00002173,-0.00010947,0.00046474,-0.00000902,0.00035691,-
 0.00142089,0.00058938,0.00026982,-0.00143333,-0.00081797,-0.01270747,-
 0.01611029,0.00040247,-0.00113490,0.00160121,0.00391155,0.00044385,0.0
 0041539,-0.00005830,-0.00129386,0.00152889,-0.00370965,-0.01155566,-0.
 01479659,-0.00099123,-0.00022846,-0.00013246,0.00067430,0.00000087,0.0
 0000978,-0.00006012,0.00003840,-0.00003673,0.00001672,-0.00050553,-0.0
 0022540,0.00107375,-0.13810523,-0.11970308,-0.00468910,-0.00005585,0.0
 0004207,0.00001142,-0.00004464,0.00086375,-0.00017757,0.00034362,0.000
 22078,-0.00000155,0.00045292,0.00019111,0.00001856,-0.00006719,0.00099
 187,0.00020783,0.00091699,0.00036129,-0.00005784,0.00012603,-0.0002334
 3,-0.00002444,-0.00060334,-0.00108736,-0.00003928,-0.00000078,0.000022
 10,0.00002976,0.00008919,-0.00024296,0.00004082,-0.00061663,-0.0011223
 9,0.00003780,0.00005979,0.00000980,-0.00010037,0.00004692,-0.00003342,
 -0.00000540,-0.00004853,0.00005319,-0.00003564,0.00001878,0.00005591,0
 .00008212,0.00004117,0.00004148,-0.00007177,-0.00002559,0.00001023,-0.
 00000661,0.00031069,-0.00033642,0.00171101,-0.00003005,0.00008087,-0.0
 0020140,0.00021434,0.00014980,0.00028873,0.01286237,0.01586849,0.00037
 186,0.15034078,-0.00018688,0.00015689,0.00000208,0.00026720,-0.0003946
 6,-0.00001115,-0.00011195,0.00003518,0.00000842,0.00065669,0.00051357,
 0.00013012,0.00069363,0.00062605,-0.00037610,0.00068400,-0.00065470,0.
 00031781,0.00041571,0.00102900,0.00067734,0.00013253,0.00009837,-0.000
 02923,0.00013801,0.00108670,-0.00067249,0.00063728,-0.00063777,-0.0008
 3678,-0.00102534,-0.00038155,0.00021381,0.00013924,0.00009293,-0.00026
 910,0.00025763,0.00008945,-0.00017238,-0.00151789,-0.00008039,0.000483
 91,-0.12011038,-0.21856069,-0.00509867,-0.00000607,0.00001951,-0.00000
 184,-0.00013359,0.00051004,0.00007476,-0.00003460,0.00018593,-0.000098
 85,0.00004242,0.00021114,0.00011359,-0.00019255,0.00054747,-0.00006254
 ,0.00003764,0.00010625,0.00054859,0.00012195,0.00044230,-0.00012314,-0
 .00036808,0.00011618,-0.00009602,-0.00004377,-0.00003814,0.00001604,0.
 00014682,0.00037760,0.00014141,-0.00037099,0.00010966,0.00009532,-0.00
 011462,-0.00018438,0.00006450,0.00002852,0.00000959,-0.00014048,0.0000
 6520,0.00015916,0.00019439,0.00006673,0.00005555,0.00009494,0.00000352
 ,-0.00000490,-0.00012602,-0.00001772,-0.00000334,0.00001495,0.00056838
 ,0.00025773,0.00144157,0.00006885,-0.00006311,0.00007833,0.00040711,0.
 00008858,0.00044693,-0.01586866,-0.02137339,-0.00018724,0.13452403,0.2
 3545220,-0.00004281,-0.00001065,-0.00001890,0.00006389,0.00003603,-0.0
 0006288,-0.00002171,-0.00000776,-0.00024417,0.00075105,-0.00099047,0.0
 0099251,-0.00057623,0.00098313,0.00101854,0.01752907,0.02327938,-0.000
 38315,0.00324615,-0.00127648,-0.00490859,0.00007546,0.00006130,-0.0004
 5501,-0.00303471,0.00112613,-0.00538059,-0.01624951,-0.02307633,-0.000
 26959,-0.00032017,-0.00074673,0.00119015,0.00016127,0.00002784,-0.0001
 8824,-0.00001320,0.00020597,0.00006216,0.00004864,0.00033294,-0.001547
 45,-0.00439130,-0.00433521,-0.04683425,-0.00000946,0.00000147,0.000079
 58,0.00001013,0.00067333,0.00013718,0.00033672,0.00003188,-0.00006549,
 -0.00043836,0.00005414,-0.00006477,-0.00008125,-0.00067358,0.00009119,
 -0.00076445,0.00025092,0.00097156,-0.00024538,-0.00030788,-0.00002323,
 0.00138191,0.00139440,0.00006555,0.00001637,-0.00000091,0.00027921,0.0
 0022330,0.00019678,0.00000948,-0.00148526,-0.00151124,0.00012775,0.000
 01911,-0.00012318,0.00003270,0.00007467,-0.00003255,-0.00003334,-0.000
 02936,0.00018094,0.00012083,0.00009382,0.00009310,0.00018886,0.0000727
 6,0.00002859,-0.00002376,-0.00001159,-0.00001684,0.00000359,0.00143464
 ,0.00071877,-0.00206955,0.00008842,0.00007702,0.00004008,0.00013954,0.
 00002527,0.00028128,0.00037186,0.00018723,-0.00031923,0.00157597,0.003
 14322,0.05719997\\0.00008655,0.,0.00001040,-0.00005994,0.,-0.00000121,
 -0.00000814,-0.00002204,-0.00000901,-0.00001284,-0.00000171,0.00002993
 ,0.00000846,-0.00002031,-0.00000965,0.00003248,-0.00000030,0.00004384,
 0.00000805,0.00002006,-0.00000944,-0.00000878,0.00002127,-0.00000895,-
 0.00001305,0.00000198,0.00002967,0.00001011,0.00000038,0.00000881,0.00
 001353,-0.00000019,-0.00006154,-0.00003100,0.00002496,0.00003183,-0.00
 002664,-0.00000056,0.00002272,-0.00003218,-0.00002419,0.00003223,0.000
 03526,0.00000043,-0.00012061,-0.00001603,0.00000252,0.00000173,-0.0000
 0128,0.00000153,-0.00001841,-0.00000530,0.00000696,-0.00001510,-0.0000
 0945,0.00000509,0.00000200,0.00000267,0.00001260,0.00000695,0.00000093
 ,0.00000011,0.00000048,0.00000269,-0.00001238,0.00000699,-0.00000923,-
 0.00000507,0.00000174,-0.00001552,-0.00000181,0.00000178,-0.00000126,-
 0.00000175,-0.00001844,-0.00000523,-0.00000706,-0.00001488,0.00000794,
 -0.00001164,0.00003793,0.00000520,0.00000571,-0.00000552,-0.00000489,-
 0.00000544,0.00000692,0.00000071,0.00000279,-0.00000387,0.00000566,0.0
 0000009,-0.00000464,0.00000041,-0.00000236,-0.00000393,0.00000828,0.00
 001160,0.00003825,-0.00000460,0.00000485,0.00000685,0.00000552,-0.0000
 0579,-0.00000597,0.00001553,-0.00000761,-0.00000487,0.00001536,0.00000
 728,-0.00000502\\\@


 BE LIKE A POSTAGE STAMP.  STICK TO ONE THING UNTIL
 YOU GET THERE -- JOSH BILLINGS
 Job cpu time:       0 days  0 hours  5 minutes 45.5 seconds.
 Elapsed time:       0 days  0 hours  6 minutes 27.8 seconds.
 File lengths (MBytes):  RWF=    314 Int=      0 D2E=      0 Chk=      6 Scr=      1
 Normal termination of Gaussian 16 at Sat Feb 24 18:24:19 2024.
