 Entering Gaussian System, Link 0=g16
 Input=/Volumes/SSD-PMU3/b3lyp_6-31gd_freq/RGHCXQPNVVXRSE-HLTSFMKQSA-N_calculating/gaussianinput0.gjf
 Output=/Volumes/SSD-PMU3/b3lyp_6-31gd_freq/RGHCXQPNVVXRSE-HLTSFMKQSA-N_calculating/gaussianinput0.log
 Initial command:
 /Applications/g16/l1.exe "/Users/macmini_m1_2022/PycharmProjects/sphere_model/sphere_model_lib/Gau-93774.inp" -scrdir="/Users/macmini_m1_2022/PycharmProjects/sphere_model/sphere_model_lib/"
 Entering Link 1 = /Applications/g16/l1.exe PID=     93775.
  
 Copyright (c) 1988,1990,1992,1993,1995,1998,2003,2009,2016,
            Gaussian, Inc.  All Rights Reserved.
  
 This is part of the Gaussian(R) 16 program.  It is based on
 the Gaussian(R) 09 system (copyright 2009, Gaussian, Inc.),
 the Gaussian(R) 03 system (copyright 2003, Gaussian, Inc.),
 the Gaussian(R) 98 system (copyright 1998, Gaussian, Inc.),
 the Gaussian(R) 94 system (copyright 1995, Gaussian, Inc.),
 the Gaussian 92(TM) system (copyright 1992, Gaussian, Inc.),
 the Gaussian 90(TM) system (copyright 1990, Gaussian, Inc.),
 the Gaussian 88(TM) system (copyright 1988, Gaussian, Inc.),
 the Gaussian 86(TM) system (copyright 1986, Carnegie Mellon
 University), and the Gaussian 82(TM) system (copyright 1983,
 Carnegie Mellon University). Gaussian is a federally registered
 trademark of Gaussian, Inc.
  
 This software contains proprietary and confidential information,
 including trade secrets, belonging to Gaussian, Inc.
  
 This software is provided under written license and may be
 used, copied, transmitted, or stored only in accord with that
 written license.
  
 The following legend is applicable only to US Government
 contracts under FAR:
  
                    RESTRICTED RIGHTS LEGEND
  
 Use, reproduction and disclosure by the US Government is
 subject to restrictions as set forth in subparagraphs (a)
 and (c) of the Commercial Computer Software - Restricted
 Rights clause in FAR 52.227-19.
  
 Gaussian, Inc.
 340 Quinnipiac St., Bldg. 40, Wallingford CT 06492
  
  
 ---------------------------------------------------------------
 Warning -- This program may not be used in any manner that
 competes with the business of Gaussian, Inc. or will provide
 assistance to any competitor of Gaussian, Inc.  The licensee
 of this program is prohibited from giving any competitor of
 Gaussian, Inc. access to this program.  By using this program,
 the user acknowledges that Gaussian, Inc. is engaged in the
 business of creating and licensing software in the field of
 computational chemistry and represents and warrants to the
 licensee that it is not a competitor of Gaussian, Inc. and that
 it will not use this program in any manner prohibited above.
 ---------------------------------------------------------------
  

 Cite this work as:
 Gaussian 16, Revision A.03,
 M. J. Frisch, G. W. Trucks, H. B. Schlegel, G. E. Scuseria, 
 M. A. Robb, J. R. Cheeseman, G. Scalmani, V. Barone, 
 G. A. Petersson, H. Nakatsuji, X. Li, M. Caricato, A. V. Marenich, 
 J. Bloino, B. G. Janesko, R. Gomperts, B. Mennucci, H. P. Hratchian, 
 J. V. Ortiz, A. F. Izmaylov, J. L. Sonnenberg, D. Williams-Young, 
 F. Ding, F. Lipparini, F. Egidi, J. Goings, B. Peng, A. Petrone, 
 T. Henderson, D. Ranasinghe, V. G. Zakrzewski, J. Gao, N. Rega, 
 G. Zheng, W. Liang, M. Hada, M. Ehara, K. Toyota, R. Fukuda, 
 J. Hasegawa, M. Ishida, T. Nakajima, Y. Honda, O. Kitao, H. Nakai, 
 T. Vreven, K. Throssell, J. A. Montgomery, Jr., J. E. Peralta, 
 F. Ogliaro, M. J. Bearpark, J. J. Heyd, E. N. Brothers, K. N. Kudin, 
 V. N. Staroverov, T. A. Keith, R. Kobayashi, J. Normand, 
 K. Raghavachari, A. P. Rendell, J. C. Burant, S. S. Iyengar, 
 J. Tomasi, M. Cossi, J. M. Millam, M. Klene, C. Adamo, R. Cammi, 
 J. W. Ochterski, R. L. Martin, K. Morokuma, O. Farkas, 
 J. B. Foresman, and D. J. Fox, Gaussian, Inc., Wallingford CT, 2016.
 
 ******************************************
 Gaussian 16:  EM64M-G16RevA.03 25-Dec-2016
                24-Feb-2024 
 ******************************************
 %nprocshared=10
 Will use up to   10 processors via shared memory.
 %mem=12GB
 %chk= 0.chk
 ---------------------
 # freq b3lyp/6-31g(d)
 ---------------------
 1/10=4,30=1,38=1/1,3;
 2/12=2,17=6,18=5,40=1/2;
 3/5=1,6=6,7=1,11=2,25=1,30=1,71=2,74=-5,140=1/1,2,3;
 4//1;
 5/5=2,38=5,98=1/2;
 8/6=4,10=90,11=11/1;
 11/6=1,8=1,9=11,15=111,16=1/1,2,10;
 10/6=1/2;
 6/7=2,8=2,9=2,10=2,28=1/1;
 7/8=1,10=1,25=1/1,2,3,16;
 1/10=4,30=1/3;
 99//99;
 ---------
 good luck
 ---------
 Symbolic Z-matrix:
 Charge =  0 Multiplicity = 1
 O                     1.21773   0.        0. 
 C                     0.        0.        0. 
 C                    -0.8091   -1.29116   0.00377 
 C                    -1.86301  -1.28816   1.12809 
 C                    -2.73904  -0.028     1.07854 
 O                    -3.49839   0.02729  -0.13513 
 C                    -1.88259   1.2457    1.14592 
 C                    -2.72805   2.53146   1.14588 
 C                    -1.8537    3.79203   1.21604 
 C                    -0.81644   3.81976   0.08369 
 C                     0.04153   2.54702   0.07642 
 C                    -0.82608   1.28406   0.00377 
 H                    -0.12157  -2.13716   0.09024 
 H                    -1.32766  -1.36598  -0.9616 
 H                    -1.36749  -1.33706   2.10701 
 H                    -2.4925   -2.18626   1.05539 
 H                    -3.42391  -0.03067   1.94285 
 H                    -4.08175  -0.74706  -0.1549 
 H                    -1.33645   1.19954   2.10205 
 H                    -3.33835   2.55027   0.23444 
 H                    -3.42806   2.50739   1.99248 
 H                    -1.33207   3.82058   2.18441 
 H                    -2.48602   4.68809   1.17664 
 H                    -0.17393   4.70422   0.17894 
 H                    -1.3373    3.91489  -0.88068 
 H                     0.7472    2.55599  -0.76136 
 H                     0.6553    2.50539   0.98657 
 H                    -1.39374   1.28612  -0.94066 
 

 GradGradGradGradGradGradGradGradGradGradGradGradGradGradGradGradGradGrad
 Berny optimization.
 Initialization pass.
 Trust Radius=3.00D-01 FncErr=1.00D-07 GrdErr=1.00D-07 EigMax=2.50D+02 EigMin=1.00D-04
 Number of steps in this run=      2 maximum allowed number of steps=      2.
 GradGradGradGradGradGradGradGradGradGradGradGradGradGradGradGradGradGrad

                          Input orientation:                          
 ---------------------------------------------------------------------
 Center     Atomic      Atomic             Coordinates (Angstroms)
 Number     Number       Type             X           Y           Z
 ---------------------------------------------------------------------
      1          8           0        1.217728    0.000000    0.000000
      2          6           0        0.000000    0.000000    0.000000
      3          6           0       -0.809098   -1.291163    0.003774
      4          6           0       -1.863012   -1.288162    1.128091
      5          6           0       -2.739044   -0.027998    1.078535
      6          8           0       -3.498394    0.027288   -0.135131
      7          6           0       -1.882586    1.245703    1.145922
      8          6           0       -2.728049    2.531458    1.145879
      9          6           0       -1.853700    3.792026    1.216036
     10          6           0       -0.816437    3.819758    0.083686
     11          6           0        0.041530    2.547024    0.076421
     12          6           0       -0.826077    1.284055    0.003774
     13          1           0       -0.121568   -2.137159    0.090239
     14          1           0       -1.327658   -1.365983   -0.961595
     15          1           0       -1.367487   -1.337055    2.107009
     16          1           0       -2.492496   -2.186259    1.055386
     17          1           0       -3.423908   -0.030665    1.942853
     18          1           0       -4.081750   -0.747061   -0.154898
     19          1           0       -1.336453    1.199542    2.102053
     20          1           0       -3.338346    2.550270    0.234442
     21          1           0       -3.428063    2.507391    1.992475
     22          1           0       -1.332074    3.820577    2.184408
     23          1           0       -2.486022    4.688092    1.176644
     24          1           0       -0.173932    4.704215    0.178944
     25          1           0       -1.337296    3.914890   -0.880680
     26          1           0        0.747201    2.555991   -0.761360
     27          1           0        0.655303    2.505392    0.986567
     28          1           0       -1.393737    1.286116   -0.940663
 ---------------------------------------------------------------------
                    Distance matrix (angstroms):
                    1          2          3          4          5
     1  O    0.000000
     2  C    1.217728   0.000000
     3  C    2.403152   1.523731   0.000000
     4  C    3.524615   2.530368   1.541049   0.000000
     5  C    4.101227   2.943872   2.544678   1.535546   0.000000
     6  O    4.718136   3.501109   2.998320   2.449615   1.432709
     7  C    3.532260   2.531609   2.982041   2.534003   1.536351
     8  C    4.826021   3.894043   4.427099   3.916389   2.560365
     9  C    5.029103   4.392540   5.329126   5.080958   3.923688
    10  C    4.328439   3.906933   5.111551   5.317607   4.414903
    11  C    2.806530   2.548509   3.931987   4.409302   3.920021
    12  C    2.413701   1.526832   2.575274   2.992595   2.556567
    13  H    2.523748   2.142515   1.093564   2.197853   3.503779
    14  H    3.044596   2.133835   1.098381   2.158575   2.818571
    15  H    3.593124   2.845562   2.176580   1.098279   2.156979
    16  H    4.433884   3.479383   2.177364   1.099143   2.172421
    17  H    5.031938   3.936847   3.490861   2.163685   1.102765
    18  H    5.354116   4.152442   3.321366   2.619475   1.959915
    19  H    3.518717   2.764712   3.299165   2.722965   2.126430
    20  H    5.226533   4.207540   4.605096   4.208180   2.778331
    21  H    5.642725   4.691331   5.024233   4.195565   2.781768
    22  H    5.086250   4.598137   5.581985   5.243750   4.244296
    23  H    6.089373   5.435348   6.319746   6.008836   4.723891
    24  H    4.909010   4.710829   6.031474   6.297813   5.457371
    25  H    4.757111   4.229695   5.306999   5.602079   4.620583
    26  H    2.708164   2.769669   4.219963   5.016049   4.713398
    27  H    2.750750   2.771232   4.186189   4.555545   4.236522
    28  H    3.059198   2.116942   2.806445   3.335696   2.759331
                    6          7          8          9         10
     6  O    0.000000
     7  C    2.395092   0.000000
     8  C    2.916382   1.538822   0.000000
     9  C    4.324803   2.547452   1.535721   0.000000
    10  C    4.650119   2.981741   2.538155   1.535871   0.000000
    11  C    4.350274   2.557243   2.968931   2.537843   1.534931
    12  C    2.956355   1.556337   2.545175   2.969092   2.536980
    13  H    4.017285   3.957197   5.450147   6.278769   5.997312
    14  H    2.708568   3.401540   4.646783   5.623509   5.314684
    15  H    3.380738   2.803507   4.211923   5.228547   5.566885
    16  H    2.707204   3.486911   4.724461   6.014463   6.310754
    17  H    2.080126   2.154040   2.771978   4.196044   5.008110
    18  H    0.969697   3.240303   3.777991   5.238986   5.619166
    19  H    3.324629   1.102079   2.150537   2.788108   3.348097
    20  H    2.554924   2.156833   1.097057   2.170175   2.827429
    21  H    3.268419   2.167258   1.098783   2.175262   3.490899
    22  H    4.945932   2.830458   2.165437   1.100297   2.163080
    23  H    4.946589   3.495014   2.170390   1.097414   2.176253
    24  H    5.746681   3.976915   3.489893   2.174688   1.097338
    25  H    4.509949   3.395440   2.820464   2.162865   1.100157
    26  H    4.981122   3.502907   3.964281   3.493217   2.180865
    27  H    4.965119   2.837797   3.387201   2.828989   2.169970
    28  H    2.581300   2.143465   2.772169   3.338039   2.793190
                   11         12         13         14         15
    11  C    0.000000
    12  C    1.533985   0.000000
    13  H    4.687042   3.494068   0.000000
    14  H    4.273614   2.864650   1.776435   0.000000
    15  H    4.603769   3.403959   2.501968   3.068999   0.000000
    16  H    5.457438   3.990729   2.560316   2.469395   1.758608
    17  H    4.705030   3.498177   4.333006   3.822716   2.441817
    18  H    5.282608   3.840575   4.204225   2.935787   3.582114
    19  H    2.796020   2.161111   4.081288   3.995990   2.536792
    20  H    3.383570   2.822765   5.686866   4.561843   4.743637
    21  H    3.963699   3.495971   6.010263   5.304833   4.363354
    22  H    2.819988   3.383067   6.430046   6.066116   5.158334
    23  H    3.490442   3.964658   7.304449   6.524239   6.198314
    24  H    2.170347   3.486183   6.842149   6.283249   6.452825
    25  H    2.165239   2.822215   6.248838   5.281502   6.042361
    26  H    1.095413   2.162974   4.848261   4.441510   5.277808
    27  H    1.098552   2.156857   4.791682   4.766027   4.484581
    28  H    2.164334   1.101909   3.794731   2.653005   4.021196
                   16         17         18         19         20
    16  H    0.000000
    17  H    2.510321   0.000000
    18  H    2.462074   2.312258   0.000000
    19  H    3.727680   2.428214   4.052129   0.000000
    20  H    4.880996   3.096323   3.402444   3.052870   0.000000
    21  H    4.876861   2.538544   3.953476   2.469273   1.760843
    22  H    6.221202   4.389326   5.822060   2.622332   3.072649
    23  H    6.875423   4.871691   5.818955   3.787858   2.486862
    24  H    7.322740   6.007729   6.715572   4.163236   3.828325
    25  H    6.504372   5.281448   5.458257   4.033585   2.666437
    26  H    6.023715   5.603723   5.881897   3.792190   4.205157
    27  H    5.650218   4.897554   5.858418   2.629952   4.064104
    28  H    4.153176   3.764329   3.460730   3.044486   2.600089
                   21         22         23         24         25
    21  H    0.000000
    22  H    2.480820   0.000000
    23  H    2.511668   1.760615   0.000000
    24  H    4.324847   2.478708   2.518219   0.000000
    25  H    3.821960   3.066543   2.479918   1.760469   0.000000
    26  H    5.001880   3.821009   4.330756   2.519429   2.491179
    27  H    4.205441   2.667246   3.829913   2.484896   3.073068
    28  H    3.772704   4.024098   4.153254   3.798005   2.630064
                   26         27         28
    26  H    0.000000
    27  H    1.751072   0.000000
    28  H    2.495666   3.065846   0.000000
 Stoichiometry    C10H16O2
 Framework group  C1[X(C10H16O2)]
 Deg. of freedom    78
 Full point group                 C1      NOp   1
 Largest Abelian subgroup         C1      NOp   1
 Largest concise Abelian subgroup C1      NOp   1
                         Standard orientation:                         
 ---------------------------------------------------------------------
 Center     Atomic      Atomic             Coordinates (Angstroms)
 Number     Number       Type             X           Y           Z
 ---------------------------------------------------------------------
      1          8           0       -1.041649    2.624778   -0.218817
      2          6           0       -1.063835    1.443551    0.076264
      3          6           0       -2.367272    0.662985    0.192563
      4          6           0       -2.320288   -0.632527   -0.640669
      5          6           0       -1.081071   -1.475331   -0.306118
      6          8           0       -1.107928   -1.917256    1.056466
      7          6           0        0.209796   -0.666044   -0.503835
      8          6           0        1.477899   -1.491329   -0.223131
      9          6           0        2.756138   -0.665308   -0.428640
     10          6           0        2.739078    0.615880    0.418216
     11          6           0        1.483791    1.455017    0.142328
     12          6           0        0.203138    0.636151    0.348473
     13          1           0       -3.194404    1.312303   -0.107640
     14          1           0       -2.505666    0.394827    1.248677
     15          1           0       -2.305050   -0.389507   -1.711615
     16          1           0       -3.232371   -1.221863   -0.470662
     17          1           0       -1.047635   -2.349660   -0.977327
     18          1           0       -1.892664   -2.475207    1.171324
     19          1           0        0.227403   -0.368408   -1.564816
     20          1           0        1.434333   -1.861955    0.808504
     21          1           0        1.488701   -2.375962   -0.874769
     22          1           0        2.848568   -0.394719   -1.491134
     23          1           0        3.636904   -1.272711   -0.184450
     24          1           0        3.639050    1.212421    0.222410
     25          1           0        2.770355    0.344564    1.483935
     26          1           0        1.458514    2.343056    0.783168
     27          1           0        1.504567    1.829421   -0.890245
     28          1           0        0.141773    0.314969    1.400746
 ---------------------------------------------------------------------
 Rotational constants (GHZ):           1.2867914           0.8809825           0.5883276
 Standard basis: 6-31G(d) (6D, 7F)
 There are   212 symmetry adapted cartesian basis functions of A   symmetry.
 There are   212 symmetry adapted basis functions of A   symmetry.
   212 basis functions,   400 primitive gaussians,   212 cartesian basis functions
    46 alpha electrons       46 beta electrons
       nuclear repulsion energy       768.1651466612 Hartrees.
 NAtoms=   28 NActive=   28 NUniq=   28 SFac= 1.00D+00 NAtFMM=   60 NAOKFM=F Big=F
 Integral buffers will be    131072 words long.
 Raffenetti 2 integral format.
 Two-electron integral symmetry is turned on.
 One-electron integrals computed using PRISM.
 NBasis=   212 RedAO= T EigKep=  2.31D-03  NBF=   212
 NBsUse=   212 1.00D-06 EigRej= -1.00D+00 NBFU=   212
 ExpMin= 1.61D-01 ExpMax= 5.48D+03 ExpMxC= 8.25D+02 IAcc=3 IRadAn=         5 AccDes= 0.00D+00
 Harris functional with IExCor=  402 and IRadAn=       5 diagonalized for initial guess.
 HarFok:  IExCor=  402 AccDes= 0.00D+00 IRadAn=         5 IDoV= 1 UseB2=F ITyADJ=14
 ICtDFT=  3500011 ScaDFX=  1.000000  1.000000  1.000000  1.000000
 FoFCou: FMM=F IPFlag=           0 FMFlag=      100000 FMFlg1=           0
         NFxFlg=           0 DoJE=T BraDBF=F KetDBF=T FulRan=T
         wScrn=  0.000000 ICntrl=       500 IOpCl=  0 I1Cent=   200000004 NGrid=           0
         NMat0=    1 NMatS0=      1 NMatT0=    0 NMatD0=    1 NMtDS0=    0 NMtDT0=    0
 Petite list used in FoFCou.
 Requested convergence on RMS density matrix=1.00D-08 within 128 cycles.
 Requested convergence on MAX density matrix=1.00D-06.
 Requested convergence on             energy=1.00D-06.
 No special actions if energy rises.
 Integral accuracy reduced to 1.0D-05 until final iterations.
 Initial convergence to 1.0D-05 achieved.  Increase integral accuracy.
 SCF Done:  E(RB3LYP) =  -541.154203843     A.U. after   14 cycles
            NFock= 14  Conv=0.63D-08     -V/T= 2.0095
 DoSCS=F DFT=T ScalE2(SS,OS)=  1.000000  1.000000
 Range of M.O.s used for correlation:     1   212
 NBasis=   212 NAE=    46 NBE=    46 NFC=     0 NFV=     0
 NROrb=    212 NOA=    46 NOB=    46 NVA=   166 NVB=   166
 Symmetrizing basis deriv contribution to polar:
 IMax=3 JMax=2 DiffMx= 0.00D+00
 G2DrvN: will do    29 centers at a time, making    1 passes.
 Calling FoFCou, ICntrl=  3107 FMM=F I1Cent=   0 AccDes= 0.00D+00.
 End of G2Drv F.D. properties file   721 does not exist.
 End of G2Drv F.D. properties file   722 does not exist.
 End of G2Drv F.D. properties file   788 does not exist.
          IDoAtm=1111111111111111111111111111
          Differentiating once with respect to electric field.
                with respect to dipole field.
          Differentiating once with respect to nuclear coordinates.
 Keep R1 ints in memory in canonical form, NReq=265313316.
          There are    87 degrees of freedom in the 1st order CPHF.  IDoFFX=6 NUNeed=     3.
     84 vectors produced by pass  0 Test12= 8.78D-15 1.15D-09 XBig12= 7.77D+01 2.84D+00.
 AX will form    84 AO Fock derivatives at one time.
     84 vectors produced by pass  1 Test12= 8.78D-15 1.15D-09 XBig12= 1.26D+01 1.02D+00.
     84 vectors produced by pass  2 Test12= 8.78D-15 1.15D-09 XBig12= 8.44D-02 3.25D-02.
     84 vectors produced by pass  3 Test12= 8.78D-15 1.15D-09 XBig12= 2.96D-04 1.57D-03.
     84 vectors produced by pass  4 Test12= 8.78D-15 1.15D-09 XBig12= 3.21D-07 4.47D-05.
     39 vectors produced by pass  5 Test12= 8.78D-15 1.15D-09 XBig12= 2.06D-10 1.39D-06.
      5 vectors produced by pass  6 Test12= 8.78D-15 1.15D-09 XBig12= 1.28D-13 2.80D-08.
 InvSVY:  IOpt=1 It=  1 EMax= 3.55D-15
 Solved reduced A of dimension   464 with    87 vectors.
 Isotropic polarizability for W=    0.000000      103.85 Bohr**3.
 End of Minotr F.D. properties file   721 does not exist.
 End of Minotr F.D. properties file   722 does not exist.
 End of Minotr F.D. properties file   788 does not exist.

 **********************************************************************

            Population analysis using the SCF density.

 **********************************************************************

 Orbital symmetries:
       Occupied  (A) (A) (A) (A) (A) (A) (A) (A) (A) (A) (A) (A)
                 (A) (A) (A) (A) (A) (A) (A) (A) (A) (A) (A) (A)
                 (A) (A) (A) (A) (A) (A) (A) (A) (A) (A) (A) (A)
                 (A) (A) (A) (A) (A) (A) (A) (A) (A) (A)
       Virtual   (A) (A) (A) (A) (A) (A) (A) (A) (A) (A) (A) (A)
                 (A) (A) (A) (A) (A) (A) (A) (A) (A) (A) (A) (A)
                 (A) (A) (A) (A) (A) (A) (A) (A) (A) (A) (A) (A)
                 (A) (A) (A) (A) (A) (A) (A) (A) (A) (A) (A) (A)
                 (A) (A) (A) (A) (A) (A) (A) (A) (A) (A) (A) (A)
                 (A) (A) (A) (A) (A) (A) (A) (A) (A) (A) (A) (A)
                 (A) (A) (A) (A) (A) (A) (A) (A) (A) (A) (A) (A)
                 (A) (A) (A) (A) (A) (A) (A) (A) (A) (A) (A) (A)
                 (A) (A) (A) (A) (A) (A) (A) (A) (A) (A) (A) (A)
                 (A) (A) (A) (A) (A) (A) (A) (A) (A) (A) (A) (A)
                 (A) (A) (A) (A) (A) (A) (A) (A) (A) (A) (A) (A)
                 (A) (A) (A) (A) (A) (A) (A) (A) (A) (A) (A) (A)
                 (A) (A) (A) (A) (A) (A) (A) (A) (A) (A) (A) (A)
                 (A) (A) (A) (A) (A) (A) (A) (A) (A) (A)
 The electronic state is 1-A.
 Alpha  occ. eigenvalues --  -19.15325 -19.13017 -10.26352 -10.24239 -10.19681
 Alpha  occ. eigenvalues --  -10.19458 -10.18830 -10.18713 -10.17736 -10.17707
 Alpha  occ. eigenvalues --  -10.17532 -10.17261  -1.02912  -1.02532  -0.84103
 Alpha  occ. eigenvalues --   -0.79799  -0.74936  -0.74133  -0.69974  -0.62446
 Alpha  occ. eigenvalues --   -0.61694  -0.57909  -0.55518  -0.53486  -0.49923
 Alpha  occ. eigenvalues --   -0.47316  -0.46389  -0.46087  -0.44284  -0.43092
 Alpha  occ. eigenvalues --   -0.42045  -0.40985  -0.40014  -0.38970  -0.37417
 Alpha  occ. eigenvalues --   -0.36440  -0.35539  -0.34877  -0.34174  -0.33902
 Alpha  occ. eigenvalues --   -0.32883  -0.31532  -0.30480  -0.29241  -0.27380
 Alpha  occ. eigenvalues --   -0.23116
 Alpha virt. eigenvalues --   -0.00799   0.05850   0.09377   0.09923   0.12491
 Alpha virt. eigenvalues --    0.12963   0.13523   0.14440   0.14945   0.15949
 Alpha virt. eigenvalues --    0.16964   0.17531   0.17977   0.18534   0.19086
 Alpha virt. eigenvalues --    0.19459   0.19721   0.20212   0.20860   0.22397
 Alpha virt. eigenvalues --    0.22964   0.25377   0.25524   0.26706   0.27624
 Alpha virt. eigenvalues --    0.28744   0.30152   0.31278   0.35290   0.37715
 Alpha virt. eigenvalues --    0.51254   0.52151   0.53316   0.53527   0.54331
 Alpha virt. eigenvalues --    0.56056   0.56557   0.58062   0.60011   0.61128
 Alpha virt. eigenvalues --    0.62502   0.63386   0.65237   0.66865   0.67224
 Alpha virt. eigenvalues --    0.69386   0.69913   0.71510   0.72907   0.73488
 Alpha virt. eigenvalues --    0.76160   0.78199   0.80371   0.81172   0.82884
 Alpha virt. eigenvalues --    0.83715   0.84242   0.85594   0.86056   0.87010
 Alpha virt. eigenvalues --    0.88071   0.88612   0.89010   0.90335   0.91124
 Alpha virt. eigenvalues --    0.92028   0.93401   0.93900   0.94873   0.95342
 Alpha virt. eigenvalues --    0.96834   0.97420   0.99867   1.01095   1.03974
 Alpha virt. eigenvalues --    1.05951   1.10306   1.12021   1.12565   1.16477
 Alpha virt. eigenvalues --    1.18689   1.19915   1.22631   1.25449   1.31079
 Alpha virt. eigenvalues --    1.34148   1.37674   1.41778   1.44795   1.47260
 Alpha virt. eigenvalues --    1.49991   1.53424   1.57321   1.59688   1.60244
 Alpha virt. eigenvalues --    1.65641   1.69332   1.71108   1.71928   1.72792
 Alpha virt. eigenvalues --    1.77331   1.77643   1.79608   1.80903   1.83866
 Alpha virt. eigenvalues --    1.85102   1.86095   1.87642   1.90050   1.90299
 Alpha virt. eigenvalues --    1.92075   1.94217   1.95622   1.96999   1.98243
 Alpha virt. eigenvalues --    2.00533   2.02582   2.03354   2.06059   2.07704
 Alpha virt. eigenvalues --    2.08525   2.10892   2.12248   2.15011   2.21621
 Alpha virt. eigenvalues --    2.22591   2.23966   2.27878   2.29086   2.31737
 Alpha virt. eigenvalues --    2.35875   2.36579   2.37155   2.38343   2.41614
 Alpha virt. eigenvalues --    2.44666   2.47891   2.48338   2.52331   2.53563
 Alpha virt. eigenvalues --    2.58500   2.59890   2.62722   2.63650   2.65907
 Alpha virt. eigenvalues --    2.71458   2.72986   2.75003   2.79271   2.84580
 Alpha virt. eigenvalues --    2.86372   2.93282   3.00304   3.05623   3.78121
 Alpha virt. eigenvalues --    4.02406   4.13364   4.21333   4.27379   4.31706
 Alpha virt. eigenvalues --    4.41139   4.53928   4.56322   4.60030   4.64770
 Alpha virt. eigenvalues --    4.72253
          Condensed to atoms (all electrons):
               1          2          3          4          5          6
     1  O    8.013257   0.584774  -0.076143   0.001468   0.000035  -0.000003
     2  C    0.584774   4.514550   0.346525  -0.024711  -0.010015  -0.003985
     3  C   -0.076143   0.346525   5.292327   0.318210  -0.035429  -0.000271
     4  C    0.001468  -0.024711   0.318210   5.167195   0.354002  -0.051332
     5  C    0.000035  -0.010015  -0.035429   0.354002   4.810006   0.228265
     6  O   -0.000003  -0.003985  -0.000271  -0.051332   0.228265   8.292714
     7  C    0.000567  -0.015034  -0.016185  -0.038046   0.363989  -0.061135
     8  C   -0.000056   0.002401  -0.000105   0.005222  -0.032335  -0.001346
     9  C   -0.000011  -0.000004  -0.000024  -0.000106   0.003589   0.000165
    10  C    0.000628   0.004426  -0.000073  -0.000015   0.000243  -0.000015
    11  C    0.006410  -0.027942   0.006223  -0.000005   0.003937   0.000166
    12  C   -0.093880   0.284006  -0.131143  -0.012137  -0.029783   0.000191
    13  H    0.005478  -0.023709   0.342784  -0.026490   0.003787   0.000126
    14  H    0.001247  -0.028809   0.349566  -0.035461  -0.006395   0.010972
    15  H    0.000447  -0.003232  -0.037602   0.349773  -0.028184   0.003787
    16  H   -0.000064   0.003464  -0.032229   0.357113  -0.029765  -0.002120
    17  H   -0.000002  -0.000276   0.006157  -0.059683   0.365298  -0.038500
    18  H    0.000000   0.000171  -0.000794  -0.002832  -0.023710   0.230445
    19  H    0.000505  -0.003360   0.000245  -0.002206  -0.045233   0.003187
    20  H   -0.000000  -0.000012  -0.000005   0.000299  -0.008340   0.009378
    21  H    0.000000  -0.000071   0.000008  -0.000006  -0.003827  -0.000287
    22  H   -0.000000  -0.000043   0.000000  -0.000002  -0.000058  -0.000003
    23  H    0.000000   0.000007  -0.000000   0.000002  -0.000115   0.000001
    24  H    0.000002  -0.000081   0.000002  -0.000000   0.000005   0.000000
    25  H   -0.000004  -0.000069  -0.000001  -0.000000  -0.000025  -0.000012
    26  H    0.004825  -0.003088   0.000194  -0.000012  -0.000133   0.000000
    27  H    0.004167  -0.004678   0.000240  -0.000039  -0.000023  -0.000003
    28  H    0.001191  -0.032725   0.002016  -0.001069  -0.007557   0.008997
               7          8          9         10         11         12
     1  O    0.000567  -0.000056  -0.000011   0.000628   0.006410  -0.093880
     2  C   -0.015034   0.002401  -0.000004   0.004426  -0.027942   0.284006
     3  C   -0.016185  -0.000105  -0.000024  -0.000073   0.006223  -0.131143
     4  C   -0.038046   0.005222  -0.000106  -0.000015  -0.000005  -0.012137
     5  C    0.363989  -0.032335   0.003589   0.000243   0.003937  -0.029783
     6  O   -0.061135  -0.001346   0.000165  -0.000015   0.000166   0.000191
     7  C    5.035227   0.373986  -0.033917  -0.013282  -0.036739   0.338577
     8  C    0.373986   5.032058   0.373492  -0.045335  -0.011489  -0.039374
     9  C   -0.033917   0.373492   5.004838   0.381149  -0.042437  -0.013473
    10  C   -0.013282  -0.045335   0.381149   5.023662   0.357042  -0.033639
    11  C   -0.036739  -0.011489  -0.042437   0.357042   5.021029   0.350774
    12  C    0.338577  -0.039374  -0.013473  -0.033639   0.350774   5.315550
    13  H   -0.000088   0.000010   0.000000   0.000001  -0.000151   0.006785
    14  H   -0.001526  -0.000024  -0.000000  -0.000003  -0.000050   0.004605
    15  H   -0.002788  -0.000119  -0.000005  -0.000001  -0.000034   0.001238
    16  H    0.005033  -0.000165   0.000002   0.000000   0.000010  -0.000375
    17  H   -0.047200  -0.007259  -0.000027   0.000003  -0.000122   0.006436
    18  H    0.007950   0.000011   0.000001   0.000000   0.000002  -0.000024
    19  H    0.365975  -0.044449  -0.003748  -0.000690  -0.004176  -0.050060
    20  H   -0.038547   0.373440  -0.038132  -0.004330  -0.000602  -0.006537
    21  H   -0.035726   0.362504  -0.032488   0.004857  -0.000028   0.005066
    22  H   -0.005580  -0.039449   0.369613  -0.041415  -0.004011  -0.001021
    23  H    0.004424  -0.032549   0.368521  -0.032262   0.004611   0.000198
    24  H    0.000220   0.004748  -0.033195   0.369772  -0.032983   0.004283
    25  H   -0.001022  -0.004072  -0.041409   0.369562  -0.038002  -0.005590
    26  H    0.004394   0.000063   0.004633  -0.032403   0.370715  -0.033367
    27  H   -0.006462  -0.000718  -0.004705  -0.040397   0.373257  -0.040880
    28  H   -0.043027  -0.006344  -0.000777  -0.002686  -0.040815   0.354422
              13         14         15         16         17         18
     1  O    0.005478   0.001247   0.000447  -0.000064  -0.000002   0.000000
     2  C   -0.023709  -0.028809  -0.003232   0.003464  -0.000276   0.000171
     3  C    0.342784   0.349566  -0.037602  -0.032229   0.006157  -0.000794
     4  C   -0.026490  -0.035461   0.349773   0.357113  -0.059683  -0.002832
     5  C    0.003787  -0.006395  -0.028184  -0.029765   0.365298  -0.023710
     6  O    0.000126   0.010972   0.003787  -0.002120  -0.038500   0.230445
     7  C   -0.000088  -0.001526  -0.002788   0.005033  -0.047200   0.007950
     8  C    0.000010  -0.000024  -0.000119  -0.000165  -0.007259   0.000011
     9  C    0.000000  -0.000000  -0.000005   0.000002  -0.000027   0.000001
    10  C    0.000001  -0.000003  -0.000001   0.000000   0.000003   0.000000
    11  C   -0.000151  -0.000050  -0.000034   0.000010  -0.000122   0.000002
    12  C    0.006785   0.004605   0.001238  -0.000375   0.006436  -0.000024
    13  H    0.564802  -0.026844  -0.003316  -0.002740  -0.000114  -0.000048
    14  H   -0.026844   0.567853   0.005827  -0.005728   0.000274   0.000038
    15  H   -0.003316   0.005827   0.597592  -0.033574   0.000517  -0.000076
    16  H   -0.002740  -0.005728  -0.033574   0.608678  -0.003416   0.005109
    17  H   -0.000114   0.000274   0.000517  -0.003416   0.662952  -0.004657
    18  H   -0.000048   0.000038  -0.000076   0.005109  -0.004657   0.396827
    19  H   -0.000046   0.000070   0.002989  -0.000004  -0.001676  -0.000263
    20  H    0.000000  -0.000012  -0.000013   0.000001  -0.000068  -0.000375
    21  H   -0.000000   0.000000  -0.000004   0.000002   0.005993  -0.000050
    22  H   -0.000000  -0.000000   0.000000   0.000000  -0.000002   0.000000
    23  H    0.000000  -0.000000   0.000000  -0.000000  -0.000004  -0.000000
    24  H   -0.000000  -0.000000  -0.000000   0.000000  -0.000000   0.000000
    25  H    0.000000  -0.000001  -0.000000  -0.000000  -0.000000   0.000000
    26  H   -0.000005  -0.000016  -0.000000   0.000000   0.000003  -0.000000
    27  H   -0.000001  -0.000005  -0.000007   0.000000  -0.000004   0.000000
    28  H   -0.000086   0.001116   0.000043  -0.000032   0.000271  -0.000344
              19         20         21         22         23         24
     1  O    0.000505  -0.000000   0.000000  -0.000000   0.000000   0.000002
     2  C   -0.003360  -0.000012  -0.000071  -0.000043   0.000007  -0.000081
     3  C    0.000245  -0.000005   0.000008   0.000000  -0.000000   0.000002
     4  C   -0.002206   0.000299  -0.000006  -0.000002   0.000002  -0.000000
     5  C   -0.045233  -0.008340  -0.003827  -0.000058  -0.000115   0.000005
     6  O    0.003187   0.009378  -0.000287  -0.000003   0.000001   0.000000
     7  C    0.365975  -0.038547  -0.035726  -0.005580   0.004424   0.000220
     8  C   -0.044449   0.373440   0.362504  -0.039449  -0.032549   0.004748
     9  C   -0.003748  -0.038132  -0.032488   0.369613   0.368521  -0.033195
    10  C   -0.000690  -0.004330   0.004857  -0.041415  -0.032262   0.369772
    11  C   -0.004176  -0.000602  -0.000028  -0.004011   0.004611  -0.032983
    12  C   -0.050060  -0.006537   0.005066  -0.001021   0.000198   0.004283
    13  H   -0.000046   0.000000  -0.000000  -0.000000   0.000000  -0.000000
    14  H    0.000070  -0.000012   0.000000  -0.000000  -0.000000  -0.000000
    15  H    0.002989  -0.000013  -0.000004   0.000000   0.000000  -0.000000
    16  H   -0.000004   0.000001   0.000002   0.000000  -0.000000   0.000000
    17  H   -0.001676  -0.000068   0.005993  -0.000002  -0.000004  -0.000000
    18  H   -0.000263  -0.000375  -0.000050   0.000000  -0.000000   0.000000
    19  H    0.638987   0.006129  -0.004425   0.005156  -0.000048  -0.000028
    20  H    0.006129   0.576973  -0.034643   0.005565  -0.003904  -0.000044
    21  H   -0.004425  -0.034643   0.615480  -0.004233  -0.002392  -0.000164
    22  H    0.005156   0.005565  -0.004233   0.619127  -0.037425  -0.004347
    23  H   -0.000048  -0.003904  -0.002392  -0.037425   0.606395  -0.002303
    24  H   -0.000028  -0.000044  -0.000164  -0.004347  -0.002303   0.605034
    25  H    0.000164   0.004524  -0.000050   0.006112  -0.004388  -0.037091
    26  H   -0.000041  -0.000017   0.000013  -0.000050  -0.000153  -0.002155
    27  H    0.005371   0.000132  -0.000025   0.004802  -0.000052  -0.004066
    28  H    0.006798   0.005118   0.000007   0.000162  -0.000031  -0.000045
              25         26         27         28
     1  O   -0.000004   0.004825   0.004167   0.001191
     2  C   -0.000069  -0.003088  -0.004678  -0.032725
     3  C   -0.000001   0.000194   0.000240   0.002016
     4  C   -0.000000  -0.000012  -0.000039  -0.001069
     5  C   -0.000025  -0.000133  -0.000023  -0.007557
     6  O   -0.000012   0.000000  -0.000003   0.008997
     7  C   -0.001022   0.004394  -0.006462  -0.043027
     8  C   -0.004072   0.000063  -0.000718  -0.006344
     9  C   -0.041409   0.004633  -0.004705  -0.000777
    10  C    0.369562  -0.032403  -0.040397  -0.002686
    11  C   -0.038002   0.370715   0.373257  -0.040815
    12  C   -0.005590  -0.033367  -0.040880   0.354422
    13  H    0.000000  -0.000005  -0.000001  -0.000086
    14  H   -0.000001  -0.000016  -0.000005   0.001116
    15  H   -0.000000  -0.000000  -0.000007   0.000043
    16  H   -0.000000   0.000000   0.000000  -0.000032
    17  H   -0.000000   0.000003  -0.000004   0.000271
    18  H    0.000000  -0.000000   0.000000  -0.000344
    19  H    0.000164  -0.000041   0.005371   0.006798
    20  H    0.004524  -0.000017   0.000132   0.005118
    21  H   -0.000050   0.000013  -0.000025   0.000007
    22  H    0.006112  -0.000050   0.004802   0.000162
    23  H   -0.004388  -0.000153  -0.000052  -0.000031
    24  H   -0.037091  -0.002155  -0.004066  -0.000045
    25  H    0.616080  -0.004062   0.005767   0.004719
    26  H   -0.004062   0.581690  -0.033859  -0.003516
    27  H    0.005767  -0.033859   0.598760   0.005792
    28  H    0.004719  -0.003516   0.005792   0.586961
 Mulliken charges:
               1
     1  O   -0.454840
     2  C    0.441519
     3  C   -0.334497
     4  C   -0.299131
     5  C    0.127771
     6  O   -0.629384
     7  C   -0.104036
     8  C   -0.262743
     9  C   -0.261545
    10  C   -0.264800
    11  C   -0.254587
    12  C   -0.180847
    13  H    0.159865
    14  H    0.163305
    15  H    0.146742
    16  H    0.130799
    17  H    0.115105
    18  H    0.392616
    19  H    0.124879
    20  H    0.154023
    21  H    0.124487
    22  H    0.127102
    23  H    0.131466
    24  H    0.132437
    25  H    0.128868
    26  H    0.146348
    27  H    0.137636
    28  H    0.161441
 Sum of Mulliken charges =  -0.00000
 Mulliken charges with hydrogens summed into heavy atoms:
               1
     1  O   -0.454840
     2  C    0.441519
     3  C   -0.011326
     4  C   -0.021590
     5  C    0.242876
     6  O   -0.236768
     7  C    0.020842
     8  C    0.015768
     9  C   -0.002977
    10  C   -0.003494
    11  C    0.029396
    12  C   -0.019405
 APT charges:
               1
     1  O   -0.647055
     2  C    0.730266
     3  C   -0.074314
     4  C    0.092215
     5  C    0.469302
     6  O   -0.573602
     7  C    0.084821
     8  C    0.095302
     9  C    0.125335
    10  C    0.126062
    11  C    0.102514
    12  C   -0.092919
    13  H   -0.027267
    14  H    0.008719
    15  H   -0.031286
    16  H   -0.069221
    17  H   -0.107295
    18  H    0.227717
    19  H   -0.051205
    20  H   -0.017011
    21  H   -0.064158
    22  H   -0.053707
    23  H   -0.064931
    24  H   -0.064505
    25  H   -0.050372
    26  H   -0.036719
    27  H   -0.033957
    28  H   -0.002728
 Sum of APT charges =   0.00000
 APT charges with hydrogens summed into heavy atoms:
               1
     1  O   -0.647055
     2  C    0.730266
     3  C   -0.092862
     4  C   -0.008292
     5  C    0.362007
     6  O   -0.345885
     7  C    0.033616
     8  C    0.014133
     9  C    0.006697
    10  C    0.011185
    11  C    0.031838
    12  C   -0.095647
 Electronic spatial extent (au):  <R**2>=           2047.7918
 Charge=              0.0000 electrons
 Dipole moment (field-independent basis, Debye):
    X=             -0.9844    Y=             -3.3341    Z=             -0.1951  Tot=              3.4818
 Quadrupole moment (field-independent basis, Debye-Ang):
   XX=            -67.3441   YY=            -80.1762   ZZ=            -72.2289
   XY=              6.9678   XZ=             -1.1419   YZ=              2.0930
 Traceless Quadrupole moment (field-independent basis, Debye-Ang):
   XX=              5.9056   YY=             -6.9265   ZZ=              1.0209
   XY=              6.9678   XZ=             -1.1419   YZ=              2.0930
 Octapole moment (field-independent basis, Debye-Ang**2):
  XXX=            -24.4772  YYY=            -40.1844  ZZZ=              3.2281  XYY=             -4.0902
  XXY=            -12.4474  XXZ=              6.3225  XZZ=             -5.4120  YZZ=              1.4766
  YYZ=              6.8056  XYZ=              1.8202
 Hexadecapole moment (field-independent basis, Debye-Ang**3):
 XXXX=          -1504.3278 YYYY=           -963.6953 ZZZZ=           -229.1744 XXXY=             26.7413
 XXXZ=            -16.0535 YYYX=             70.4756 YYYZ=             -8.0404 ZZZX=             -6.7334
 ZZZY=            -12.2841 XXYY=           -384.1469 XXZZ=           -290.4193 YYZZ=           -184.8052
 XXYZ=            -17.5959 YYXZ=            -17.8114 ZZXY=              4.7628
 N-N= 7.681651466612D+02 E-N=-2.795028345678D+03  KE= 5.360764847992D+02
  Exact polarizability: 116.589   1.594 108.420   0.206  -0.089  86.543
 Approx polarizability: 142.471   1.972 158.836  -0.267  -6.748 140.901
 Calling FoFJK, ICntrl=    100127 FMM=F ISym2X=0 I1Cent= 0 IOpClX= 0 NMat=1 NMatS=1 NMatT=0.
 Full mass-weighted force constant matrix:
 Low frequencies ---  -13.7056   -0.0007   -0.0004   -0.0002    4.7457   11.2341
 Low frequencies ---   76.0966  102.5643  143.1410
 Diagonal vibrational polarizability:
       15.5555356      34.9811153      17.9147285
 Harmonic frequencies (cm**-1), IR intensities (KM/Mole), Raman scattering
 activities (A**4/AMU), depolarization ratios for plane and unpolarized
 incident light, reduced masses (AMU), force constants (mDyne/A),
 and normal coordinates:
                      1                      2                      3
                      A                      A                      A
 Frequencies --     76.0832               102.5590               143.1407
 Red. masses --      4.7880                 3.2635                 2.9295
 Frc consts  --      0.0163                 0.0202                 0.0354
 IR Inten    --      2.7811                 0.9598                 0.4145
  Atom  AN      X      Y      Z        X      Y      Z        X      Y      Z
     1   8    -0.04   0.08   0.36     0.04   0.01   0.07    -0.05   0.05   0.07
     2   6    -0.01   0.00   0.04    -0.00  -0.02  -0.04    -0.02   0.03  -0.04
     3   6    -0.01  -0.03  -0.15    -0.03   0.01  -0.19    -0.00   0.01   0.04
     4   6     0.05  -0.03  -0.13     0.00  -0.09  -0.04    -0.04  -0.02   0.08
     5   6     0.01  -0.03   0.00     0.01  -0.03   0.08     0.00   0.01  -0.02
     6   8    -0.08   0.07   0.03     0.03   0.17   0.15     0.14   0.04  -0.00
     7   6     0.03  -0.05   0.02    -0.01  -0.01  -0.03    -0.01   0.01  -0.13
     8   6     0.01  -0.03   0.14     0.02  -0.00  -0.15    -0.03  -0.02  -0.10
     9   6     0.02  -0.06   0.04    -0.01   0.05  -0.11     0.04  -0.05   0.15
    10   6     0.02   0.06  -0.14    -0.02  -0.06   0.06    -0.07  -0.05   0.14
    11   6    -0.01   0.01  -0.19    -0.01  -0.03   0.13     0.02  -0.01  -0.12
    12   6     0.02  -0.00  -0.07    -0.02  -0.04   0.02    -0.00   0.02  -0.14
    13   1     0.02  -0.02  -0.21     0.03   0.01  -0.35    -0.03  -0.01   0.07
    14   1    -0.12  -0.03  -0.16    -0.19   0.13  -0.17     0.06   0.05   0.06
    15   1     0.16  -0.05  -0.14     0.02  -0.22  -0.06    -0.15  -0.06   0.07
    16   1     0.03  -0.02  -0.22     0.01  -0.08   0.02    -0.01  -0.04   0.19
    17   1     0.05  -0.08   0.07     0.03  -0.12   0.21    -0.05  -0.01   0.00
    18   1    -0.09   0.08   0.02     0.07   0.14   0.23     0.16   0.04   0.10
    19   1     0.08  -0.13   0.00    -0.10   0.01  -0.02    -0.05  -0.02  -0.13
    20   1     0.00   0.10   0.18     0.07  -0.10  -0.19    -0.16  -0.13  -0.15
    21   1     0.02  -0.11   0.25     0.01   0.07  -0.24     0.02   0.05  -0.20
    22   1     0.02  -0.21   0.00    -0.06   0.19  -0.08     0.26  -0.05   0.17
    23   1     0.02  -0.02   0.13     0.02   0.04  -0.23    -0.04  -0.10   0.32
    24   1     0.00   0.05  -0.25    -0.01  -0.03   0.15     0.00  -0.10   0.31
    25   1     0.06   0.20  -0.10    -0.03  -0.21   0.02    -0.30  -0.03   0.15
    26   1    -0.01   0.08  -0.29    -0.02  -0.10   0.24    -0.04   0.06  -0.23
    27   1    -0.04  -0.11  -0.24     0.01   0.09   0.18     0.15  -0.15  -0.17
    28   1     0.09   0.06  -0.04    -0.09  -0.08  -0.00     0.02   0.01  -0.14
                      4                      5                      6
                      A                      A                      A
 Frequencies --    192.3697               244.7512               274.7275
 Red. masses --      3.5811                 3.4839                 3.0562
 Frc consts  --      0.0781                 0.1230                 0.1359
 IR Inten    --      2.1111                 2.0207                12.9702
  Atom  AN      X      Y      Z        X      Y      Z        X      Y      Z
     1   8    -0.10  -0.12  -0.05    -0.18   0.04  -0.01     0.16  -0.09   0.01
     2   6    -0.02  -0.08   0.08    -0.06   0.04  -0.02     0.02  -0.08   0.03
     3   6     0.02  -0.13   0.17    -0.02  -0.04  -0.02    -0.04   0.04   0.01
     4   6     0.05   0.07  -0.13     0.01  -0.03  -0.02    -0.08   0.02   0.03
     5   6     0.01   0.05  -0.03     0.06   0.05  -0.05    -0.03   0.02  -0.08
     6   8    -0.10   0.25   0.04     0.18   0.08  -0.04     0.13   0.10  -0.06
     7   6     0.03   0.00  -0.04     0.02   0.08  -0.02    -0.00  -0.04  -0.11
     8   6     0.03  -0.02  -0.06    -0.08  -0.01   0.13    -0.02  -0.01   0.06
     9   6     0.04  -0.02   0.02    -0.05  -0.15  -0.04    -0.01   0.00   0.08
    10   6     0.01  -0.01   0.01     0.06  -0.12  -0.07    -0.01   0.11  -0.07
    11   6     0.01  -0.01  -0.02     0.07  -0.00   0.12    -0.11  -0.01   0.06
    12   6     0.03  -0.03   0.01    -0.02   0.07   0.00    -0.03  -0.12  -0.00
    13   1    -0.05  -0.11   0.39    -0.06  -0.07   0.01     0.01   0.08  -0.05
    14   1     0.16  -0.39   0.12     0.01  -0.06  -0.02    -0.11   0.09   0.02
    15   1     0.21   0.28  -0.07    -0.03  -0.03  -0.02    -0.19   0.01   0.03
    16   1     0.03   0.04  -0.36     0.04  -0.08  -0.00    -0.05  -0.01   0.12
    17   1     0.02  -0.04   0.09     0.10   0.05  -0.04    -0.12  -0.01  -0.05
    18   1    -0.12   0.29   0.07     0.24   0.01   0.03    -0.03   0.37   0.17
    19   1     0.03   0.03  -0.03     0.12   0.07  -0.02     0.07  -0.01  -0.10
    20   1    -0.00  -0.09  -0.08    -0.12   0.20   0.20    -0.11   0.10   0.09
    21   1     0.04   0.02  -0.12    -0.19  -0.13   0.30     0.07  -0.07   0.15
    22   1     0.10  -0.02   0.02    -0.12  -0.22  -0.06     0.06  -0.13   0.05
    23   1     0.02  -0.02   0.07    -0.06  -0.18  -0.06    -0.03   0.03   0.21
    24   1     0.02  -0.02   0.04     0.06  -0.15  -0.16    -0.09   0.16  -0.30
    25   1    -0.03  -0.00   0.02     0.18  -0.14  -0.07     0.20   0.25  -0.05
    26   1     0.01   0.01  -0.05     0.17  -0.13   0.30    -0.17  -0.08   0.16
    27   1     0.01  -0.04  -0.04     0.06   0.20   0.20    -0.20   0.12   0.11
    28   1     0.09  -0.07  -0.00    -0.09   0.03  -0.01    -0.03  -0.24  -0.04
                      7                      8                      9
                      A                      A                      A
 Frequencies --    288.7191               307.5159               329.9155
 Red. masses --      1.4586                 1.4795                 2.8040
 Frc consts  --      0.0716                 0.0824                 0.1798
 IR Inten    --     40.0682                65.4488                 6.8089
  Atom  AN      X      Y      Z        X      Y      Z        X      Y      Z
     1   8    -0.02   0.03   0.02    -0.04  -0.01  -0.02     0.07  -0.02  -0.02
     2   6     0.01   0.01  -0.05    -0.02   0.01   0.04    -0.02   0.01   0.07
     3   6     0.03  -0.01   0.04    -0.03   0.01  -0.04    -0.03   0.04   0.01
     4   6     0.01   0.01   0.02     0.01  -0.02   0.01     0.12   0.09  -0.07
     5   6    -0.01  -0.03  -0.01     0.02   0.01   0.01     0.05   0.02   0.01
     6   8    -0.00  -0.03  -0.01     0.02  -0.06  -0.02     0.17  -0.02  -0.00
     7   6     0.01  -0.06  -0.03    -0.00   0.06   0.05     0.01   0.00   0.07
     8   6     0.03  -0.01   0.06    -0.01   0.00  -0.07    -0.03  -0.04   0.04
     9   6    -0.02   0.05  -0.05     0.04  -0.05   0.03    -0.09   0.00  -0.06
    10   6    -0.02  -0.02   0.05     0.03  -0.00  -0.04    -0.16  -0.06   0.02
    11   6     0.01   0.01   0.02     0.02  -0.00  -0.01    -0.10  -0.03  -0.09
    12   6     0.00  -0.01  -0.10     0.00   0.03   0.09    -0.05  -0.01   0.08
    13   1    -0.01  -0.03   0.11     0.01   0.01  -0.15    -0.02   0.03  -0.06
    14   1     0.13  -0.01   0.05    -0.15   0.07  -0.04    -0.12  -0.01  -0.02
    15   1     0.00   0.03   0.02     0.01  -0.05   0.00     0.36   0.19  -0.04
    16   1    -0.00   0.02   0.01     0.02  -0.04   0.00     0.06   0.11  -0.33
    17   1    -0.05  -0.03  -0.01     0.05   0.04  -0.03     0.03   0.03  -0.01
    18   1    -0.45   0.63   0.19    -0.46   0.65   0.17     0.11   0.10   0.12
    19   1     0.05  -0.15  -0.06    -0.04   0.12   0.07     0.05   0.05   0.08
    20   1     0.07   0.13   0.11    -0.02  -0.15  -0.13     0.04  -0.01   0.05
    21   1     0.06  -0.09   0.18    -0.05   0.10  -0.20    -0.09  -0.04   0.05
    22   1    -0.17   0.13  -0.04     0.17  -0.11   0.03    -0.22   0.08  -0.05
    23   1     0.04   0.08  -0.20    -0.02  -0.08   0.16    -0.02   0.06  -0.18
    24   1     0.01  -0.02   0.15     0.02  -0.00  -0.11    -0.11  -0.07   0.20
    25   1    -0.09  -0.11   0.03     0.08   0.06  -0.02    -0.32  -0.13   0.01
    26   1    -0.04  -0.04   0.09     0.08   0.04  -0.07    -0.06   0.09  -0.27
    27   1     0.09   0.08   0.05    -0.04  -0.07  -0.04    -0.12  -0.24  -0.17
    28   1    -0.04  -0.01  -0.10     0.03   0.04   0.09     0.02   0.02   0.09
                     10                     11                     12
                      A                      A                      A
 Frequencies --    364.5210               384.3136               441.0273
 Red. masses --      2.3278                 3.5483                 2.7488
 Frc consts  --      0.1822                 0.3088                 0.3150
 IR Inten    --      0.6178                 0.3387                 0.8049
  Atom  AN      X      Y      Z        X      Y      Z        X      Y      Z
     1   8    -0.04   0.09  -0.01    -0.11  -0.01  -0.01    -0.03  -0.04  -0.01
     2   6    -0.04   0.07  -0.05    -0.10   0.00   0.03     0.00  -0.02   0.04
     3   6     0.01   0.05   0.04    -0.18   0.13   0.01    -0.04   0.01  -0.01
     4   6     0.11   0.09  -0.02    -0.05   0.11   0.07    -0.01   0.06  -0.08
     5   6     0.01  -0.04   0.06    -0.01   0.06  -0.01    -0.10  -0.05   0.06
     6   8     0.02  -0.07   0.06    -0.01   0.03  -0.03     0.07  -0.08   0.06
     7   6     0.01  -0.08  -0.03     0.09  -0.06   0.01    -0.12   0.00  -0.08
     8   6     0.03  -0.08  -0.07     0.20  -0.02   0.04    -0.08   0.15  -0.00
     9   6     0.04  -0.06   0.05     0.20   0.00  -0.06     0.00   0.06   0.02
    10   6    -0.03   0.03  -0.07     0.06  -0.06   0.01     0.16   0.02   0.06
    11   6    -0.08   0.01   0.09    -0.01  -0.13  -0.02     0.10  -0.08  -0.00
    12   6    -0.06  -0.02  -0.07    -0.05  -0.07  -0.00     0.01  -0.04  -0.04
    13   1    -0.06  -0.02   0.10    -0.07   0.17  -0.22     0.03   0.07  -0.07
    14   1     0.10  -0.00   0.04    -0.39   0.26   0.02    -0.15  -0.02  -0.03
    15   1     0.35   0.18   0.00    -0.10   0.12   0.07     0.33   0.15  -0.05
    16   1     0.02   0.16  -0.27    -0.00   0.03   0.07    -0.13   0.16  -0.39
    17   1    -0.08  -0.05   0.07    -0.14   0.08  -0.05    -0.14  -0.06   0.07
    18   1     0.04  -0.09   0.05     0.08  -0.10  -0.08     0.06  -0.04   0.19
    19   1    -0.04  -0.13  -0.04     0.14  -0.07   0.01    -0.22  -0.03  -0.09
    20   1     0.00  -0.21  -0.12     0.28   0.09   0.08    -0.14   0.28   0.05
    21   1     0.06   0.00  -0.18     0.19  -0.09   0.14     0.00   0.05   0.13
    22   1     0.19  -0.17   0.03     0.16   0.04  -0.06     0.01   0.12   0.04
    23   1     0.01  -0.02   0.24     0.23   0.03  -0.09    -0.08  -0.09  -0.05
    24   1    -0.09   0.07  -0.22    -0.00   0.07   0.13     0.12   0.05  -0.06
    25   1     0.13   0.12  -0.06     0.01  -0.14  -0.01     0.27   0.07   0.07
    26   1    -0.09  -0.14   0.29     0.01  -0.07  -0.11     0.02  -0.01  -0.10
    27   1    -0.11   0.26   0.18    -0.00  -0.22  -0.06     0.16  -0.18  -0.04
    28   1    -0.15  -0.03  -0.07    -0.08  -0.06  -0.00     0.03  -0.12  -0.07
                     13                     14                     15
                      A                      A                      A
 Frequencies --    457.9018               494.9417               553.3168
 Red. masses --      2.8385                 2.0148                 2.9230
 Frc consts  --      0.3507                 0.2908                 0.5273
 IR Inten    --      2.2718                 1.9113                 5.5767
  Atom  AN      X      Y      Z        X      Y      Z        X      Y      Z
     1   8    -0.08  -0.11   0.01     0.07  -0.06   0.00    -0.10  -0.00  -0.03
     2   6     0.02  -0.10   0.05    -0.01  -0.04   0.05     0.03   0.02   0.08
     3   6    -0.06   0.06  -0.03    -0.06  -0.01   0.02     0.09   0.06   0.01
     4   6    -0.02   0.07   0.02     0.05  -0.02   0.02     0.21  -0.01   0.13
     5   6    -0.02   0.05   0.03     0.04   0.01   0.04     0.13  -0.02  -0.02
     6   8     0.02  -0.03   0.00    -0.06  -0.04   0.04    -0.10   0.04  -0.02
     7   6     0.05  -0.05  -0.00     0.00   0.07  -0.07     0.02   0.01  -0.12
     8   6    -0.01  -0.14  -0.00    -0.01   0.11  -0.00    -0.07   0.03  -0.01
     9   6    -0.11   0.01   0.03     0.07  -0.05  -0.05    -0.09   0.01   0.03
    10   6    -0.01   0.04   0.01    -0.08  -0.06  -0.05    -0.00   0.01   0.02
    11   6     0.09   0.18  -0.01    -0.01   0.07  -0.01    -0.04  -0.09   0.01
    12   6     0.13   0.03  -0.08     0.00   0.03  -0.06    -0.00  -0.07  -0.01
    13   1     0.14   0.19  -0.30    -0.01  -0.01  -0.12     0.20   0.01  -0.38
    14   1    -0.37   0.19  -0.03    -0.20   0.04   0.01    -0.24   0.29   0.03
    15   1     0.08   0.10   0.02     0.12   0.02   0.03     0.07  -0.02   0.13
    16   1    -0.03   0.06  -0.09     0.05  -0.05  -0.07     0.24  -0.03   0.23
    17   1    -0.08   0.08  -0.01     0.07   0.02   0.04     0.11  -0.03  -0.01
    18   1     0.04  -0.07  -0.02    -0.09  -0.01  -0.08    -0.08  -0.03  -0.23
    19   1     0.08  -0.13  -0.03    -0.08   0.02  -0.09    -0.02   0.01  -0.12
    20   1    -0.03  -0.28  -0.05    -0.04   0.38   0.09    -0.19   0.10   0.01
    21   1     0.04  -0.04  -0.14    -0.08  -0.06   0.24    -0.02  -0.01   0.04
    22   1    -0.23   0.04   0.03     0.31  -0.20  -0.06    -0.18   0.08   0.04
    23   1    -0.02   0.08  -0.09    -0.03  -0.08   0.25    -0.08  -0.01  -0.09
    24   1     0.10  -0.11   0.02    -0.01  -0.07   0.25    -0.06   0.03  -0.17
    25   1    -0.07   0.07   0.02    -0.31  -0.21  -0.07     0.15   0.10   0.04
    26   1     0.04   0.06   0.16     0.04  -0.07   0.20    -0.10  -0.01  -0.10
    27   1     0.15   0.35   0.06    -0.01   0.30   0.07    -0.04  -0.20  -0.04
    28   1     0.25   0.03  -0.07     0.08  -0.05  -0.08    -0.00  -0.22  -0.06
                     16                     17                     18
                      A                      A                      A
 Frequencies --    576.3817               626.8436               731.6886
 Red. masses --      3.1013                 4.9225                 2.6415
 Frc consts  --      0.6070                 1.1396                 0.8332
 IR Inten    --      7.8815                 7.5614                 5.9426
  Atom  AN      X      Y      Z        X      Y      Z        X      Y      Z
     1   8    -0.17  -0.04  -0.00     0.03   0.14  -0.12     0.02  -0.03   0.04
     2   6     0.14  -0.04   0.02    -0.02   0.22   0.30     0.01  -0.06  -0.11
     3   6     0.24   0.06  -0.09    -0.04  -0.02   0.05     0.01  -0.01   0.07
     4   6    -0.05   0.07  -0.02    -0.01  -0.12  -0.04     0.08  -0.02   0.11
     5   6    -0.10  -0.04  -0.01    -0.08  -0.24  -0.11    -0.04  -0.13  -0.06
     6   8     0.04   0.00  -0.00     0.00   0.07  -0.04     0.00   0.10  -0.12
     7   6    -0.05  -0.03   0.01    -0.06  -0.14  -0.07    -0.09  -0.05   0.16
     8   6     0.02   0.03  -0.00     0.04  -0.08   0.01    -0.04   0.07   0.02
     9   6     0.06   0.00  -0.04     0.02   0.00  -0.00     0.01   0.02  -0.01
    10   6    -0.09   0.00  -0.04     0.00   0.02  -0.01     0.04  -0.00  -0.02
    11   6    -0.05   0.00   0.01     0.06   0.10  -0.02     0.03   0.01  -0.02
    12   6     0.06  -0.04   0.10     0.02   0.05   0.08    -0.06   0.03  -0.03
    13   1     0.36   0.22  -0.06    -0.02  -0.11  -0.21     0.11  -0.06  -0.29
    14   1     0.20   0.07  -0.09    -0.38  -0.05  -0.01    -0.17   0.37   0.14
    15   1    -0.10  -0.03  -0.05    -0.08  -0.09  -0.04     0.24   0.25   0.17
    16   1    -0.13   0.24   0.12    -0.07  -0.01   0.02    -0.00   0.02  -0.19
    17   1    -0.14  -0.04  -0.00    -0.11  -0.33  -0.01    -0.03  -0.09  -0.11
    18   1     0.07  -0.02   0.14     0.10  -0.02   0.19     0.11  -0.00   0.09
    19   1    -0.07   0.05   0.04    -0.03  -0.12  -0.06    -0.04  -0.03   0.16
    20   1     0.07   0.20   0.06     0.05   0.00   0.03     0.12  -0.12  -0.05
    21   1     0.02  -0.08   0.16     0.15  -0.13   0.08    -0.07   0.19  -0.14
    22   1     0.27  -0.13  -0.05     0.05  -0.03  -0.01     0.12  -0.06  -0.02
    23   1    -0.00   0.02   0.23     0.04   0.05   0.04    -0.09  -0.07   0.10
    24   1    -0.06   0.02   0.20     0.09  -0.06   0.15     0.07  -0.00   0.11
    25   1    -0.28  -0.12  -0.07    -0.16  -0.04  -0.02    -0.07  -0.08  -0.03
    26   1    -0.04  -0.04   0.06     0.11   0.04   0.07     0.02  -0.08   0.10
    27   1    -0.18   0.06   0.03     0.02   0.18   0.01     0.06   0.15   0.03
    28   1     0.07  -0.04   0.09     0.25  -0.07   0.05    -0.15   0.29   0.05
                     19                     20                     21
                      A                      A                      A
 Frequencies --    789.6509               821.4170               843.5478
 Red. masses --      1.9827                 2.0714                 3.0731
 Frc consts  --      0.7284                 0.8234                 1.2884
 IR Inten    --      0.1011                 2.8269                 8.8845
  Atom  AN      X      Y      Z        X      Y      Z        X      Y      Z
     1   8     0.00   0.01   0.03     0.01  -0.01   0.00    -0.03   0.10  -0.01
     2   6    -0.02  -0.03  -0.12     0.08  -0.01   0.01     0.11   0.06  -0.08
     3   6    -0.03  -0.01   0.01     0.07  -0.06   0.06    -0.09  -0.05   0.06
     4   6     0.02  -0.00   0.06    -0.10  -0.06   0.00    -0.10  -0.09   0.01
     5   6    -0.02  -0.03  -0.01    -0.05  -0.02  -0.02     0.01   0.05   0.02
     6   8    -0.01   0.01   0.00    -0.01  -0.01   0.03    -0.00  -0.00   0.00
     7   6     0.03  -0.03  -0.09     0.02   0.11  -0.05     0.06  -0.00  -0.00
     8   6    -0.01  -0.08  -0.07     0.06  -0.03   0.02     0.02   0.04  -0.00
     9   6    -0.02  -0.03  -0.06     0.07  -0.05   0.02    -0.12   0.11   0.04
    10   6     0.01   0.04   0.04    -0.08  -0.05   0.02    -0.10  -0.01  -0.09
    11   6     0.02   0.12   0.07    -0.06  -0.02   0.03     0.07  -0.14   0.01
    12   6     0.01   0.02   0.13    -0.03   0.13  -0.05     0.16  -0.10   0.05
    13   1    -0.09  -0.08  -0.01     0.28   0.07  -0.25    -0.01  -0.02  -0.08
    14   1     0.09   0.15   0.06    -0.24   0.20   0.08    -0.15   0.19   0.12
    15   1     0.17   0.13   0.09     0.14   0.19   0.06     0.20   0.19   0.07
    16   1    -0.02  -0.00  -0.16    -0.21   0.04  -0.31    -0.10  -0.22  -0.43
    17   1    -0.11  -0.05  -0.00     0.07  -0.04   0.01     0.11   0.06   0.01
    18   1     0.00  -0.01   0.01    -0.00  -0.02   0.05    -0.02   0.01  -0.08
    19   1    -0.02   0.09  -0.05     0.08   0.09  -0.05     0.10   0.05   0.01
    20   1    -0.03   0.31   0.07    -0.03  -0.06   0.00     0.04   0.04   0.00
    21   1     0.01  -0.33   0.27    -0.03  -0.01  -0.02     0.18   0.05  -0.01
    22   1     0.17  -0.07  -0.05    -0.18   0.13   0.04     0.11  -0.08   0.01
    23   1    -0.05  -0.00   0.12     0.24   0.08  -0.24    -0.17   0.17   0.35
    24   1     0.05  -0.05  -0.02    -0.23   0.08  -0.28    -0.05  -0.06  -0.01
    25   1     0.09  -0.02   0.02     0.21   0.13   0.05    -0.17  -0.08  -0.11
    26   1     0.05   0.40  -0.31     0.04   0.06  -0.07     0.10  -0.19   0.09
    27   1    -0.03  -0.33  -0.09     0.03  -0.12  -0.01    -0.05  -0.06   0.04
    28   1    -0.13  -0.02   0.10    -0.13   0.09  -0.06     0.10  -0.12   0.04
                     22                     23                     24
                      A                      A                      A
 Frequencies --    858.9089               864.3937               890.4517
 Red. masses --      2.3279                 2.0511                 2.2383
 Frc consts  --      1.0118                 0.9029                 1.0457
 IR Inten    --      1.7898                 2.7499                 3.2671
  Atom  AN      X      Y      Z        X      Y      Z        X      Y      Z
     1   8    -0.01   0.05  -0.01     0.01   0.01  -0.02     0.02  -0.02   0.01
     2   6     0.03   0.04  -0.01     0.03   0.03   0.07    -0.06  -0.01  -0.01
     3   6     0.01  -0.09  -0.02     0.02  -0.08  -0.01     0.01  -0.07  -0.09
     4   6     0.01  -0.05   0.06     0.03  -0.01   0.00     0.08   0.04   0.11
     5   6    -0.06   0.12   0.05    -0.04   0.12   0.08    -0.10   0.05   0.04
     6   8     0.00   0.01  -0.04     0.02   0.02  -0.07    -0.00   0.01  -0.05
     7   6    -0.06   0.04  -0.02    -0.06  -0.06   0.09    -0.04  -0.00  -0.07
     8   6    -0.07  -0.10   0.03    -0.00  -0.05  -0.05     0.08   0.01  -0.01
     9   6     0.12  -0.05  -0.03    -0.01   0.02  -0.06     0.00   0.04   0.10
    10   6     0.09   0.11   0.02    -0.06   0.01   0.06    -0.07  -0.09  -0.06
    11   6    -0.06  -0.01  -0.04    -0.01  -0.04   0.05     0.06  -0.02  -0.05
    12   6     0.04  -0.08   0.02     0.02   0.04  -0.10    -0.01   0.04   0.08
    13   1    -0.02  -0.17  -0.12     0.05  -0.07  -0.09    -0.16  -0.26  -0.02
    14   1    -0.02   0.04   0.01    -0.16  -0.15  -0.06     0.16  -0.10  -0.07
    15   1     0.27   0.01   0.08     0.03  -0.13  -0.02     0.20  -0.07   0.08
    16   1    -0.01  -0.08  -0.19     0.09  -0.08   0.08     0.04   0.09   0.06
    17   1    -0.05   0.17  -0.02    -0.03   0.20  -0.03    -0.34   0.09  -0.03
    18   1    -0.00   0.01  -0.07     0.02   0.02  -0.05     0.02  -0.01   0.03
    19   1    -0.07   0.06  -0.01    -0.16  -0.20   0.05    -0.14   0.09  -0.04
    20   1    -0.19  -0.11   0.02     0.25   0.19   0.05    -0.05   0.08   0.01
    21   1    -0.17  -0.09   0.02    -0.09  -0.21   0.17     0.28  -0.04   0.06
    22   1    -0.14  -0.01  -0.05     0.35   0.02  -0.03    -0.17   0.23   0.13
    23   1     0.20  -0.04  -0.28    -0.10   0.02   0.25     0.14   0.15  -0.11
    24   1     0.12   0.19   0.40    -0.18   0.10  -0.24    -0.07  -0.14  -0.21
    25   1    -0.27   0.02   0.01     0.30   0.04   0.06    -0.03   0.14   0.00
    26   1    -0.22  -0.10   0.09    -0.12   0.04  -0.06     0.34  -0.15   0.14
    27   1    -0.21   0.15   0.02     0.24  -0.14   0.01    -0.00   0.17   0.02
    28   1     0.07  -0.13   0.01     0.05   0.12  -0.07     0.10   0.02   0.07
                     25                     26                     27
                      A                      A                      A
 Frequencies --    910.8704               969.1969               972.6915
 Red. masses --      1.5585                 2.2029                 2.1972
 Frc consts  --      0.7619                 1.2192                 1.2248
 IR Inten    --      3.5719                14.6601                 4.8121
  Atom  AN      X      Y      Z        X      Y      Z        X      Y      Z
     1   8    -0.01   0.01   0.00     0.01  -0.00   0.01    -0.01  -0.05   0.01
     2   6     0.01  -0.00  -0.03    -0.01  -0.01  -0.04    -0.00  -0.03   0.01
     3   6    -0.04   0.08   0.02     0.00  -0.08   0.04    -0.02   0.14   0.02
     4   6    -0.02  -0.02  -0.03     0.04   0.09  -0.05     0.01  -0.08  -0.03
     5   6     0.05  -0.06  -0.00     0.02   0.01  -0.12     0.06  -0.02   0.07
     6   8    -0.00   0.01  -0.02     0.01  -0.04   0.12     0.00   0.02  -0.07
     7   6    -0.01   0.00   0.05    -0.03   0.01  -0.00    -0.10   0.02  -0.04
     8   6    -0.01  -0.01  -0.09    -0.07  -0.11  -0.03    -0.04  -0.10   0.03
     9   6     0.03  -0.05   0.02     0.03   0.08  -0.00     0.06   0.07   0.01
    10   6    -0.03  -0.01   0.06    -0.01   0.07  -0.02    -0.04   0.03  -0.06
    11   6    -0.02  -0.01  -0.07     0.08  -0.10  -0.02     0.08  -0.05   0.04
    12   6     0.06  -0.04   0.03    -0.03   0.05   0.02    -0.04   0.06   0.00
    13   1    -0.05   0.11   0.12     0.06  -0.13  -0.23     0.03   0.32   0.28
    14   1     0.09   0.08   0.04    -0.26  -0.03   0.01     0.19   0.04   0.03
    15   1    -0.01   0.02  -0.02    -0.38   0.18  -0.03     0.18  -0.21  -0.05
    16   1    -0.00  -0.05  -0.06     0.13   0.05   0.25     0.02  -0.12  -0.11
    17   1     0.16  -0.06  -0.00    -0.01  -0.04  -0.04     0.20  -0.02   0.06
    18   1     0.01   0.01  -0.01    -0.02  -0.02   0.06    -0.01   0.03  -0.13
    19   1    -0.17   0.14   0.09     0.01   0.19   0.05    -0.27  -0.07  -0.06
    20   1    -0.00   0.32   0.04    -0.15   0.08   0.04    -0.21  -0.11   0.02
    21   1    -0.11  -0.24   0.23    -0.09  -0.23   0.14     0.01  -0.09   0.02
    22   1    -0.02   0.30   0.10     0.10   0.06   0.00    -0.03  -0.06  -0.03
    23   1     0.06  -0.09  -0.20     0.08   0.20   0.09     0.22   0.33   0.08
    24   1    -0.09  -0.01  -0.19    -0.05   0.18   0.12    -0.08   0.16   0.10
    25   1     0.06   0.33   0.14    -0.13   0.05  -0.02    -0.07  -0.12  -0.10
    26   1    -0.08  -0.20   0.20     0.20  -0.20   0.12     0.28   0.01  -0.03
    27   1     0.00   0.28   0.04     0.08   0.07   0.04     0.12  -0.13   0.01
    28   1     0.23   0.16   0.09    -0.15   0.24   0.07    -0.11  -0.01  -0.02
                     28                     29                     30
                      A                      A                      A
 Frequencies --    990.4926              1025.7274              1057.2767
 Red. masses --      1.8966                 2.2074                 1.6004
 Frc consts  --      1.0963                 1.3683                 1.0540
 IR Inten    --      1.6270                 2.7233                 2.4403
  Atom  AN      X      Y      Z        X      Y      Z        X      Y      Z
     1   8    -0.00  -0.01  -0.00    -0.02   0.03   0.01     0.00   0.02  -0.00
     2   6    -0.04   0.00   0.01     0.12  -0.01  -0.08    -0.04   0.01  -0.01
     3   6    -0.05   0.03  -0.07    -0.09  -0.03   0.07     0.02  -0.06  -0.03
     4   6     0.04   0.02   0.07     0.07   0.06  -0.07    -0.05   0.08   0.01
     5   6    -0.05  -0.09  -0.05    -0.01  -0.01   0.03     0.09  -0.04   0.03
     6   8    -0.01   0.01   0.00     0.01  -0.00  -0.03     0.01   0.01  -0.02
     7   6     0.07   0.07   0.01    -0.04  -0.08  -0.00    -0.09   0.04   0.04
     8   6    -0.07   0.01   0.05    -0.02   0.10   0.02     0.02  -0.02   0.02
     9   6     0.05  -0.00  -0.07     0.09  -0.07   0.02     0.03   0.01   0.02
    10   6    -0.09   0.04   0.03    -0.08  -0.01  -0.03    -0.02  -0.04  -0.02
    11   6     0.03  -0.05   0.04    -0.00   0.05   0.07     0.01   0.06   0.02
    12   6     0.11  -0.01  -0.03     0.10  -0.00   0.02     0.02  -0.09  -0.02
    13   1    -0.24  -0.15   0.10    -0.01   0.04  -0.02    -0.09  -0.25  -0.15
    14   1     0.19  -0.05  -0.05    -0.29  -0.16   0.01     0.02   0.09   0.01
    15   1     0.11  -0.02   0.06    -0.25  -0.10  -0.10    -0.21   0.33   0.06
    16   1    -0.06   0.15   0.03     0.29  -0.22   0.22    -0.17   0.28   0.06
    17   1    -0.13  -0.09  -0.06    -0.15  -0.01   0.03     0.41  -0.02   0.03
    18   1     0.04  -0.03   0.17     0.04  -0.02   0.11    -0.01   0.03  -0.09
    19   1     0.25   0.08   0.02    -0.24  -0.19  -0.04    -0.34  -0.08  -0.00
    20   1    -0.09  -0.15  -0.01    -0.21  -0.06  -0.05    -0.05  -0.03   0.01
    21   1    -0.31   0.12  -0.11    -0.02   0.19  -0.10    -0.01  -0.00   0.00
    22   1     0.05  -0.11  -0.09    -0.23   0.00   0.01    -0.05  -0.02   0.01
    23   1     0.09   0.10   0.05     0.17  -0.05  -0.25     0.18   0.23   0.03
    24   1    -0.27   0.28  -0.07    -0.16   0.10  -0.04     0.05  -0.17  -0.08
    25   1     0.14  -0.03  -0.00    -0.04   0.05  -0.01     0.08  -0.11  -0.05
    26   1    -0.05  -0.01  -0.01     0.12   0.18  -0.11    -0.11   0.12  -0.07
    27   1     0.29  -0.11   0.02    -0.10  -0.17  -0.02     0.08  -0.08  -0.02
    28   1     0.37  -0.05  -0.02    -0.08  -0.02   0.01     0.15  -0.23  -0.06
                     31                     32                     33
                      A                      A                      A
 Frequencies --   1067.3476              1071.0373              1085.9400
 Red. masses --      1.9734                 1.4286                 1.7598
 Frc consts  --      1.3246                 0.9656                 1.2227
 IR Inten    --      2.8374                 3.4200                29.9974
  Atom  AN      X      Y      Z        X      Y      Z        X      Y      Z
     1   8     0.01  -0.01  -0.00     0.00  -0.01   0.00    -0.00   0.01  -0.00
     2   6    -0.02   0.00   0.02     0.01  -0.01  -0.01     0.01   0.00  -0.01
     3   6     0.02  -0.06  -0.05    -0.03  -0.01   0.00    -0.01  -0.00   0.04
     4   6    -0.09   0.06   0.04     0.01   0.03   0.00     0.02   0.02  -0.01
     5   6     0.09  -0.04   0.10     0.01  -0.04   0.03    -0.05  -0.08   0.09
     6   8     0.01   0.02  -0.06    -0.00   0.01  -0.03    -0.01   0.01  -0.08
     7   6     0.08  -0.08  -0.02    -0.01   0.03  -0.02     0.10   0.11   0.05
     8   6    -0.03   0.04  -0.03     0.08  -0.01  -0.02     0.01  -0.03  -0.05
     9   6    -0.02  -0.05  -0.02    -0.06  -0.03   0.01    -0.03   0.01   0.04
    10   6    -0.02   0.09   0.01     0.04   0.03   0.00     0.01   0.02  -0.04
    11   6     0.04  -0.07   0.01    -0.06  -0.06   0.02     0.03  -0.01   0.02
    12   6    -0.02   0.08   0.03     0.06   0.07  -0.01    -0.00  -0.06  -0.06
    13   1     0.01  -0.06  -0.02    -0.02  -0.00   0.01     0.03   0.03  -0.01
    14   1    -0.01  -0.07  -0.05    -0.07  -0.10  -0.03    -0.28  -0.29  -0.07
    15   1    -0.01   0.15   0.06    -0.02  -0.04  -0.01     0.07  -0.29  -0.08
    16   1    -0.24   0.27  -0.02    -0.03   0.11   0.07    -0.13   0.29   0.19
    17   1     0.10  -0.08   0.14     0.01  -0.04   0.03    -0.01  -0.05   0.06
    18   1    -0.03   0.05  -0.22     0.00   0.01   0.01     0.06  -0.02   0.20
    19   1     0.03  -0.29  -0.08    -0.23   0.25   0.03     0.09   0.19   0.07
    20   1     0.02   0.05  -0.02    -0.17   0.04  -0.00    -0.02   0.15   0.02
    21   1    -0.04   0.02  -0.01     0.43  -0.05   0.04    -0.24  -0.12   0.08
    22   1    -0.05  -0.01  -0.01    -0.22  -0.35  -0.08    -0.02   0.11   0.06
    23   1    -0.16  -0.31  -0.13    -0.07  -0.05   0.01     0.09   0.18   0.03
    24   1    -0.15   0.32   0.15    -0.01   0.16   0.15     0.19  -0.22   0.03
    25   1    -0.22   0.25   0.06     0.05  -0.25  -0.07    -0.16   0.06  -0.02
    26   1     0.37  -0.08   0.05    -0.31  -0.06   0.01    -0.03   0.02  -0.04
    27   1    -0.07  -0.01   0.03     0.09  -0.03   0.03    -0.16  -0.07  -0.01
    28   1    -0.11  -0.02  -0.00     0.16   0.38   0.09    -0.33  -0.06  -0.07
                     34                     35                     36
                      A                      A                      A
 Frequencies --   1101.6071              1149.1376              1154.2659
 Red. masses --      2.5387                 2.4429                 1.5709
 Frc consts  --      1.8152                 1.9006                 1.2332
 IR Inten    --      1.2468                47.4247                14.4587
  Atom  AN      X      Y      Z        X      Y      Z        X      Y      Z
     1   8    -0.00  -0.00   0.00    -0.03  -0.02  -0.00     0.01  -0.03   0.01
     2   6    -0.03   0.00  -0.00     0.19  -0.00   0.02    -0.04  -0.01   0.01
     3   6     0.02   0.03   0.02    -0.12  -0.00  -0.09    -0.01   0.02  -0.01
     4   6     0.04  -0.03  -0.02    -0.01   0.06   0.13     0.03  -0.01  -0.02
     5   6    -0.05   0.03  -0.05     0.07  -0.06  -0.10    -0.04  -0.01  -0.02
     6   8    -0.00  -0.01   0.03    -0.00   0.01   0.05    -0.02  -0.01  -0.00
     7   6    -0.09   0.10   0.03    -0.13   0.04  -0.01     0.00   0.04   0.03
     8   6     0.15   0.01  -0.00     0.04  -0.03   0.04     0.00  -0.03  -0.03
     9   6    -0.08  -0.14  -0.03    -0.02  -0.01  -0.02    -0.02   0.01   0.04
    10   6    -0.08   0.13   0.03     0.01  -0.00   0.01     0.05  -0.00  -0.04
    11   6     0.14  -0.01   0.02    -0.01  -0.01   0.01    -0.06  -0.06   0.06
    12   6    -0.05  -0.10  -0.03     0.02   0.05  -0.03     0.09   0.11  -0.04
    13   1    -0.01  -0.04  -0.04    -0.20   0.05   0.24    -0.10  -0.10  -0.01
    14   1     0.04   0.10   0.04    -0.03  -0.46  -0.19     0.18   0.22   0.07
    15   1    -0.03  -0.02  -0.02     0.18  -0.00   0.11    -0.13   0.15   0.01
    16   1     0.08  -0.06   0.03    -0.04   0.04  -0.08     0.09  -0.08   0.02
    17   1     0.10   0.08  -0.10     0.09  -0.01  -0.16     0.19   0.08  -0.12
    18   1     0.03  -0.03   0.17    -0.05   0.03  -0.20     0.09  -0.07   0.43
    19   1    -0.16   0.15   0.04    -0.01  -0.02  -0.03    -0.08  -0.31  -0.08
    20   1     0.35   0.01   0.00     0.34  -0.09   0.03     0.16   0.05   0.01
    21   1     0.17   0.01  -0.00    -0.04   0.00  -0.02     0.03  -0.08   0.05
    22   1    -0.19  -0.26  -0.07     0.12   0.11   0.03     0.03   0.15   0.08
    23   1    -0.10  -0.19  -0.09    -0.03  -0.01   0.03    -0.07  -0.10  -0.04
    24   1    -0.09   0.16   0.06     0.10  -0.14  -0.03     0.07   0.01   0.12
    25   1    -0.22   0.32   0.08    -0.10   0.15   0.05    -0.16   0.04  -0.02
    26   1     0.17   0.01   0.00    -0.09  -0.00  -0.01     0.09   0.02  -0.04
    27   1     0.25  -0.04   0.01    -0.26  -0.02   0.00    -0.41  -0.15   0.01
    28   1    -0.14  -0.32  -0.10    -0.29   0.01  -0.06     0.14  -0.22  -0.14
                     37                     38                     39
                      A                      A                      A
 Frequencies --   1158.2332              1200.1743              1220.4581
 Red. masses --      2.2458                 1.3961                 1.3710
 Frc consts  --      1.7751                 1.1848                 1.2032
 IR Inten    --      1.0742                18.9822                42.0840
  Atom  AN      X      Y      Z        X      Y      Z        X      Y      Z
     1   8    -0.00  -0.01  -0.02     0.00   0.00   0.00    -0.01   0.01  -0.00
     2   6     0.01   0.02   0.10    -0.04  -0.01  -0.03     0.06   0.00   0.00
     3   6     0.01  -0.00  -0.08     0.02   0.05   0.05    -0.02  -0.01  -0.02
     4   6    -0.04  -0.02   0.07     0.01  -0.05   0.01    -0.01   0.02   0.03
     5   6     0.02   0.03  -0.09    -0.02   0.04  -0.07     0.01  -0.01   0.01
     6   8    -0.01   0.00   0.04     0.01   0.00   0.04    -0.03  -0.00  -0.02
     7   6     0.07  -0.09   0.11    -0.03  -0.03   0.03     0.05   0.02   0.01
     8   6    -0.02   0.06  -0.11    -0.04  -0.01  -0.01    -0.01  -0.03   0.01
     9   6     0.03  -0.03   0.08     0.04   0.02   0.02     0.00   0.05  -0.03
    10   6    -0.02   0.03  -0.08    -0.01  -0.04  -0.03     0.01  -0.04   0.05
    11   6     0.03   0.01   0.07    -0.02   0.04   0.03    -0.02   0.04  -0.08
    12   6    -0.03  -0.04  -0.10     0.05  -0.04  -0.02    -0.05  -0.03   0.02
    13   1    -0.02   0.04   0.11    -0.06  -0.11  -0.08     0.02   0.08   0.06
    14   1     0.18  -0.02  -0.06    -0.17  -0.17  -0.04    -0.05  -0.15  -0.06
    15   1     0.10   0.16   0.11     0.21  -0.30  -0.05     0.01   0.07   0.05
    16   1     0.03  -0.20  -0.21    -0.26   0.41   0.08     0.04  -0.08  -0.02
    17   1    -0.06   0.14  -0.22     0.30   0.10  -0.13     0.28   0.16  -0.20
    18   1     0.01  -0.02   0.11    -0.04   0.03  -0.16     0.12  -0.08   0.55
    19   1    -0.09   0.08   0.15     0.10   0.04   0.05    -0.14  -0.02  -0.01
    20   1    -0.37   0.27  -0.04    -0.03   0.01   0.00    -0.25  -0.02   0.00
    21   1    -0.01  -0.09   0.10     0.33  -0.03   0.03     0.20  -0.03   0.01
    22   1    -0.29  -0.04   0.05     0.03   0.12   0.05     0.04  -0.11  -0.06
    23   1     0.17   0.09  -0.14    -0.13  -0.27  -0.12    -0.12  -0.10   0.04
    24   1     0.05  -0.01   0.10    -0.14   0.19   0.03    -0.16   0.20  -0.02
    25   1    -0.12  -0.12  -0.11     0.00  -0.04  -0.03     0.20  -0.10   0.03
    26   1    -0.03   0.12  -0.09     0.19   0.09  -0.05     0.24  -0.04   0.05
    27   1     0.13  -0.18   0.00    -0.06  -0.07  -0.01     0.06   0.16  -0.03
    28   1    -0.18   0.21  -0.02     0.03   0.05   0.00    -0.16  -0.19  -0.03
                     40                     41                     42
                      A                      A                      A
 Frequencies --   1246.6379              1259.1911              1278.1733
 Red. masses --      1.3903                 1.3582                 1.4583
 Frc consts  --      1.2730                 1.2688                 1.4037
 IR Inten    --      6.5798                 0.3129                 9.5414
  Atom  AN      X      Y      Z        X      Y      Z        X      Y      Z
     1   8     0.02   0.03   0.00     0.01   0.03  -0.01     0.02   0.01  -0.01
     2   6    -0.10  -0.01  -0.07    -0.03   0.00  -0.01    -0.09   0.01   0.02
     3   6     0.02  -0.04   0.02    -0.01  -0.06  -0.02     0.02  -0.03  -0.03
     4   6    -0.02   0.01   0.04    -0.00   0.04   0.02    -0.00   0.01   0.01
     5   6     0.04  -0.00  -0.06     0.02  -0.05   0.02     0.02  -0.01   0.02
     6   8    -0.01   0.01   0.03     0.01   0.01  -0.01    -0.01  -0.00  -0.01
     7   6    -0.01  -0.02   0.00    -0.03   0.06   0.03    -0.00   0.00  -0.02
     8   6     0.02   0.02  -0.01    -0.02  -0.05  -0.01    -0.02  -0.01   0.08
     9   6    -0.01  -0.02   0.00     0.00   0.03   0.05     0.03   0.01  -0.09
    10   6    -0.00   0.03   0.01     0.02  -0.03  -0.05    -0.03  -0.01   0.01
    11   6     0.00  -0.03  -0.00    -0.03   0.03   0.02     0.04  -0.01   0.05
    12   6     0.01   0.04   0.05    -0.01  -0.03  -0.04     0.05  -0.04  -0.04
    13   1     0.37   0.43   0.06     0.26   0.33   0.09     0.20   0.24   0.06
    14   1    -0.20  -0.27  -0.08    -0.02  -0.06  -0.03     0.02  -0.01  -0.02
    15   1     0.19  -0.18   0.00    -0.05   0.10   0.03    -0.03   0.11   0.04
    16   1    -0.05   0.06  -0.01     0.15  -0.21  -0.03     0.05  -0.08  -0.02
    17   1    -0.02   0.17  -0.29    -0.28  -0.13   0.11    -0.01   0.03  -0.03
    18   1     0.01  -0.01   0.10    -0.03   0.02  -0.16     0.02  -0.01   0.13
    19   1    -0.12  -0.30  -0.08     0.06   0.27   0.10    -0.12   0.22   0.04
    20   1     0.02   0.03  -0.01     0.21   0.00   0.03    -0.24  -0.15   0.01
    21   1    -0.16   0.01  -0.01     0.08  -0.08   0.05     0.31   0.09  -0.06
    22   1    -0.08  -0.09  -0.02     0.04   0.19   0.10     0.24   0.12  -0.04
    23   1     0.11   0.16   0.04    -0.15  -0.25  -0.09    -0.08  -0.12   0.00
    24   1     0.08  -0.10  -0.01    -0.14   0.26   0.11     0.08  -0.23  -0.13
    25   1    -0.00  -0.01   0.00     0.01  -0.15  -0.08    -0.18   0.38   0.12
    26   1    -0.11  -0.05   0.02     0.17   0.09  -0.04    -0.08   0.04  -0.03
    27   1     0.04   0.01   0.01     0.09  -0.05  -0.01    -0.25  -0.10   0.01
    28   1     0.28  -0.18  -0.00     0.20  -0.24  -0.09    -0.09   0.31   0.06
                     43                     44                     45
                      A                      A                      A
 Frequencies --   1291.2977              1322.5101              1337.0026
 Red. masses --      1.2930                 1.2638                 1.2641
 Frc consts  --      1.2703                 1.3024                 1.3314
 IR Inten    --     10.8263                 2.6316                 6.6375
[...]
 2,-0.00036793,-0.00060525,0.00034037,0.00011195,-0.00025262,-0.0000209
 9,0.00012035,-0.00048508,0.00085536,0.01792959,0.00087037,-0.02132454,
 -0.13596920,-0.00450552,0.21836262,0.00011273,-0.00004230,0.00002577,-
 0.00005113,0.00011909,-0.00006763,-0.00000720,0.00000678,0.00002519,-0
 .00003572,-0.00002496,-0.00001741,-0.00019556,0.00006484,-0.00000329,0
 .00017500,-0.00021950,0.00008303,0.00029850,0.00132421,0.00016195,-0.0
 1143499,-0.00115840,-0.01811658,-0.10624658,-0.00003005,-0.10447318,0.
 01068376,0.00041036,0.02200779,0.00143127,-0.00060886,0.00015790,-0.00
 006522,-0.00008856,0.00008298,0.00001395,-0.00000322,-0.00000433,-0.00
 001363,0.00000932,0.00001033,0.00002210,-0.00000787,0.00001031,0.00000
 818,-0.00002540,-0.00000693,-0.00001549,-0.00000293,0.00002461,0.00005
 272,-0.00003406,0.00006650,0.00067597,-0.00051138,0.00035251,-0.001294
 43,-0.00399736,0.00038798,0.00026620,0.00059237,0.00021683,0.11685944,
 0.00010175,0.00004733,0.00003031,-0.00005695,-0.00002793,-0.00006509,0
 .00000310,0.00001257,0.00000397,0.00003268,0.00000614,0.00000814,-0.00
 041575,0.00018834,0.00003816,0.00020846,-0.00027667,0.00008133,-0.0007
 8314,0.00192693,-0.00122280,-0.01474386,-0.00181488,-0.02563584,0.0001
 7460,-0.05154605,-0.00409092,0.00061669,-0.00052099,0.00162443,-0.0004
 8857,0.00010660,-0.00085125,0.00006101,-0.00024111,0.00003986,0.000007
 19,0.00000767,-0.00000168,-0.00001014,0.00000892,0.00001044,0.00002768
 ,-0.00002716,0.00002059,0.00001263,0.00002655,0.00000455,0.00001362,0.
 00001483,0.00000434,0.00006644,-0.00008432,0.00005248,0.00046362,-0.00
 035846,0.00055147,-0.00321738,-0.00441052,-0.00024548,0.00072104,0.001
 14657,0.00045195,0.00469087,0.05353339,0.00013459,-0.00006532,0.000043
 88,-0.00018726,0.00005145,-0.00002532,0.00003294,-0.00004260,-0.000002
 13,-0.00004383,-0.00003028,-0.00006143,-0.00000046,-0.00025585,0.00011
 199,0.00015620,0.00004655,0.00011385,-0.00001896,0.00044243,-0.0001104
 6,-0.00074261,-0.00009015,-0.00092700,-0.10432636,-0.00451844,-0.24018
 918,-0.01159272,0.00029635,-0.02447056,-0.00157810,0.00062256,0.000665
 93,0.00030766,-0.00018295,0.00006808,-0.00000166,-0.00002125,-0.000002
 95,-0.00000003,0.00000768,0.00000826,0.00000966,-0.00001024,0.00002208
 ,0.00000938,-0.00002015,0.00000860,0.00000617,0.00001394,-0.00000051,0
 .00002755,0.00002788,0.00004063,0.00034434,-0.00065828,0.00021561,-0.0
 0002786,0.00003515,0.00136222,-0.00025067,-0.00044674,0.00087896,0.113
 17196,0.00401265,0.26422478,0.00022161,0.00023891,0.00001450,-0.000157
 27,-0.00012340,-0.00009471,-0.00003714,0.00012132,0.00004195,-0.000376
 15,-0.00028190,-0.00002255,0.00100252,-0.00091224,0.00005615,0.0000299
 7,0.00009656,-0.00003694,-0.00270355,-0.00298936,-0.00024543,0.0125306
 1,-0.01802295,0.00091938,-0.13553282,0.12186916,-0.00812408,-0.0132318
 7,0.01858848,-0.00235163,-0.00229268,-0.00183328,0.00469845,-0.0003226
 8,-0.00054792,-0.00003349,0.00003195,0.00003685,-0.00002029,-0.0000008
 2,0.00001161,-0.00000517,-0.00000681,0.00001412,-0.00000285,0.00009649
 ,-0.00016143,-0.00002060,0.00005514,0.00005024,0.00001727,-0.00000412,
 0.00000639,-0.00000335,0.00001521,-0.00002078,0.00017001,0.00089724,0.
 00082020,0.00005439,0.00080541,0.00086626,0.00008819,-0.00953401,0.012
 64787,-0.00089767,0.14740780,0.00029667,-0.00006048,0.00003628,-0.0002
 7057,0.00027360,-0.00004982,-0.00002389,0.00003677,0.00006915,-0.00061
 434,-0.00038045,-0.00010898,0.00195344,-0.00085949,0.00001439,-0.00025
 992,-0.00000825,-0.00021042,-0.00564711,-0.00290674,-0.00036796,0.0163
 1030,-0.02287238,0.00156550,0.12133646,-0.21869491,0.00970210,-0.00135
 543,0.00195713,-0.00033939,-0.00032100,0.00105900,-0.00006055,-0.00035
 293,0.00024196,0.00033886,0.00004292,-0.00001340,-0.00002690,-0.000013
 90,0.00001034,-0.00000360,0.00000715,0.00003262,0.00000697,0.00012195,
 -0.00027260,-0.00001612,-0.00001491,0.00002239,0.00004845,0.00003967,-
 0.00003359,0.00000539,-0.00014107,0.00033777,0.00012279,0.00014688,0.0
 0111438,-0.00054950,-0.00000622,0.00081735,0.00057753,-0.00051770,0.00
 103224,0.00082554,-0.13101157,0.23845561,-0.00012858,-0.00015727,0.000
 03556,0.00010089,0.00004018,0.00004600,0.00002427,-0.00005583,-0.00001
 368,0.00001168,-0.00000004,-0.00005819,-0.00001532,-0.00006919,0.00036
 763,0.00002537,0.00012213,0.00002945,-0.00009327,0.00010174,0.00034479
 ,0.00075364,-0.00220686,-0.00073407,-0.00866413,0.01042826,-0.05085604
 ,0.01558995,-0.02233446,0.00084079,0.00283007,0.00161135,-0.00405031,0
 .00006304,0.00055179,0.00006283,-0.00001587,-0.00002214,0.00000389,-0.
 00000018,-0.00000951,-0.00000068,-0.00000861,0.00000377,0.00000992,-0.
 00000951,0.00000068,0.00000530,-0.00002959,-0.00001932,-0.00000424,0.0
 0002484,0.00000914,0.00002658,0.00031962,-0.00039048,0.00023218,0.0004
 6838,-0.00015029,0.00021580,-0.00024960,0.00025476,-0.00000950,-0.0169
 5929,0.02444183,-0.00108934,0.00627497,-0.01086148,0.05247369,-0.00000
 014,-0.00016494,0.00001120,0.00103309,0.00087812,0.00003659,-0.0002966
 7,0.00030419,-0.00001594,-0.00011019,-0.00005940,0.00001470,0.00012096
 ,0.00000517,-0.00004756,0.00005971,-0.00013590,-0.00006376,-0.00042286
 ,0.00047433,0.00018604,-0.00219617,0.00154955,0.00463892,-0.01357515,-
 0.01818097,-0.00342937,-0.13854842,-0.12216321,-0.01581126,0.01253828,
 0.01741347,0.00198316,-0.00242140,0.00299021,-0.00015187,0.00008278,0.
 00013878,-0.00002491,-0.00001806,-0.00000560,0.00000702,0.00000754,0.0
 0000530,-0.00001281,0.00003450,-0.00004748,-0.00002079,0.00008914,0.00
 007265,-0.00003881,-0.00001052,0.00000248,0.00001755,0.00006742,-0.000
 08207,-0.00001810,0.00037918,0.00047630,0.00000429,-0.00071392,-0.0015
 7742,0.00022095,0.00114202,0.00030627,0.00004508,0.00016854,0.00033033
 ,-0.00067994,0.15063572,0.00061620,0.00003012,-0.00001628,-0.00245237,
 -0.00052220,0.00012301,0.00054881,-0.00049705,0.00001659,0.00007138,0.
 00007410,-0.00012305,0.00008041,0.00013583,0.00006007,-0.00014497,-0.0
 0001012,-0.00004028,0.00047706,0.00038181,-0.00045677,0.00023952,0.001
 12718,0.00028470,0.00057711,0.00077480,0.00035220,-0.12167095,-0.21397
 252,-0.01984000,-0.01664885,-0.02279081,-0.00305269,0.00563600,-0.0033
 8979,0.00032367,-0.00010931,-0.00025332,0.00000478,-0.00000677,0.00000
 146,-0.00000602,-0.00000213,0.00001017,0.00002608,-0.00005674,-0.00002
 397,0.00002607,-0.00009274,-0.00003961,0.00002226,0.00003166,-0.000019
 72,0.00002119,-0.00004915,-0.00002715,0.00009845,-0.00001040,-0.000038
 53,-0.00007229,0.00000563,0.00001479,-0.00016853,0.00003665,0.00011826
 ,0.00043422,-0.00028857,0.00055291,0.00039342,0.13149094,0.23338976,0.
 00010670,-0.00007357,-0.00010018,-0.00020596,0.00008056,0.00042578,0.0
 0000589,-0.00004732,-0.00008711,0.00007698,0.00002981,0.00002051,-0.00
 010970,0.00001976,-0.00001916,-0.00003396,0.00004591,0.00008398,0.0001
 3422,-0.00044056,-0.00009603,0.00284459,-0.00129500,-0.00404501,0.0160
 4125,0.02208269,0.00212947,-0.01641261,-0.02059563,-0.05282237,-0.0002
 8358,0.00090868,-0.00075607,0.00029868,-0.00040111,0.00064166,-0.00001
 747,-0.00001500,0.00000697,-0.00000371,-0.00002561,0.00000245,-0.00000
 070,-0.00000311,0.00000469,-0.00002393,0.00002887,0.00000741,-0.000053
 44,-0.00005780,0.00004508,0.00000570,-0.00001098,-0.00000427,-0.000049
 26,0.00003879,-0.00001660,0.00028524,0.00006139,0.00019118,0.00101181,
 0.00128124,0.00012008,-0.00084441,0.00025475,0.00097651,-0.00069775,-0
 .00039273,0.00085082,0.01459761,0.02215742,0.05463754,0.00029663,0.000
 26377,0.00009150,-0.00040482,-0.00009314,0.00024043,0.00001554,0.00003
 785,-0.00005881,-0.00001347,0.00000076,0.00002916,0.00001446,-0.000062
 88,-0.00007363,0.00005819,0.00000863,0.00004160,-0.00013074,0.00007133
 ,0.00015226,0.00139185,0.00054087,0.00021323,0.01070024,-0.00188441,0.
 02197780,-0.10628679,0.00724699,-0.10437134,-0.01108593,0.00224359,-0.
 01769654,0.00037495,-0.00138953,0.00025907,0.00000620,0.00001844,-0.00
 001200,0.00000814,0.00000665,0.00000055,-0.00000461,-0.00000592,0.0000
 0467,0.00002228,0.00000864,-0.00000710,0.00003796,0.00002213,-0.000002
 56,-0.00000995,0.00000778,-0.00001715,-0.00014007,0.00001519,-0.000010
 57,-0.00016221,0.00003901,-0.00040408,0.00010078,0.00031467,-0.0002349
 6,-0.00263168,-0.00056286,0.00432030,0.00114483,0.00000515,-0.00084842
 ,-0.00964216,0.00173360,-0.01719754,0.11666692,-0.00048998,-0.00036132
 ,-0.00013623,0.00082278,0.00000985,-0.00034217,-0.00006046,0.00004654,
 0.00007153,-0.00000203,-0.00001638,-0.00000320,0.00001146,0.00000347,0
 .00011232,-0.00004134,0.00003906,-0.00005119,-0.00001635,-0.00023824,-
 0.00002155,0.00055197,0.00008491,0.00081581,-0.00000778,-0.00048178,-0
 .00045614,0.00707920,-0.05296494,0.01714002,0.01462548,-0.00341525,0.0
 2581309,0.00062801,0.00199746,0.00114507,-0.00000371,0.00002431,0.0000
 0649,-0.00001021,-0.00001255,-0.00001221,-0.00000041,0.00000574,-0.000
 01115,-0.00001334,0.00000369,0.00000568,-0.00002261,-0.00001194,-0.000
 00594,-0.00000168,0.00000876,-0.00001951,-0.00000315,0.00004862,-0.000
 20722,-0.00021537,0.00008392,0.00003102,-0.00003712,-0.00000356,-0.000
 14162,0.00034986,0.00097118,-0.00004924,-0.00032959,0.00016439,-0.0002
 8640,-0.01238249,0.00272096,-0.02399543,-0.01247408,0.05503675,0.00019
 032,-0.00004261,-0.00005419,-0.00003525,0.00027578,0.00020908,-0.00004
 181,0.00002280,-0.00006992,0.00004880,0.00002457,0.00001897,-0.0001548
 7,0.00000808,-0.00012197,0.00009300,0.00001915,0.00013469,0.00023645,0
 .00013783,0.00003456,-0.00145581,-0.00058931,0.00063209,-0.01164623,0.
 00129995,-0.02444157,-0.10406032,0.01751161,-0.23920632,0.00007429,-0.
 00002542,0.00073242,0.00013046,-0.00040443,0.00017766,0.00000769,0.000
 01793,0.00000241,0.00000373,0.00000162,0.00001049,0.00000515,-0.000011
 52,0.00001094,-0.00000230,0.00002811,-0.00000013,0.00000810,0.00000253
 ,0.00002404,-0.00000783,0.00000376,0.00000023,0.00000510,-0.00021807,0
 .00006498,0.00085784,0.00078139,0.00052307,0.00023537,-0.00019711,0.00
 045960,0.00432273,0.00022481,-0.00296654,0.00001734,-0.00048747,0.0009
 3082,-0.00168002,-0.00058072,-0.00259773,0.11267241,-0.01848227,0.2631
 8599,0.00106399,0.00068886,-0.00038175,-0.00094791,0.00077953,-0.00016
 427,0.00002219,0.00001076,0.00012312,-0.00013766,0.00011446,-0.0000285
 0,-0.00035056,0.00052822,0.00123608,0.00002096,-0.00003989,-0.00020390
 ,-0.00099015,-0.00339182,-0.00187348,0.00062192,-0.00004284,-0.0002189
 6,-0.00077383,0.00362463,-0.00145072,-0.01195367,-0.00006123,0.0137815
 8,-0.15434481,-0.00263559,0.12846956,-0.01314964,-0.00204110,0.0149842
 7,0.00005035,-0.00003170,-0.00002943,-0.00002240,0.00003180,-0.0000183
 2,0.00001029,-0.00000680,-0.00000349,0.00002892,-0.00006183,-0.0000181
 4,-0.00028837,-0.00036060,-0.00002099,0.00001181,0.00000878,0.00003762
 ,0.00009602,-0.00005278,0.00021100,-0.00006013,0.00000940,-0.00001715,
 -0.00002326,0.00000966,0.00004331,0.00008456,0.00002416,0.00024653,-0.
 00061290,-0.00005505,0.00093742,0.00076255,0.00000451,-0.00024439,0.00
 025165,-0.00064576,-0.00025514,0.16799952,0.00151388,-0.00012013,-0.00
 045801,-0.00206170,0.00067916,0.00082582,0.00010559,0.00014808,-0.0000
 9142,-0.00010799,0.00027093,0.00009003,-0.00104711,0.00072805,0.001559
 28,-0.00004363,-0.00007204,-0.00020036,-0.00215082,-0.00545421,-0.0016
 3891,0.00005247,-0.00054792,-0.00011148,0.00264358,-0.00528139,0.00157
 125,0.01830701,0.00082174,-0.02348570,-0.00200725,-0.04778280,0.000858
 52,-0.01747592,-0.00088476,0.02276578,0.00006092,0.00000208,-0.0000476
 9,-0.00001151,0.00003726,0.00002221,0.00001745,-0.00000925,-0.00000869
 ,0.00007585,-0.00004419,-0.00006052,-0.00042024,-0.00057914,0.00002370
 ,-0.00001094,0.00001629,0.00000102,0.00026885,-0.00000971,-0.00017083,
 -0.00000415,0.00011674,0.00000098,0.00000162,0.00020536,0.00001950,-0.
 00028738,-0.00002830,0.00015842,0.00152749,0.00005251,-0.00126975,-0.0
 0086653,0.00087300,-0.00022672,-0.00060598,0.00116933,0.00044608,0.002
 57500,0.05479061,-0.00135356,-0.00126199,0.00051645,0.00219789,-0.0002
 7305,0.00016898,-0.00036857,0.00010262,-0.00016729,0.00005760,-0.00005
 874,-0.00005509,-0.00000023,-0.00040029,0.00018089,0.00011722,0.000173
 58,0.00007731,-0.00008417,-0.00015161,0.00070515,-0.00023302,0.0000227
 0,-0.00001215,-0.00021407,-0.00032451,0.00096773,-0.00236753,0.0001488
 4,0.00132582,0.12853088,0.00247291,-0.20738473,-0.00302954,0.00039569,
 0.00219357,0.00001739,0.00008960,-0.00000035,-0.00004870,-0.00008676,-
 0.00001714,-0.00000111,-0.00000728,0.00002129,-0.00002809,0.00002874,0
 .00003591,-0.00004233,0.00002001,-0.00000718,0.00003151,0.00000216,0.0
 0001307,-0.00020150,-0.00010426,0.00045558,0.00003854,0.00001026,-0.00
 000596,0.00002005,-0.00000141,-0.00004076,-0.00022453,0.00011078,0.000
 48771,0.00025081,0.00016793,0.00012238,0.00005198,-0.00050171,-0.00005
 412,0.00016863,-0.00046647,0.00080012,-0.14077057,-0.00109708,0.220884
 64,0.00091231,0.00019789,0.00016722,-0.00077479,0.00123618,0.00033671,
 -0.00003717,-0.00016613,-0.00004490,0.00007732,0.00001494,-0.00010508,
 0.00005066,-0.00023691,-0.00004885,0.00002238,0.00005633,0.00024452,0.
 00059615,0.00082473,-0.00172303,-0.00017208,-0.00001018,0.00030177,0.0
 0036570,-0.00073633,-0.00136928,-0.01071821,0.00142485,-0.01534961,-0.
 12674994,0.00438516,-0.11520156,-0.01181473,-0.00157591,-0.01656144,0.
 00000081,-0.00005834,0.00004920,0.00002258,0.00004701,0.00005421,0.000
 00782,-0.00003000,0.00005252,-0.00001434,0.00002079,0.00003112,-0.0000
 3107,0.00000429,0.00002779,-0.00000349,0.00000058,0.00010905,-0.000189
 70,-0.00021898,0.00088599,0.00024188,-0.00000371,0.00005250,-0.0000761
 4,0.00000452,0.00004173,-0.00013691,0.00013650,0.00086787,0.00037716,-
 0.00000904,0.00030034,0.00086675,-0.00016017,0.00045171,-0.00119404,0.
 00312070,0.00019625,0.01233508,-0.00049872,0.01738980,0.13758299,0.001
 36599,-0.00005301,0.00042358,-0.00225577,0.00124510,-0.00094357,0.0000
 2445,-0.00000302,0.00003405,0.00001679,0.00005488,-0.00001698,0.000159
 22,-0.00007877,-0.00026629,-0.00012326,-0.00008030,0.00020378,0.000873
 23,0.00102600,-0.00114938,-0.00000475,-0.00019552,0.00001346,-0.000962
 64,0.00100663,0.00091531,0.01675231,-0.00249416,0.02522747,0.00452992,
 -0.04815891,0.00865706,-0.01595710,-0.00088641,-0.02436606,0.00004664,
 -0.00006995,0.00006129,0.00010809,0.00010118,0.00009799,-0.00000573,-0
 .00002524,0.00004191,0.00002454,-0.00000644,0.00000287,-0.00001058,-0.
 00002025,0.00003911,-0.00003979,0.00000255,0.00010879,0.00003931,0.000
 10542,0.00067352,-0.00002360,-0.00014881,-0.00000283,-0.00000862,0.000
 13454,-0.00000725,-0.00003181,0.00015826,-0.00081685,-0.00045504,-0.00
 003253,-0.00008954,-0.00080513,0.00107610,0.00019066,0.00401777,-0.004
 55169,-0.00037201,0.00040687,-0.00021103,0.00045680,-0.00464256,0.0568
 9529,0.00153924,0.00099324,0.00075538,-0.00249645,0.00067796,0.0001162
 0,0.00033604,-0.00018663,-0.00021605,0.00002222,0.00008350,-0.00001210
 ,-0.00012203,-0.00004009,0.00016645,0.00010637,0.00000865,0.00007601,0
 .00055035,0.00019052,0.00054292,-0.00000788,0.00003366,0.00010349,0.00
 045080,-0.00019682,0.00073658,0.00060000,0.00056501,-0.00005120,-0.114
 78399,0.00733783,-0.22651126,-0.00055794,-0.00140540,-0.00185088,-0.00
 003077,-0.00010219,0.00000299,0.00002824,0.00004391,0.00002184,-0.0000
 0702,-0.00001200,0.00003277,0.00003899,-0.00000520,-0.00001786,-0.0000
 4054,-0.00006020,0.00000913,0.00003253,0.00001169,0.00003246,-0.000337
 71,0.00003942,0.00056925,0.00007096,0.00000849,-0.00012187,-0.00004050
 ,-0.00001491,0.00000253,-0.00040710,-0.00005057,0.00053918,-0.00005061
 ,0.00005655,0.00023061,0.00002188,0.00062540,0.00026957,0.00049137,0.0
 0004897,0.00136584,-0.01426310,0.00084674,-0.02198221,0.12884813,-0.00
 908342,0.24404898,-0.00077250,0.00321011,0.00248540,-0.01340996,0.0009
 7805,-0.01768694,0.00039657,-0.00013945,0.00130029,-0.00020777,-0.0003
 5671,0.00004674,0.00133055,-0.00048369,-0.00015494,-0.00158482,-0.0007
 7661,0.00027716,0.00984694,-0.00051046,0.02185762,0.00153006,-0.000205
 12,0.00010628,-0.00004002,0.00002566,0.00003713,0.00063109,0.00107832,
 0.00026978,-0.01088652,-0.00111106,-0.01609390,-0.10886507,0.00150584,
 -0.11573901,-0.00008921,-0.00013341,0.00034207,0.00055754,0.00033107,0
 .00023348,-0.00010604,0.00008435,0.00000119,-0.00006271,-0.00003440,0.
 00005802,0.00010904,0.00036492,-0.00032180,0.00005338,0.00019294,-0.00
 026874,-0.00289007,-0.00012588,0.00373587,-0.00020811,0.00012686,-0.00
 023660,0.00018293,-0.00031818,-0.00021792,-0.00016388,-0.00003753,-0.0
 0001203,0.00002834,0.00002373,-0.00002219,-0.00003250,0.00014365,0.000
 31802,0.00061584,-0.00043199,0.00023458,0.00029549,0.00045016,0.000095
 22,-0.00154700,-0.00303876,0.00000851,0.12528843,0.00318793,-0.0034489
 2,-0.00364656,0.01406418,0.00359626,0.02696834,-0.00148332,-0.00054638
 ,-0.00303615,0.00034120,0.00020939,-0.00007659,0.00051800,0.00001801,0
 .00122483,-0.00047011,-0.00021154,-0.00020957,-0.00061086,0.00089198,0
 .00070124,-0.00056001,0.00005967,-0.00096344,0.00006764,-0.00020612,0.
 00006855,-0.00052167,0.00166794,-0.00111266,-0.01546739,-0.00119852,-0
 .02449043,0.00383670,-0.05180463,0.00637739,0.00002592,0.00043750,-0.0
 0033353,-0.00022787,-0.00183653,0.00014129,-0.00001466,0.00010759,-0.0
 0008092,0.00002503,-0.00004072,-0.00002025,-0.00002573,0.00006683,-0.0
 0025399,0.00005786,-0.00001055,-0.00016017,-0.00014982,0.00065080,-0.0
 0018307,0.00018144,0.00020388,-0.00004890,-0.00002396,-0.00001313,0.00
 010124,-0.00001260,0.00003064,0.00023353,0.00008258,-0.00002613,-0.000
 03647,0.00003305,0.00030355,0.00040002,0.00047597,-0.00036130,0.000604
 95,0.00061037,0.00111373,0.00053251,-0.00312748,-0.00478989,-0.0004141
 1,-0.00081239,0.05513659,0.00080816,0.00032187,-0.00096159,-0.00102615
 ,0.00002092,0.00019633,-0.00060277,-0.00010854,-0.00041150,0.00036745,
 0.00010876,-0.00013721,-0.00167731,-0.00066894,-0.00139778,-0.00027351
 ,-0.00044823,0.00124528,-0.01011020,0.00163074,-0.02746610,-0.00173258
 ,0.00053380,0.00116432,0.00016058,-0.00023210,-0.00001474,0.00001131,0
 .00030369,0.00009128,-0.00081679,-0.00025337,-0.00080358,-0.10992293,0
 .00230430,-0.22313681,0.00005659,0.00014664,0.00022702,0.00021750,-0.0
 0004282,0.00052761,0.00005644,-0.00015079,0.00015065,-0.00000348,0.000
 09560,0.00002701,0.00003115,-0.00007683,0.00023919,-0.00016184,-0.0000
 7685,0.00064524,0.00407759,0.00012516,-0.00317213,0.00076628,-0.000753
 27,0.00040107,0.00009078,0.00034197,0.00044012,0.00001631,0.00019678,0
 .00007716,0.00000368,-0.00006250,-0.00001299,0.00015815,-0.00011118,0.
 00018496,0.00027172,-0.00050209,0.00014037,-0.00010816,-0.00032217,0.0
 0077036,-0.00000467,-0.00003346,0.00114126,0.11934671,-0.00228709,0.24
 984520\\-0.00002939,-0.00002676,0.00001487,0.00005788,0.00007694,-0.00
 001353,-0.00010402,0.00000773,0.00010107,0.00008409,-0.00001371,-0.000
 08544,0.00001700,-0.00006178,-0.00001416,0.00001611,0.00001979,-0.0000
 0250,0.00016519,-0.00002474,-0.00006901,-0.00001693,0.00000104,0.00000
 580,0.00006426,0.00002540,-0.00001828,-0.00004516,0.00006215,0.0000055
 3,0.00000083,0.00000853,-0.00000566,-0.00013301,-0.00003535,0.00007496
 ,0.00000733,-0.00000875,-0.00002505,0.00000625,-0.00000316,-0.00001838
 ,-0.00001608,-0.00001042,-0.00000061,-0.00000359,-0.00001954,0.0000174
 4,0.00000056,-0.00000281,0.00001376,-0.00003774,-0.00001530,0.00000193
 ,-0.00001503,0.00001892,-0.00001275,-0.00000491,-0.00000170,0.00001658
 ,0.00000812,0.00000798,0.00000002,0.00000380,-0.00000085,-0.00000875,0
 .00001107,0.00000241,-0.00000738,-0.00001249,-0.00000434,0.00000196,-0
 .00000703,0.00000864,0.00000881,-0.00001134,0.00000057,-0.00000035,0.0
 0001569,0.00000175,0.00000943,-0.00002149,-0.00001262,0.00000971\\\@


 SEEN ON A WALL AT THE UNIVERSITY OF ILLINOIS AT CHICAGO CIRCLE:

 TO DO IS TO BE  -- SOCRATES
 TO BE IS TO DO  -- SARTRE
 OO BE DO BE DO  -- SINATRA
 Job cpu time:       0 days  0 hours  2 minutes 47.4 seconds.
 Elapsed time:       0 days  0 hours  2 minutes 52.1 seconds.
 File lengths (MBytes):  RWF=    153 Int=      0 D2E=      0 Chk=     16 Scr=      1
 Normal termination of Gaussian 16 at Sat Feb 24 04:55:33 2024.
