 Entering Gaussian System, Link 0=g16
 Input=/Volumes/SSD-PMU3/b3lyp_6-31gd_freq/IWIBUYYSOXCCCX-OGZUYTBBSA-N_calculating/gaussianinput0.gjf
 Output=/Volumes/SSD-PMU3/b3lyp_6-31gd_freq/IWIBUYYSOXCCCX-OGZUYTBBSA-N_calculating/gaussianinput0.log
 Initial command:
 /Applications/g16/l1.exe "/Users/macmini_m1_2022/PycharmProjects/sphere_model/sphere_model_lib/Gau-72625.inp" -scrdir="/Users/macmini_m1_2022/PycharmProjects/sphere_model/sphere_model_lib/"
 Entering Link 1 = /Applications/g16/l1.exe PID=     72626.
  
 Copyright (c) 1988,1990,1992,1993,1995,1998,2003,2009,2016,
            Gaussian, Inc.  All Rights Reserved.
  
 This is part of the Gaussian(R) 16 program.  It is based on
 the Gaussian(R) 09 system (copyright 2009, Gaussian, Inc.),
 the Gaussian(R) 03 system (copyright 2003, Gaussian, Inc.),
 the Gaussian(R) 98 system (copyright 1998, Gaussian, Inc.),
 the Gaussian(R) 94 system (copyright 1995, Gaussian, Inc.),
 the Gaussian 92(TM) system (copyright 1992, Gaussian, Inc.),
 the Gaussian 90(TM) system (copyright 1990, Gaussian, Inc.),
 the Gaussian 88(TM) system (copyright 1988, Gaussian, Inc.),
 the Gaussian 86(TM) system (copyright 1986, Carnegie Mellon
 University), and the Gaussian 82(TM) system (copyright 1983,
 Carnegie Mellon University). Gaussian is a federally registered
 trademark of Gaussian, Inc.
  
 This software contains proprietary and confidential information,
 including trade secrets, belonging to Gaussian, Inc.
  
 This software is provided under written license and may be
 used, copied, transmitted, or stored only in accord with that
 written license.
  
 The following legend is applicable only to US Government
 contracts under FAR:
  
                    RESTRICTED RIGHTS LEGEND
  
 Use, reproduction and disclosure by the US Government is
 subject to restrictions as set forth in subparagraphs (a)
 and (c) of the Commercial Computer Software - Restricted
 Rights clause in FAR 52.227-19.
  
 Gaussian, Inc.
 340 Quinnipiac St., Bldg. 40, Wallingford CT 06492
  
  
 ---------------------------------------------------------------
 Warning -- This program may not be used in any manner that
 competes with the business of Gaussian, Inc. or will provide
 assistance to any competitor of Gaussian, Inc.  The licensee
 of this program is prohibited from giving any competitor of
 Gaussian, Inc. access to this program.  By using this program,
 the user acknowledges that Gaussian, Inc. is engaged in the
 business of creating and licensing software in the field of
 computational chemistry and represents and warrants to the
 licensee that it is not a competitor of Gaussian, Inc. and that
 it will not use this program in any manner prohibited above.
 ---------------------------------------------------------------
  

 Cite this work as:
 Gaussian 16, Revision A.03,
 M. J. Frisch, G. W. Trucks, H. B. Schlegel, G. E. Scuseria, 
 M. A. Robb, J. R. Cheeseman, G. Scalmani, V. Barone, 
 G. A. Petersson, H. Nakatsuji, X. Li, M. Caricato, A. V. Marenich, 
 J. Bloino, B. G. Janesko, R. Gomperts, B. Mennucci, H. P. Hratchian, 
 J. V. Ortiz, A. F. Izmaylov, J. L. Sonnenberg, D. Williams-Young, 
 F. Ding, F. Lipparini, F. Egidi, J. Goings, B. Peng, A. Petrone, 
 T. Henderson, D. Ranasinghe, V. G. Zakrzewski, J. Gao, N. Rega, 
 G. Zheng, W. Liang, M. Hada, M. Ehara, K. Toyota, R. Fukuda, 
 J. Hasegawa, M. Ishida, T. Nakajima, Y. Honda, O. Kitao, H. Nakai, 
 T. Vreven, K. Throssell, J. A. Montgomery, Jr., J. E. Peralta, 
 F. Ogliaro, M. J. Bearpark, J. J. Heyd, E. N. Brothers, K. N. Kudin, 
 V. N. Staroverov, T. A. Keith, R. Kobayashi, J. Normand, 
 K. Raghavachari, A. P. Rendell, J. C. Burant, S. S. Iyengar, 
 J. Tomasi, M. Cossi, J. M. Millam, M. Klene, C. Adamo, R. Cammi, 
 J. W. Ochterski, R. L. Martin, K. Morokuma, O. Farkas, 
 J. B. Foresman, and D. J. Fox, Gaussian, Inc., Wallingford CT, 2016.
 
 ******************************************
 Gaussian 16:  EM64M-G16RevA.03 25-Dec-2016
                23-Feb-2024 
 ******************************************
 %nprocshared=10
 Will use up to   10 processors via shared memory.
 %mem=12GB
 %chk= 0.chk
 ---------------------
 # freq b3lyp/6-31g(d)
 ---------------------
 1/10=4,30=1,38=1/1,3;
 2/12=2,17=6,18=5,40=1/2;
 3/5=1,6=6,7=1,11=2,25=1,30=1,71=2,74=-5,140=1/1,2,3;
 4//1;
 5/5=2,38=5,98=1/2;
 8/6=4,10=90,11=11/1;
 11/6=1,8=1,9=11,15=111,16=1/1,2,10;
 10/6=1/2;
 6/7=2,8=2,9=2,10=2,28=1/1;
 7/8=1,10=1,25=1/1,2,3,16;
 1/10=4,30=1/3;
 99//99;
 ---------
 good luck
 ---------
 Symbolic Z-matrix:
 Charge =  0 Multiplicity = 1
 C                     2.12585  -8.36481   2.16838 
 C                     2.80519  -7.19857   1.42753 
 C                     4.12617  -7.69673   0.81141 
 C                     1.94406  -6.47569   0.3523 
 C                     0.98481  -7.35837  -0.5058 
 C                    -0.14553  -6.40747  -1.00978 
 C                     0.30277  -5.00994  -0.54193 
 C                    -0.70637  -3.85454  -0.48098 
 C                    -1.46627  -3.67739  -1.8052 
 C                    -2.38303  -2.45035  -1.78194 
 C                    -1.59176  -1.17751  -1.45282 
 C                    -0.84647  -1.29062  -0.0663 
 C                    -1.83586  -1.31884   1.12689 
 C                     0.06434  -2.56004  -0.0785 
 C                     0.86066  -2.77111   1.23301 
 C                     1.80042  -3.99403   1.17708 
 C                     1.0453   -5.27945   0.79513 
 C                     0.08888  -5.68701   1.93731 
 C                    -2.43582   0.10299  -1.58212 
 C                    -1.59105   1.36869  -1.37873 
 C                    -0.77836   1.31042  -0.0663 
 C                     0.        0.        0. 
 O                     1.21864   0.        0. 
 H                     1.16156  -8.09032   2.60435 
 H                     2.77043  -8.71373   2.98429 
 H                     1.95974  -9.21925   1.50134 
 H                     3.07009  -6.4421    2.18174 
 H                     3.93798  -8.42946   0.01585 
 H                     4.75689  -8.18375   1.56505 
 H                     4.70142  -6.87176   0.37507 
 H                     2.66596  -6.02713  -0.34638 
 H                     0.55804  -8.17388   0.0855 
 H                     1.52005  -7.82866  -1.33784 
 H                    -1.11096  -6.67971  -0.56462 
 H                    -0.27623  -6.45846  -2.0957 
 H                     1.08399  -4.68565  -1.25026 
 H                    -1.45385  -4.08175   0.2939 
 H                    -0.74167  -3.56805  -2.62692 
 H                    -2.04967  -4.58037  -2.02443 
 H                    -2.87313  -2.32672  -2.75716 
 H                    -3.18987  -2.5948   -1.04945 
 H                    -0.79273  -1.10308  -2.20983 
 H                    -2.3563   -2.27927   1.18376 
 H                    -2.60018  -0.54105   1.05991 
 H                    -1.30978  -1.17681   2.07642 
 H                     0.80971  -2.38139  -0.86834 
 H                     1.45248  -1.87565   1.43707 
 H                     0.16838  -2.89015   2.07551 
 H                     2.58649  -3.80601   0.43104 
 H                     2.30913  -4.10451   2.14487 
 H                     0.6532   -5.86303   2.86006 
 H                    -0.46705  -6.60222   1.71024 
 H                    -0.64814  -4.90993   2.15858 
 H                    -2.89384   0.12478  -2.57962 
 H                    -3.27      0.08579  -0.86816 
 H                    -0.88953   1.47129  -2.21776 
 H                    -2.22313   2.2649   -1.38707 
 H                    -0.06027   2.13289  -0.00387 
 H                    -1.45852   1.387     0.79149 
 

 GradGradGradGradGradGradGradGradGradGradGradGradGradGradGradGradGradGrad
 Berny optimization.
 Initialization pass.
 Trust Radius=3.00D-01 FncErr=1.00D-07 GrdErr=1.00D-07 EigMax=2.50D+02 EigMin=1.00D-04
 Number of steps in this run=      2 maximum allowed number of steps=      2.
 GradGradGradGradGradGradGradGradGradGradGradGradGradGradGradGradGradGrad

 Stoichiometry    C22H36O
 Framework group  C1[X(C22H36O)]
 Deg. of freedom   171
 Full point group                 C1      NOp   1
 Largest Abelian subgroup         C1      NOp   1
 Largest concise Abelian subgroup C1      NOp   1
                         Standard orientation:                         
 ---------------------------------------------------------------------
 Center     Atomic      Atomic             Coordinates (Angstroms)
 Number     Number       Type             X           Y           Z
 ---------------------------------------------------------------------
      1          6           0       -5.531964   -0.337305    0.999241
      2          6           0       -4.637342   -0.895481   -0.122618
      3          6           0       -5.508095   -1.192810   -1.357991
      4          6           0       -3.412348   -0.022754   -0.520051
      5          6           0       -3.606875    1.525714   -0.513801
      6          6           0       -2.185274    2.140995   -0.323138
      7          6           0       -1.239486    0.926417   -0.379937
      8          6           0        0.194037    1.037085    0.158381
      9          6           0        0.946502    2.237610   -0.437369
     10          6           0        2.411911    2.275478    0.007306
     11          6           0        3.131325    0.969185   -0.354073
     12          6           0        2.428607   -0.287280    0.292598
     13          6           0        2.575122   -0.307325    1.835819
     14          6           0        0.926040   -0.308171   -0.135184
     15          6           0        0.130886   -1.510130    0.432045
     16          6           0       -1.333857   -1.546240   -0.052751
     17          6           0       -2.068712   -0.227582    0.246455
     18          6           0       -2.260144   -0.065926    1.770474
     19          6           0        4.644754    1.022800   -0.079286
     20          6           0        5.361287   -0.242727   -0.571242
     21          6           0        4.693773   -1.526298   -0.029769
     22          6           0        3.194833   -1.485403   -0.310733
     23          8           0        2.679002   -2.302132   -1.053669
     24          1           0       -4.972106   -0.071325    1.899842
     25          1           0       -6.281705   -1.085205    1.284681
     26          1           0       -6.076925    0.555177    0.668950
     27          1           0       -4.238676   -1.860080    0.226479
     28          1           0       -5.909714   -0.266391   -1.788889
     29          1           0       -6.360866   -1.831725   -1.098094
     30          1           0       -4.933538   -1.702291   -2.140410
     31          1           0       -3.177442   -0.304773   -1.557255
     32          1           0       -4.268069    1.840938    0.298776
     33          1           0       -4.075685    1.868163   -1.442710
     34          1           0       -2.109029    2.653241    0.644407
     35          1           0       -1.949768    2.885490   -1.090707
     36          1           0       -1.137288    0.667288   -1.447463
     37          1           0        0.149377    1.190242    1.247115
     38          1           0        0.906597    2.181198   -1.536210
     39          1           0        0.442512    3.170798   -0.156363
     40          1           0        2.930607    3.116147   -0.473079
     41          1           0        2.474165    2.455181    1.090004
     42          1           0        3.015717    0.841153   -1.443695
     43          1           0        1.936562    0.448944    2.301462
     44          1           0        3.598505   -0.112863    2.165201
     45          1           0        2.280817   -1.279011    2.245420
     46          1           0        0.931865   -0.428901   -1.229129
     47          1           0        0.627820   -2.436645    0.134809
     48          1           0        0.144249   -1.483042    1.528549
     49          1           0       -1.346080   -1.724104   -1.138125
     50          1           0       -1.847294   -2.401085    0.409043
     51          1           0       -2.845580   -0.901686    2.170070
     52          1           0       -2.784913    0.859031    2.029900
     53          1           0       -1.308710   -0.057593    2.309658
     54          1           0        5.064667    1.901691   -0.585741
     55          1           0        4.834639    1.173251    0.991788
     56          1           0        5.328797   -0.270482   -1.668879
     57          1           0        6.420979   -0.225423   -0.289212
     58          1           0        5.102249   -2.421334   -0.507330
     59          1           0        4.871361   -1.606011    1.050235
 ---------------------------------------------------------------------
 Rotational constants (GHZ):           0.6274456           0.1365916           0.1245544
 Standard basis: 6-31G(d) (6D, 7F)
 There are   417 symmetry adapted cartesian basis functions of A   symmetry.
 There are   417 symmetry adapted basis functions of A   symmetry.
   417 basis functions,   788 primitive gaussians,   417 cartesian basis functions
    88 alpha electrons       88 beta electrons
       nuclear repulsion energy      2161.9247466770 Hartrees.
 NAtoms=   59 NActive=   59 NUniq=   59 SFac= 1.00D+00 NAtFMM=   60 NAOKFM=F Big=F
 Integral buffers will be    131072 words long.
 Raffenetti 2 integral format.
 Two-electron integral symmetry is turned on.
 One-electron integrals computed using PRISM.
 NBasis=   417 RedAO= T EigKep=  1.51D-03  NBF=   417
 NBsUse=   417 1.00D-06 EigRej= -1.00D+00 NBFU=   417
 ExpMin= 1.61D-01 ExpMax= 5.48D+03 ExpMxC= 8.25D+02 IAcc=3 IRadAn=         5 AccDes= 0.00D+00
 Harris functional with IExCor=  402 and IRadAn=       5 diagonalized for initial guess.
 HarFok:  IExCor=  402 AccDes= 0.00D+00 IRadAn=         5 IDoV= 1 UseB2=F ITyADJ=14
 ICtDFT=  3500011 ScaDFX=  1.000000  1.000000  1.000000  1.000000
 FoFCou: FMM=F IPFlag=           0 FMFlag=      100000 FMFlg1=           0
         NFxFlg=           0 DoJE=T BraDBF=F KetDBF=T FulRan=T
         wScrn=  0.000000 ICntrl=       500 IOpCl=  0 I1Cent=   200000004 NGrid=           0
         NMat0=    1 NMatS0=      1 NMatT0=    0 NMatD0=    1 NMtDS0=    0 NMtDT0=    0
 Petite list used in FoFCou.
 Requested convergence on RMS density matrix=1.00D-08 within 128 cycles.
 Requested convergence on MAX density matrix=1.00D-06.
 Requested convergence on             energy=1.00D-06.
 No special actions if energy rises.
 Integral accuracy reduced to 1.0D-05 until final iterations.
 Initial convergence to 1.0D-05 achieved.  Increase integral accuracy.
 SCF Done:  E(RB3LYP) =  -935.268743925     A.U. after   14 cycles
            NFock= 14  Conv=0.30D-08     -V/T= 2.0099
 DoSCS=F DFT=T ScalE2(SS,OS)=  1.000000  1.000000
 Range of M.O.s used for correlation:     1   417
 NBasis=   417 NAE=    88 NBE=    88 NFC=     0 NFV=     0
 NROrb=    417 NOA=    88 NOB=    88 NVA=   329 NVB=   329
 Symmetrizing basis deriv contribution to polar:
 IMax=3 JMax=2 DiffMx= 0.00D+00
 G2DrvN: will do    60 centers at a time, making    1 passes.
 Calling FoFCou, ICntrl=  3107 FMM=F I1Cent=   0 AccDes= 0.00D+00.
 End of G2Drv F.D. properties file   721 does not exist.
 End of G2Drv F.D. properties file   722 does not exist.
 End of G2Drv F.D. properties file   788 does not exist.
          IDoAtm=11111111111111111111111111111111111111111111111111
          IDoAtm=111111111
          Differentiating once with respect to electric field.
                with respect to dipole field.
          Differentiating once with respect to nuclear coordinates.
 CalDSu exits because no D1Ps are significant.
          There are   180 degrees of freedom in the 1st order CPHF.  IDoFFX=6 NUNeed=     3.
    177 vectors produced by pass  0 Test12= 2.90D-14 1.00D-09 XBig12= 1.47D+02 1.54D+00.
 AX will form   177 AO Fock derivatives at one time.
    177 vectors produced by pass  1 Test12= 2.90D-14 1.00D-09 XBig12= 1.15D+01 4.87D-01.
    177 vectors produced by pass  2 Test12= 2.90D-14 1.00D-09 XBig12= 9.31D-02 1.65D-02.
    177 vectors produced by pass  3 Test12= 2.90D-14 1.00D-09 XBig12= 1.99D-04 7.85D-04.
    177 vectors produced by pass  4 Test12= 2.90D-14 1.00D-09 XBig12= 1.64D-07 3.01D-05.
     72 vectors produced by pass  5 Test12= 2.90D-14 1.00D-09 XBig12= 1.29D-10 8.40D-07.
      3 vectors produced by pass  6 Test12= 2.90D-14 1.00D-09 XBig12= 8.95D-14 2.29D-08.
 InvSVY:  IOpt=1 It=  1 EMax= 1.07D-14
 Solved reduced A of dimension   960 with   180 vectors.
 Isotropic polarizability for W=    0.000000      220.51 Bohr**3.
 End of Minotr F.D. properties file   721 does not exist.
 End of Minotr F.D. properties file   722 does not exist.
 End of Minotr F.D. properties file   788 does not exist.

 **********************************************************************

            Population analysis using the SCF density.

 **********************************************************************

 Orbital symmetries:
       Occupied  (A) (A) (A) (A) (A) (A) (A) (A) (A) (A) (A) (A)
                 (A) (A) (A) (A) (A) (A) (A) (A) (A) (A) (A) (A)
                 (A) (A) (A) (A) (A) (A) (A) (A) (A) (A) (A) (A)
                 (A) (A) (A) (A) (A) (A) (A) (A) (A) (A) (A) (A)
                 (A) (A) (A) (A) (A) (A) (A) (A) (A) (A) (A) (A)
                 (A) (A) (A) (A) (A) (A) (A) (A) (A) (A) (A) (A)
                 (A) (A) (A) (A) (A) (A) (A) (A) (A) (A) (A) (A)
                 (A) (A) (A) (A)
       Virtual   (A) (A) (A) (A) (A) (A) (A) (A) (A) (A) (A) (A)
                 (A) (A) (A) (A) (A) (A) (A) (A) (A) (A) (A) (A)
                 (A) (A) (A) (A) (A) (A) (A) (A) (A) (A) (A) (A)
                 (A) (A) (A) (A) (A) (A) (A) (A) (A) (A) (A) (A)
                 (A) (A) (A) (A) (A) (A) (A) (A) (A) (A) (A) (A)
                 (A) (A) (A) (A) (A) (A) (A) (A) (A) (A) (A) (A)
                 (A) (A) (A) (A) (A) (A) (A) (A) (A) (A) (A) (A)
                 (A) (A) (A) (A) (A) (A) (A) (A) (A) (A) (A) (A)
                 (A) (A) (A) (A) (A) (A) (A) (A) (A) (A) (A) (A)
                 (A) (A) (A) (A) (A) (A) (A) (A) (A) (A) (A) (A)
                 (A) (A) (A) (A) (A) (A) (A) (A) (A) (A) (A) (A)
                 (A) (A) (A) (A) (A) (A) (A) (A) (A) (A) (A) (A)
                 (A) (A) (A) (A) (A) (A) (A) (A) (A) (A) (A) (A)
                 (A) (A) (A) (A) (A) (A) (A) (A) (A) (A) (A) (A)
                 (A) (A) (A) (A) (A) (A) (A) (A) (A) (A) (A) (A)
                 (A) (A) (A) (A) (A) (A) (A) (A) (A) (A) (A) (A)
                 (A) (A) (A) (A) (A) (A) (A) (A) (A) (A) (A) (A)
                 (A) (A) (A) (A) (A) (A) (A) (A) (A) (A) (A) (A)
                 (A) (A) (A) (A) (A) (A) (A) (A) (A) (A) (A) (A)
                 (A) (A) (A) (A) (A) (A) (A) (A) (A) (A) (A) (A)
                 (A) (A) (A) (A) (A) (A) (A) (A) (A) (A) (A) (A)
                 (A) (A) (A) (A) (A) (A) (A) (A) (A) (A) (A) (A)
                 (A) (A) (A) (A) (A) (A) (A) (A) (A) (A) (A) (A)
                 (A) (A) (A) (A) (A) (A) (A) (A) (A) (A) (A) (A)
                 (A) (A) (A) (A) (A) (A) (A) (A) (A) (A) (A) (A)
                 (A) (A) (A) (A) (A) (A) (A) (A) (A) (A) (A) (A)
                 (A) (A) (A) (A) (A) (A) (A) (A) (A) (A) (A) (A)
                 (A) (A) (A) (A) (A)
 The electronic state is 1-A.
 Alpha  occ. eigenvalues --  -19.13270 -10.26474 -10.20024 -10.19333 -10.19282
 Alpha  occ. eigenvalues --  -10.18760 -10.18618 -10.18163 -10.18111 -10.18057
 Alpha  occ. eigenvalues --  -10.17956 -10.17868 -10.17820 -10.17585 -10.17325
 Alpha  occ. eigenvalues --  -10.17164 -10.17129 -10.17030 -10.16736 -10.16593
 Alpha  occ. eigenvalues --  -10.16559 -10.16535 -10.16481  -1.03163  -0.85968
 Alpha  occ. eigenvalues --   -0.84260  -0.80508  -0.78114  -0.77680  -0.75522
 Alpha  occ. eigenvalues --   -0.74637  -0.71677  -0.70014  -0.67854  -0.67503
 Alpha  occ. eigenvalues --   -0.67084  -0.66232  -0.61876  -0.60805  -0.59350
 Alpha  occ. eigenvalues --   -0.57998  -0.56141  -0.55018  -0.53015  -0.51446
 Alpha  occ. eigenvalues --   -0.50779  -0.47623  -0.47260  -0.46761  -0.45736
 Alpha  occ. eigenvalues --   -0.45363  -0.44726  -0.43813  -0.43563  -0.42688
 Alpha  occ. eigenvalues --   -0.42046  -0.41706  -0.40937  -0.40144  -0.40005
 Alpha  occ. eigenvalues --   -0.39745  -0.39212  -0.38626  -0.38196  -0.37970
 Alpha  occ. eigenvalues --   -0.37658  -0.37230  -0.36658  -0.35898  -0.35640
 Alpha  occ. eigenvalues --   -0.34990  -0.34622  -0.34236  -0.33594  -0.33069
 Alpha  occ. eigenvalues --   -0.32927  -0.32452  -0.32221  -0.31711  -0.30885
 Alpha  occ. eigenvalues --   -0.30549  -0.29947  -0.29831  -0.29422  -0.28804
 Alpha  occ. eigenvalues --   -0.27921  -0.26176  -0.22848
 Alpha virt. eigenvalues --   -0.01002   0.07410   0.07930   0.08389   0.09963
 Alpha virt. eigenvalues --    0.10378   0.10811   0.11220   0.12095   0.12368
 Alpha virt. eigenvalues --    0.12860   0.13599   0.14258   0.14578   0.14930
 Alpha virt. eigenvalues --    0.15150   0.15621   0.15806   0.16104   0.16261
 Alpha virt. eigenvalues --    0.16486   0.16719   0.17567   0.17845   0.17991
 Alpha virt. eigenvalues --    0.18416   0.18993   0.19206   0.19656   0.19956
 Alpha virt. eigenvalues --    0.20215   0.20724   0.20917   0.21792   0.21906
 Alpha virt. eigenvalues --    0.22253   0.22851   0.22906   0.23165   0.23596
 Alpha virt. eigenvalues --    0.24788   0.24877   0.25003   0.25462   0.25741
 Alpha virt. eigenvalues --    0.26140   0.26345   0.27029   0.27359   0.27804
 Alpha virt. eigenvalues --    0.28310   0.29078   0.29784   0.30547   0.30843
 Alpha virt. eigenvalues --    0.31260   0.32509   0.33270   0.33828   0.34820
 Alpha virt. eigenvalues --    0.36922   0.38385   0.40168   0.48786   0.49869
 Alpha virt. eigenvalues --    0.50480   0.51245   0.51909   0.52255   0.52835
 Alpha virt. eigenvalues --    0.53242   0.53957   0.55015   0.55738   0.56407
 Alpha virt. eigenvalues --    0.57193   0.57641   0.59343   0.59757   0.60615
 Alpha virt. eigenvalues --    0.60954   0.61695   0.62348   0.63252   0.64240
 Alpha virt. eigenvalues --    0.64579   0.65318   0.66125   0.66686   0.66767
 Alpha virt. eigenvalues --    0.67618   0.68001   0.68979   0.69658   0.70577
 Alpha virt. eigenvalues --    0.71172   0.72119   0.73096   0.73686   0.74392
 Alpha virt. eigenvalues --    0.74734   0.76568   0.77133   0.78394   0.79107
 Alpha virt. eigenvalues --    0.80510   0.80865   0.81912   0.82480   0.82878
 Alpha virt. eigenvalues --    0.83477   0.83776   0.84650   0.85272   0.85791
 Alpha virt. eigenvalues --    0.85922   0.86699   0.87033   0.87330   0.87611
 Alpha virt. eigenvalues --    0.87799   0.88504   0.88998   0.89215   0.89667
 Alpha virt. eigenvalues --    0.90342   0.90681   0.90862   0.91438   0.91752
 Alpha virt. eigenvalues --    0.92562   0.92985   0.93203   0.93455   0.93998
 Alpha virt. eigenvalues --    0.94846   0.95066   0.95522   0.96165   0.96645
 Alpha virt. eigenvalues --    0.96910   0.97333   0.97512   0.98824   0.99079
 Alpha virt. eigenvalues --    0.99352   0.99906   1.00131   1.01537   1.01917
 Alpha virt. eigenvalues --    1.02180   1.03503   1.04543   1.05058   1.05772
 Alpha virt. eigenvalues --    1.06372   1.07618   1.08675   1.09555   1.10952
 Alpha virt. eigenvalues --    1.12786   1.15833   1.17207   1.18311   1.20900
 Alpha virt. eigenvalues --    1.21886   1.22617   1.23221   1.24627   1.27096
 Alpha virt. eigenvalues --    1.29557   1.33445   1.34080   1.35054   1.36639
 Alpha virt. eigenvalues --    1.37756   1.40696   1.42006   1.46255   1.48072
 Alpha virt. eigenvalues --    1.50157   1.51725   1.52388   1.54226   1.55516
 Alpha virt. eigenvalues --    1.56368   1.59929   1.60204   1.60580   1.64226
 Alpha virt. eigenvalues --    1.64356   1.65174   1.66879   1.69770   1.70423
 Alpha virt. eigenvalues --    1.71787   1.72824   1.73522   1.74669   1.75452
 Alpha virt. eigenvalues --    1.75780   1.76980   1.78257   1.79603   1.80339
 Alpha virt. eigenvalues --    1.81487   1.82561   1.82882   1.83884   1.86046
 Alpha virt. eigenvalues --    1.86201   1.86818   1.87624   1.88374   1.90956
 Alpha virt. eigenvalues --    1.91173   1.91948   1.92782   1.93632   1.94238
 Alpha virt. eigenvalues --    1.94705   1.95386   1.95765   1.96609   1.97669
 Alpha virt. eigenvalues --    1.98529   1.99744   2.00327   2.00700   2.01933
 Alpha virt. eigenvalues --    2.02205   2.02714   2.04354   2.04909   2.06047
 Alpha virt. eigenvalues --    2.06237   2.06913   2.07750   2.09801   2.10152
 Alpha virt. eigenvalues --    2.11240   2.12250   2.13487   2.13943   2.14239
 Alpha virt. eigenvalues --    2.15983   2.17274   2.18548   2.19632   2.20677
 Alpha virt. eigenvalues --    2.21058   2.23061   2.24130   2.25448   2.26245
 Alpha virt. eigenvalues --    2.27948   2.28690   2.30087   2.30917   2.31312
 Alpha virt. eigenvalues --    2.32924   2.34037   2.36004   2.37138   2.37607
 Alpha virt. eigenvalues --    2.38377   2.40705   2.41140   2.42139   2.42825
 Alpha virt. eigenvalues --    2.43987   2.45249   2.45791   2.47695   2.49645
 Alpha virt. eigenvalues --    2.50544   2.52257   2.54031   2.55151   2.56179
 Alpha virt. eigenvalues --    2.58823   2.59486   2.60905   2.61456   2.61951
 Alpha virt. eigenvalues --    2.64451   2.65937   2.67166   2.68612   2.70559
 Alpha virt. eigenvalues --    2.72975   2.75083   2.76038   2.77435   2.78728
 Alpha virt. eigenvalues --    2.82373   2.83398   2.84034   2.86082   2.89536
 Alpha virt. eigenvalues --    2.91289   2.91981   2.96648   3.00220   3.04312
 Alpha virt. eigenvalues --    3.07665   4.07926   4.11342   4.14837   4.21538
 Alpha virt. eigenvalues --    4.23308   4.25058   4.26659   4.28314   4.31212
 Alpha virt. eigenvalues --    4.32460   4.36370   4.40935   4.45426   4.46822
 Alpha virt. eigenvalues --    4.52889   4.57869   4.61165   4.64014   4.67315
 Alpha virt. eigenvalues --    4.72416   4.77152   4.82673   4.84267
          Condensed to atoms (all electrons):
 Mulliken charges:
               1
     1  C   -0.453688
     2  C   -0.077010
     3  C   -0.450507
     4  C   -0.080176
     5  C   -0.294426
     6  C   -0.290623
     7  C   -0.088429
     8  C   -0.100028
     9  C   -0.270845
    10  C   -0.268105
    11  C   -0.103823
    12  C    0.012118
    13  C   -0.494078
    14  C   -0.091972
    15  C   -0.294994
    16  C   -0.278786
    17  C    0.084630
    18  C   -0.477204
    19  C   -0.271268
    20  C   -0.275448
    21  C   -0.340748
    22  C    0.440271
    23  O   -0.455858
    24  H    0.145971
    25  H    0.136690
    26  H    0.141091
    27  H    0.125027
    28  H    0.140349
    29  H    0.137026
    30  H    0.140701
    31  H    0.113263
    32  H    0.138243
    33  H    0.132778
    34  H    0.130309
    35  H    0.132337
    36  H    0.111053
    37  H    0.112485
    38  H    0.125158
    39  H    0.134613
    40  H    0.129979
    41  H    0.129912
    42  H    0.126713
    43  H    0.157843
    44  H    0.148450
    45  H    0.159351
    46  H    0.125237
    47  H    0.162400
    48  H    0.125955
    49  H    0.127217
    50  H    0.123876
    51  H    0.145619
    52  H    0.144034
    53  H    0.143471
    54  H    0.136659
    55  H    0.134803
    56  H    0.146676
    57  H    0.141871
    58  H    0.160855
    59  H    0.152982
 Sum of Mulliken charges =  -0.00000
 Mulliken charges with hydrogens summed into heavy atoms:
               1
     1  C   -0.029935
     2  C    0.048016
     3  C   -0.032432
     4  C    0.033087
     5  C   -0.023405
     6  C   -0.027977
     7  C    0.022623
     8  C    0.012458
     9  C   -0.011073
    10  C   -0.008214
    11  C    0.022890
    12  C    0.012118
    13  C   -0.028434
    14  C    0.033266
    15  C   -0.006640
    16  C   -0.027694
    17  C    0.084630
    18  C   -0.044080
    19  C    0.000194
    20  C    0.013099
    21  C   -0.026910
    22  C    0.440271
    23  O   -0.455858
 APT charges:
               1
     1  C    0.044203
     2  C    0.135510
     3  C    0.073396
     4  C    0.074090
     5  C    0.063263
     6  C    0.080758
     7  C    0.072146
     8  C    0.057644
     9  C    0.097873
    10  C    0.108837
    11  C    0.072129
    12  C   -0.062089
    13  C    0.012291
    14  C    0.059140
    15  C    0.056754
    16  C    0.105023
    17  C    0.046699
    18  C    0.019518
    19  C    0.087014
    20  C    0.148504
    21  C   -0.072321
    22  C    0.689021
    23  O   -0.632292
    24  H   -0.011779
    25  H   -0.039781
    26  H   -0.019749
    27  H   -0.069829
    28  H   -0.022788
    29  H   -0.047336
    30  H   -0.027446
    31  H   -0.065696
    32  H   -0.036972
    33  H   -0.051681
    34  H   -0.044828
    35  H   -0.050019
    36  H   -0.059125
    37  H   -0.048427
    38  H   -0.042436
    39  H   -0.052735
    40  H   -0.072167
    41  H   -0.040231
    42  H   -0.053008
    43  H   -0.000031
    44  H   -0.015985
    45  H    0.000696
    46  H   -0.033972
    47  H   -0.005680
    48  H   -0.033672
    49  H   -0.042215
    50  H   -0.066661
    51  H   -0.020426
    52  H   -0.012341
    53  H   -0.022163
    54  H   -0.053202
    55  H   -0.038684
    56  H   -0.037681
    57  H   -0.062301
    58  H   -0.030382
    59  H   -0.006377
 Sum of APT charges =   0.00000
 APT charges with hydrogens summed into heavy atoms:
               1
     1  C   -0.027106
     2  C    0.065681
     3  C   -0.024175
     4  C    0.008395
     5  C   -0.025390
     6  C   -0.014089
     7  C    0.013022
     8  C    0.009217
     9  C    0.002702
    10  C   -0.003561
    11  C    0.019121
    12  C   -0.062089
    13  C   -0.003029
    14  C    0.025168
    15  C    0.017402
    16  C   -0.003853
    17  C    0.046699
    18  C   -0.035412
    19  C   -0.004872
    20  C    0.048521
    21  C   -0.109080
    22  C    0.689021
    23  O   -0.632292
 Electronic spatial extent (au):  <R**2>=           9178.9536
 Charge=             -0.0000 electrons
 Dipole moment (field-independent basis, Debye):
    X=              1.3177    Y=              1.9202    Z=              1.3604  Tot=              2.6970
 Quadrupole moment (field-independent basis, Debye-Ang):
   XX=           -136.9915   YY=           -150.1501   ZZ=           -145.0155
   XY=              4.1790   XZ=              3.3181   YZ=             -4.4494
 Traceless Quadrupole moment (field-independent basis, Debye-Ang):
   XX=              7.0609   YY=             -6.0977   ZZ=             -0.9631
   XY=              4.1790   XZ=              3.3181   YZ=             -4.4494
 Octapole moment (field-independent basis, Debye-Ang**2):
  XXX=             77.8698  YYY=              5.1241  ZZZ=             -4.8194  XYY=             -8.1348
  XXY=             -0.2931  XXZ=              6.9794  XZZ=              6.2144  YZZ=              2.7273
  YYZ=              9.4408  XYZ=             -9.9946
 Hexadecapole moment (field-independent basis, Debye-Ang**3):
 XXXX=          -9766.6652 YYYY=          -1831.0249 ZZZZ=           -867.0494 XXXY=            -40.4356
 XXXZ=             -6.8987 YYYX=             19.3095 YYYZ=            -19.3621 ZZZX=             -4.9698
 ZZZY=              3.0023 XXYY=          -1972.2816 XXZZ=          -1816.3064 YYZZ=           -447.6912
 XXYZ=            -39.2464 YYXZ=             14.6151 ZZXY=             -1.7884
 N-N= 2.161924746677D+03 E-N=-6.489433656218D+03  KE= 9.261045337009D+02
  Exact polarizability: 272.106   3.874 206.473   0.709  -0.404 182.965
 Approx polarizability: 315.048   5.811 312.671   3.615   7.923 310.172
 Calling FoFJK, ICntrl=    100127 FMM=F ISym2X=0 I1Cent= 0 IOpClX= 0 NMat=1 NMatS=1 NMatT=0.
 Full mass-weighted force constant matrix:
 Low frequencies ---   -0.0006   -0.0002    0.0004    1.4253    4.9074    6.1884
 Low frequencies ---   41.5588   49.5730   70.9011
 Diagonal vibrational polarizability:
       12.3364950       7.5504633      11.6259922
 Harmonic frequencies (cm**-1), IR intensities (KM/Mole), Raman scattering
 activities (A**4/AMU), depolarization ratios for plane and unpolarized
 incident light, reduced masses (AMU), force constants (mDyne/A),
 and normal coordinates:
                      1                      2                      3
                      A                      A                      A
 Frequencies --     41.5570                49.5675                70.9004
 Red. masses --      3.5268                 2.8214                 3.1637
 Frc consts  --      0.0036                 0.0041                 0.0094
 IR Inten    --      0.2018                 0.3287                 0.0319
  Atom  AN      X      Y      Z        X      Y      Z        X      Y      Z
     1   6     0.07  -0.02   0.15     0.05  -0.18   0.02    -0.06  -0.05  -0.07
     2   6    -0.02   0.02   0.06    -0.00  -0.02  -0.10     0.03  -0.02  -0.01
     3   6    -0.13   0.11   0.11    -0.05   0.22  -0.12     0.13  -0.13  -0.04
     4   6    -0.03   0.00   0.01     0.01  -0.01  -0.00    -0.01   0.07   0.04
     5   6    -0.02   0.00   0.04    -0.00  -0.01   0.04    -0.03   0.06   0.19
     6   6    -0.00  -0.01  -0.02    -0.01  -0.01   0.04    -0.01   0.06   0.14
     7   6    -0.01  -0.01  -0.07    -0.00  -0.00   0.03    -0.01   0.06   0.03
     8   6    -0.00  -0.02  -0.09     0.00   0.00   0.01     0.01   0.03  -0.01
     9   6    -0.00  -0.02  -0.10    -0.01  -0.01  -0.02     0.01   0.01  -0.05
    10   6    -0.02  -0.00  -0.05     0.00   0.00  -0.06     0.03   0.00  -0.10
    11   6     0.01  -0.00   0.01    -0.01  -0.01  -0.04     0.01  -0.02  -0.06
    12   6    -0.01  -0.00  -0.02     0.01   0.01   0.01    -0.01   0.01  -0.02
    13   6    -0.08   0.01  -0.01     0.03   0.07   0.01    -0.04   0.07  -0.01
    14   6     0.00  -0.01  -0.08     0.00  -0.00   0.03    -0.01   0.02  -0.04
    15   6    -0.00  -0.04  -0.14     0.01   0.01   0.05    -0.01   0.01  -0.08
    16   6    -0.01  -0.01  -0.12     0.01  -0.01   0.03    -0.01   0.04  -0.08
    17   6     0.01  -0.02  -0.06    -0.00  -0.01   0.02     0.00   0.03  -0.01
    18   6     0.08  -0.05  -0.04    -0.01  -0.01   0.02     0.02  -0.05   0.01
    19   6    -0.00   0.02   0.10    -0.00   0.00  -0.08     0.01  -0.03  -0.05
    20   6     0.04   0.02   0.16    -0.01  -0.01  -0.06    -0.00  -0.07   0.03
    21   6     0.01   0.01   0.12     0.01   0.01   0.02    -0.03  -0.03   0.09
    22   6     0.03   0.01   0.02     0.00  -0.01   0.05    -0.02  -0.02   0.05
    23   8     0.08   0.01  -0.02    -0.01  -0.05   0.10    -0.00  -0.03   0.05
    24   1     0.14  -0.09   0.13     0.07  -0.36   0.06    -0.11   0.01  -0.05
    25   1     0.07  -0.02   0.16     0.02  -0.20  -0.10    -0.02  -0.09  -0.08
    26   1     0.07   0.01   0.24     0.08  -0.10   0.19    -0.10  -0.09  -0.12
    27   1    -0.02  -0.01  -0.03    -0.02  -0.10  -0.27     0.09   0.03   0.05
    28   1    -0.14   0.14   0.19    -0.04   0.31   0.05     0.08  -0.18  -0.11
    29   1    -0.12   0.12   0.13    -0.07   0.20  -0.20     0.16  -0.19  -0.07
    30   1    -0.20   0.14   0.03    -0.10   0.34  -0.23     0.22  -0.12   0.01
    31   1    -0.08   0.01  -0.01     0.05   0.03  -0.00    -0.02   0.18   0.00
    32   1     0.02  -0.00   0.07    -0.00  -0.04   0.06     0.04  -0.02   0.28
    33   1    -0.06   0.02   0.06    -0.02   0.01   0.05    -0.11   0.15   0.27
    34   1     0.04  -0.01  -0.02    -0.01  -0.01   0.05     0.04   0.02   0.15
    35   1    -0.03  -0.00  -0.03    -0.01   0.00   0.05    -0.06   0.09   0.15
    36   1    -0.04   0.00  -0.07    -0.01   0.01   0.03    -0.05   0.11   0.01
    37   1     0.00  -0.01  -0.09     0.02   0.02   0.01     0.04   0.03  -0.01
    38   1     0.03  -0.05  -0.10    -0.04  -0.03  -0.02    -0.02  -0.01  -0.05
    39   1    -0.02  -0.02  -0.13    -0.00  -0.00  -0.03     0.03   0.02  -0.06
    40   1    -0.01  -0.01  -0.05    -0.01  -0.01  -0.10     0.02  -0.02  -0.15
    41   1    -0.06   0.02  -0.05     0.03   0.04  -0.07     0.06   0.05  -0.11
    42   1     0.08  -0.02   0.00    -0.03  -0.04  -0.04     0.01  -0.06  -0.05
    43   1    -0.11   0.00  -0.04     0.04   0.09  -0.01    -0.03   0.11  -0.05
    44   1    -0.10   0.02   0.04     0.03   0.07  -0.01    -0.04   0.07  -0.01
    45   1    -0.09   0.00  -0.02     0.02   0.09   0.05    -0.07   0.10   0.02
    46   1     0.05   0.01  -0.09    -0.01  -0.02   0.03     0.00   0.05  -0.04
    47   1    -0.00  -0.02  -0.19     0.01   0.00   0.07    -0.02   0.02  -0.12
    48   1     0.01  -0.09  -0.14    -0.00   0.03   0.05    -0.01  -0.04  -0.08
    49   1    -0.03   0.03  -0.12     0.03  -0.01   0.03    -0.01   0.10  -0.09
    50   1    -0.00  -0.03  -0.14     0.01  -0.01   0.03    -0.02   0.02  -0.13
    51   1     0.10  -0.06  -0.03     0.05  -0.05   0.03     0.02  -0.07  -0.03
    52   1     0.08  -0.06  -0.00    -0.07  -0.05   0.02     0.03  -0.06   0.06
    53   1     0.10  -0.05  -0.09    -0.01   0.06   0.02     0.03  -0.08  -0.00
    54   1     0.02   0.01   0.11    -0.01  -0.01  -0.12     0.03  -0.06  -0.09
    55   1    -0.07   0.03   0.11     0.02   0.04  -0.09    -0.01   0.02  -0.05
    56   1     0.12   0.01   0.16    -0.04  -0.06  -0.05     0.02  -0.13   0.04
    57   1     0.02   0.03   0.24    -0.00   0.00  -0.09    -0.01  -0.06   0.05
    58   1     0.05   0.02   0.15     0.00  -0.01   0.05    -0.03  -0.06   0.15
    59   1    -0.06   0.02   0.13     0.03   0.06   0.02    -0.05   0.03   0.10
                      4                      5                      6
                      A                      A                      A
 Frequencies --     81.7630               105.1513               112.2313
 Red. masses --      4.7318                 3.8958                 2.8671
 Frc consts  --      0.0186                 0.0254                 0.0213
 IR Inten    --      1.3850                 0.8205                 0.1667
  Atom  AN      X      Y      Z        X      Y      Z        X      Y      Z
     1   6    -0.05   0.17  -0.03     0.11  -0.16   0.09    -0.08  -0.01  -0.05
     2   6    -0.05   0.07   0.02     0.08  -0.06   0.01    -0.02   0.01  -0.01
     3   6    -0.05   0.02   0.03     0.02  -0.09   0.06     0.05   0.03  -0.07
     4   6    -0.02   0.01  -0.02     0.01   0.03  -0.03    -0.02   0.03   0.06
     5   6     0.02   0.02  -0.00    -0.03   0.02  -0.01    -0.01   0.02   0.14
     6   6     0.03  -0.01   0.06    -0.03   0.05  -0.09     0.02   0.00  -0.05
     7   6     0.00  -0.03   0.01     0.00   0.07  -0.07    -0.01  -0.03  -0.02
     8   6    -0.00  -0.05   0.02    -0.00   0.06  -0.03     0.00  -0.03  -0.06
     9   6    -0.03  -0.01   0.08     0.04   0.06   0.03    -0.01  -0.05  -0.11
    10   6    -0.03  -0.00   0.05     0.02   0.01   0.11    -0.04  -0.01  -0.04
    11   6    -0.02   0.02  -0.00     0.01   0.02   0.07     0.01   0.00   0.02
    12   6     0.02  -0.01  -0.01    -0.02   0.00  -0.00     0.01  -0.03  -0.03
    13   6     0.00   0.01  -0.00    -0.04  -0.06   0.00     0.01  -0.10  -0.03
    14   6     0.02  -0.04  -0.03    -0.01   0.05  -0.02    -0.00  -0.04  -0.02
    15   6    -0.00  -0.06  -0.10    -0.02   0.05  -0.03    -0.01  -0.01   0.03
    16   6    -0.01  -0.03  -0.11    -0.00   0.06  -0.06    -0.03  -0.01   0.09
    17   6    -0.01  -0.04  -0.04     0.02   0.06  -0.06    -0.01   0.01   0.05
    18   6    -0.01  -0.12  -0.03     0.05   0.09  -0.06     0.01   0.08   0.05
    19   6    -0.02   0.07  -0.07     0.01  -0.03   0.06    -0.02   0.05   0.12
    20   6    -0.00   0.11  -0.13    -0.04  -0.00  -0.06     0.05   0.11   0.05
    21   6     0.10   0.10  -0.04    -0.03  -0.02  -0.10     0.05   0.04  -0.11
    22   6     0.07  -0.02   0.07    -0.05  -0.03   0.01     0.03  -0.01  -0.05
    23   8     0.06  -0.20   0.26    -0.11  -0.12   0.16     0.02  -0.08   0.04
    24   1    -0.05   0.24  -0.05     0.15  -0.18   0.07    -0.12  -0.04  -0.01
    25   1    -0.06   0.21   0.03     0.17  -0.22   0.09    -0.11  -0.00  -0.11
    26   1    -0.04   0.15  -0.10     0.05  -0.17   0.16    -0.05   0.01  -0.05
    27   1    -0.09   0.08   0.09     0.17  -0.04  -0.05    -0.04   0.01  -0.00
    28   1    -0.00   0.01  -0.04    -0.11  -0.12   0.13     0.08   0.04  -0.08
    29   1    -0.08   0.08   0.06     0.11  -0.20   0.10     0.03   0.03  -0.13
    30   1    -0.06  -0.06   0.07     0.02  -0.00  -0.00     0.09   0.04  -0.04
    31   1    -0.06   0.01  -0.02    -0.01   0.05  -0.04    -0.01   0.09   0.05
    32   1     0.00   0.03  -0.03     0.01  -0.00   0.04     0.12  -0.01   0.26
    33   1     0.07   0.04  -0.02    -0.10   0.02   0.02    -0.16   0.07   0.23
    34   1     0.02  -0.07   0.09    -0.00   0.10  -0.12     0.12   0.10  -0.11
    35   1     0.06   0.03   0.11    -0.07   0.02  -0.13    -0.02  -0.08  -0.14
    36   1    -0.00   0.02  -0.00     0.02   0.06  -0.07    -0.04  -0.08  -0.01
    37   1    -0.01  -0.11   0.02    -0.03   0.04  -0.03     0.03   0.01  -0.06
    38   1    -0.05   0.06   0.07     0.10   0.10   0.03     0.04  -0.12  -0.11
    39   1    -0.05  -0.03   0.14     0.04   0.06   0.04    -0.04  -0.04  -0.19
    40   1    -0.05   0.02   0.07     0.06   0.03   0.19    -0.02  -0.01  -0.02
    41   1    -0.01  -0.04   0.06    -0.03  -0.05   0.13    -0.11   0.01  -0.04
    42   1    -0.06   0.04  -0.00     0.01   0.07   0.06     0.08   0.01   0.01
    43   1    -0.00   0.01  -0.01    -0.02  -0.06   0.03     0.04  -0.08  -0.00
    44   1    -0.00   0.01  -0.00    -0.03  -0.12   0.02     0.01  -0.16  -0.02
    45   1    -0.00   0.01  -0.00    -0.08  -0.07  -0.04    -0.04  -0.10  -0.07
    46   1     0.04   0.01  -0.04     0.00   0.05  -0.02    -0.01  -0.07  -0.02
    47   1    -0.01  -0.05  -0.14    -0.02   0.05  -0.02    -0.04  -0.03   0.05
    48   1    -0.00  -0.11  -0.10    -0.05   0.06  -0.04     0.02   0.03   0.03
    49   1    -0.00   0.03  -0.12     0.01   0.07  -0.06    -0.08  -0.06   0.09
    50   1    -0.00  -0.05  -0.15    -0.02   0.07  -0.08    -0.02   0.02   0.15
    51   1    -0.06  -0.11  -0.09     0.10   0.07  -0.03    -0.02   0.12   0.08
    52   1     0.04  -0.10   0.02     0.01   0.07  -0.07     0.04   0.11   0.02
    53   1    -0.01  -0.21  -0.03     0.06   0.14  -0.08     0.01   0.06   0.04
    54   1    -0.08   0.10  -0.07     0.02   0.01   0.13    -0.02   0.10   0.21
    55   1     0.03   0.05  -0.07     0.03  -0.13   0.07    -0.08  -0.02   0.14
    56   1    -0.10   0.10  -0.13    -0.09   0.07  -0.06     0.12   0.22   0.05
    57   1     0.02   0.16  -0.23    -0.02  -0.04  -0.12     0.03   0.11   0.12
    58   1     0.11   0.10  -0.02    -0.06  -0.00  -0.16     0.07   0.10  -0.22
    59   1     0.17   0.16  -0.05     0.03  -0.07  -0.11     0.06  -0.09  -0.12
                      7                      8                      9
                      A                      A                      A
 Frequencies --    137.7759               166.2186               187.1854
 Red. masses --      2.1226                 2.2171                 2.6371
 Frc consts  --      0.0237                 0.0361                 0.0544
 IR Inten    --      0.6124                 0.9129                 0.4139
  Atom  AN      X      Y      Z        X      Y      Z        X      Y      Z
     1   6     0.02   0.02   0.00    -0.00   0.05  -0.01    -0.04   0.02  -0.01
     2   6     0.00  -0.00  -0.00    -0.01   0.01   0.00    -0.02  -0.02   0.02
     3   6    -0.02  -0.01   0.02    -0.02   0.02   0.00     0.00   0.04  -0.02
     4   6     0.01  -0.02  -0.03    -0.00  -0.01  -0.00     0.01  -0.05   0.04
     5   6     0.01  -0.01  -0.09     0.01  -0.01   0.09    -0.02  -0.06   0.01
     6   6    -0.03   0.00   0.14     0.03  -0.03  -0.09    -0.02  -0.03  -0.10
     7   6    -0.01   0.03   0.05     0.02  -0.04  -0.04     0.00  -0.02   0.01
     8   6     0.01   0.03   0.01    -0.00  -0.00   0.01    -0.01   0.02   0.04
     9   6     0.00  -0.01  -0.07     0.00  -0.02  -0.03    -0.02   0.08   0.14
    10   6     0.01   0.02  -0.10    -0.00   0.02  -0.02     0.03   0.03   0.01
    11   6     0.03   0.00  -0.01     0.01   0.00   0.05     0.02   0.04  -0.07
    12   6     0.01   0.01  -0.01     0.00   0.02   0.09     0.01   0.04  -0.09
    13   6     0.03   0.00  -0.01     0.02   0.08   0.08     0.04   0.08  -0.09
    14   6     0.00   0.02   0.02     0.01   0.00   0.07     0.01   0.05  -0.05
    15   6     0.00   0.03   0.03     0.01  -0.02   0.02     0.05   0.01  -0.07
    16   6     0.02   0.01  -0.02     0.03  -0.03  -0.07     0.02  -0.02   0.02
    17   6    -0.00  -0.01  -0.00     0.02  -0.04  -0.04     0.01  -0.02   0.04
    18   6    -0.03  -0.06   0.00     0.04  -0.08  -0.04     0.03  -0.02   0.04
    19   6     0.01   0.00   0.09     0.01  -0.02   0.03     0.01   0.01  -0.00
    20   6     0.04   0.03   0.07    -0.03  -0.01  -0.06     0.04  -0.04   0.13
    21   6    -0.01  -0.02  -0.09    -0.02  -0.02  -0.06    -0.05  -0.05  -0.01
    22   6    -0.02  -0.00  -0.03    -0.03   0.03   0.04    -0.04  -0.01  -0.04
    23   8    -0.08  -0.03   0.04    -0.08   0.09  -0.00    -0.08  -0.06   0.05
    24   1     0.03   0.04  -0.01     0.00   0.06  -0.02    -0.05   0.03  -0.01
    25   1     0.03   0.02   0.03    -0.01   0.06   0.01    -0.06   0.04  -0.01
    26   1     0.01   0.00  -0.00     0.01   0.05  -0.03    -0.01   0.02  -0.04
    27   1     0.00  -0.00   0.01    -0.03   0.00   0.02    -0.07  -0.04   0.02
    28   1    -0.02  -0.01   0.01     0.03   0.03  -0.02     0.13   0.07  -0.06
    29   1    -0.02  -0.00   0.04    -0.05   0.06   0.01    -0.08   0.14  -0.05
    30   1    -0.04  -0.03   0.01    -0.04  -0.03   0.02    -0.02  -0.04   0.02
    31   1     0.02  -0.07  -0.01    -0.03   0.04  -0.03     0.02  -0.06   0.04
    32   1    -0.15   0.02  -0.24     0.14  -0.06   0.22     0.04  -0.06   0.06
    33   1     0.19  -0.05  -0.20    -0.15   0.04   0.19    -0.10  -0.09   0.04
    34   1    -0.13  -0.15   0.23     0.12   0.08  -0.15    -0.00   0.09  -0.16
    35   1     0.02   0.13   0.28    -0.01  -0.12  -0.19    -0.04  -0.12  -0.19
    36   1    -0.03   0.09   0.03     0.06  -0.06  -0.03     0.04  -0.07   0.02
    37   1     0.05   0.06   0.01    -0.04   0.04   0.01    -0.03  -0.07   0.05
    38   1    -0.02  -0.08  -0.07     0.02  -0.08  -0.03    -0.11   0.23   0.14
    39   1     0.01   0.01  -0.13    -0.01  -0.01  -0.09     0.02   0.05   0.30
    40   1     0.00  -0.01  -0.16    -0.01  -0.01  -0.07    -0.01   0.05   0.00
    41   1     0.02   0.10  -0.11    -0.01   0.08  -0.03     0.13  -0.01   0.01
    42   1     0.09  -0.03  -0.01     0.00  -0.04   0.05     0.03   0.08  -0.08
    43   1     0.22   0.16  -0.02     0.29   0.33   0.03     0.13   0.16  -0.10
    44   1     0.08  -0.23  -0.03     0.10  -0.25   0.05     0.06  -0.02  -0.12
    45   1    -0.19   0.08   0.00    -0.30   0.21   0.16    -0.05   0.12  -0.05
    46   1    -0.02   0.02   0.02     0.05  -0.00   0.07    -0.02   0.10  -0.06
    47   1     0.02   0.02   0.06     0.04  -0.01   0.02     0.05   0.03  -0.12
    48   1    -0.04   0.05   0.03    -0.05  -0.05   0.02     0.10  -0.02  -0.07
    49   1     0.07   0.05  -0.03     0.09   0.01  -0.07    -0.04  -0.04   0.03
    50   1     0.02  -0.01  -0.07     0.02  -0.05  -0.12     0.07  -0.02   0.07
    51   1     0.04  -0.13  -0.03     0.00  -0.06  -0.06    -0.07   0.04   0.02
    52   1    -0.12  -0.12   0.02     0.08  -0.06  -0.01     0.15   0.04   0.05
    53   1    -0.04   0.01   0.01     0.04  -0.13  -0.04     0.03  -0.15   0.04
    54   1     0.04   0.02   0.15     0.01   0.00   0.07     0.07  -0.04  -0.03
    55   1    -0.06  -0.04   0.11     0.03  -0.08   0.04    -0.06   0.08  -0.00
    56   1     0.14   0.11   0.07    -0.11   0.03  -0.06     0.23  -0.03   0.12
    57   1     0.01  -0.00   0.17    -0.02  -0.03  -0.13    -0.00  -0.05   0.30
    58   1    -0.03   0.03  -0.21    -0.07  -0.01  -0.13    -0.05  -0.03  -0.06
    59   1     0.00  -0.18  -0.11     0.06  -0.07  -0.08    -0.11  -0.16  -0.01
                     10                     11                     12
                      A                      A                      A
 Frequencies --    192.6843               202.1440               214.2033
 Red. masses --      2.3886                 2.3081                 2.2274
 Frc consts  --      0.0522                 0.0556                 0.0602
 IR Inten    --      0.4534                 0.0735                 0.1026
  Atom  AN      X      Y      Z        X      Y      Z        X      Y      Z
     1   6    -0.05  -0.06   0.02    -0.10   0.02  -0.02     0.11   0.03   0.00
     2   6    -0.05   0.00  -0.01    -0.08  -0.02   0.01     0.05   0.03  -0.04
     3   6    -0.10  -0.06   0.04    -0.10  -0.00   0.01    -0.02  -0.02   0.03
     4   6    -0.06   0.04  -0.04    -0.04  -0.04  -0.00     0.02   0.04  -0.06
     5   6    -0.04   0.05   0.01    -0.06  -0.04   0.06     0.04   0.04   0.07
     6   6    -0.02   0.03  -0.04    -0.06  -0.01   0.01     0.07   0.01  -0.02
     7   6    -0.02   0.02   0.00    -0.02   0.01  -0.03     0.03  -0.02  -0.01
     8   6    -0.00  -0.01   0.04     0.01   0.05  -0.05    -0.01  -0.02   0.04
     9   6     0.01  -0.00   0.08     0.06   0.02  -0.05    -0.05  -0.01   0.03
    10   6     0.04  -0.03  -0.01     0.05   0.01   0.04    -0.04  -0.00  -0.04
    11   6     0.03  -0.03  -0.03     0.07   0.02   0.02    -0.05  -0.00  -0.05
    12   6     0.04  -0.03   0.00     0.04   0.03  -0.00    -0.01  -0.01  -0.01
    13   6     0.09   0.02  -0.00     0.06  -0.03  -0.00     0.07  -0.03  -0.01
    14   6     0.01  -0.01   0.03     0.03   0.05   0.00    -0.01  -0.02   0.06
    15   6    -0.04   0.01   0.02     0.04   0.08   0.06    -0.02  -0.00   0.10
    16   6    -0.04   0.03  -0.01     0.06   0.01  -0.02     0.02  -0.02  -0.02
    17   6    -0.06   0.03  -0.03    -0.01  -0.02  -0.04     0.01  -0.02  -0.06
    18   6    -0.11   0.04  -0.04    -0.05  -0.05  -0.04    -0.04  -0.05  -0.06
    19   6     0.04  -0.00  -0.03     0.08  -0.02   0.00    -0.06   0.05  -0.04
    20   6     0.08   0.00   0.02     0.04  -0.04  -0.01     0.01   0.03   0.10
    21   6     0.08  -0.01   0.00     0.01  -0.02  -0.00    -0.04   0.01  -0.01
    22   6     0.07  -0.02  -0.00     0.01   0.01  -0.01    -0.03   0.00  -0.03
    23   8     0.10  -0.01  -0.03    -0.02   0.00   0.03    -0.05  -0.02   0.01
    24   1    -0.06  -0.10   0.03    -0.13  -0.00   0.00     0.16   0.11  -0.05
    25   1    -0.05  -0.08  -0.03    -0.14   0.04  -0.05     0.17   0.01   0.10
    26   1    -0.06  -0.05   0.06    -0.07   0.03  -0.04     0.04  -0.01  -0.01
    27   1     0.01   0.02  -0.03    -0.12  -0.02   0.03     0.09   0.04  -0.04
    28   1    -0.32  -0.11   0.14    -0.05   0.01  -0.01    -0.15  -0.06   0.09
    29   1     0.04  -0.24   0.08    -0.13   0.05   0.04     0.07  -0.12   0.08
    30   1    -0.09   0.09  -0.05    -0.14  -0.06   0.02    -0.03   0.06  -0.04
    31   1    -0.08   0.06  -0.04    -0.08  -0.02  -0.02    -0.00   0.10  -0.09
    32   1     0.00   0.03   0.05    -0.01  -0.09   0.12     0.13  -0.02   0.16
    33   1    -0.08   0.08   0.04    -0.12  -0.01   0.11    -0.05   0.13   0.15
    34   1    -0.00   0.08  -0.06    -0.04  -0.02   0.01     0.12   0.05  -0.04
    35   1    -0.02  -0.01  -0.07    -0.11   0.00   0.01     0.06  -0.04  -0.06
    36   1     0.02   0.02   0.00    -0.03   0.03  -0.04     0.06  -0.00  -0.01
    37   1    -0.02  -0.05   0.05     0.00   0.08  -0.05    -0.03  -0.02   0.04
    38   1    -0.04   0.05   0.08     0.14  -0.02  -0.06    -0.10   0.00   0.03
    39   1     0.05  -0.00   0.15     0.07   0.05  -0.12    -0.05  -0.02   0.06
    40   1     0.02  -0.04  -0.04     0.07   0.04   0.11    -0.06  -0.00  -0.07
    41   1     0.11  -0.02  -0.01    -0.02  -0.04   0.05     0.01   0.00  -0.04
    42   1     0.02  -0.04  -0.02     0.07   0.05   0.02    -0.07  -0.02  -0.04
    43   1     0.35   0.27  -0.03    -0.21  -0.29   0.06    -0.12  -0.23   0.05
    44   1     0.16  -0.29  -0.05    -0.01   0.30   0.01     0.03   0.23  -0.05
    45   1    -0.22   0.15   0.07     0.40  -0.17  -0.07     0.35  -0.13  -0.05
    46   1     0.00  -0.01   0.03     0.03   0.00   0.01    -0.05  -0.05   0.06
    47   1    -0.06  -0.01   0.04     0.07   0.06   0.16     0.01  -0.02   0.18
    48   1    -0.06   0.02   0.02    -0.01   0.17   0.06    -0.08   0.06   0.10
    49   1    -0.02   0.03  -0.01     0.14   0.02  -0.02     0.11  -0.02  -0.02
    50   1    -0.05   0.03  -0.02     0.08  -0.02  -0.06    -0.02  -0.02  -0.06
    51   1    -0.11   0.04  -0.05     0.03  -0.12  -0.06    -0.05  -0.06  -0.10
    52   1    -0.14   0.04  -0.07    -0.15  -0.11  -0.05    -0.05  -0.06  -0.06
    53   1    -0.14   0.07  -0.00    -0.06   0.05  -0.01    -0.06  -0.05  -0.03
    54   1     0.02  -0.01  -0.06     0.10  -0.03  -0.00    -0.07   0.01  -0.12
    55   1     0.02   0.04  -0.03     0.11  -0.03   0.00    -0.09   0.17  -0.06
    56   1     0.14  -0.01   0.02     0.02  -0.04  -0.01     0.17   0.02   0.09
    57   1     0.07   0.03   0.08     0.04  -0.08  -0.03    -0.03   0.05   0.25
    58   1     0.08   0.00  -0.02    -0.01  -0.04   0.01    -0.01   0.04  -0.04
    59   1     0.09  -0.04  -0.00    -0.01  -0.01  -0.00    -0.09  -0.06  -0.00
                     13                     14                     15
                      A                      A                      A
 Frequencies --    232.4156               245.5631               249.5504
 Red. masses --      1.1425                 1.4494                 1.7986
 Frc consts  --      0.0364                 0.0515                 0.0660
 IR Inten    --      0.1682                 0.4634                 0.0336
  Atom  AN      X      Y      Z        X      Y      Z        X      Y      Z
     1   6     0.04  -0.02   0.01     0.02   0.02   0.01    -0.02  -0.03   0.04
     2   6     0.01  -0.01  -0.01     0.01  -0.00   0.02     0.00   0.00   0.05
     3   6    -0.01   0.02  -0.01     0.03  -0.00   0.00     0.07   0.01  -0.00
     4   6    -0.00  -0.01  -0.02     0.01  -0.01  -0.01    -0.01   0.01   0.03
     5   6    -0.03  -0.01   0.02     0.01  -0.00   0.04    -0.03   0.00  -0.05
     6   6    -0.04   0.01   0.01     0.01  -0.01   0.05    -0.03   0.03  -0.08
     7   6    -0.01   0.02  -0.00     0.00  -0.01  -0.05    -0.01   0.03   0.02
     8   6    -0.01   0.01   0.00    -0.00  -0.02  -0.05    -0.01   0.03   0.06
     9   6     0.00   0.00   0.00    -0.01   0.01   0.02    -0.02   0.00   0.00
    10   6     0.00  -0.01   0.00    -0.02  -0.01   0.07    -0.00  -0.01  -0.07
    11   6    -0.00  -0.01  -0.00    -0.03   0.01  -0.01    -0.02  -0.03  -0.01
    12   6     0.00  -0.01   0.00    -0.01  -0.01  -0.03     0.00  -0.02   0.04
    13   6     0.01  -0.02   0.00    -0.01   0.03  -0.04     0.06  -0.09   0.04
    14   6    -0.01  -0.00   0.01    -0.00  -0.02  -0.02    -0.01   0.02   0.06
    15   6    -0.01   0.01   0.02    -0.01   0.02   0.07    -0.03  -0.00  -0.02
    16   6    -0.00   0.01   0.00     0.02  -0.02  -0.00    -0.01   0.05  -0.08
    17   6    -0.01   0.01  -0.01     0.01  -0.01  -0.04    -0.01   0.03   0.01
    18   6    -0.01   0.02  -0.02    -0.00   0.04  -0.05     0.00  -0.04   0.01
    19   6     0.00  -0.00  -0.01    -0.03   0.01  -0.02    -0.02   0.01  -0.03
    20   6     0.01   0.00  -0.00    -0.02  -0.00   0.02     0.02   0.02   0.01
    21   6     0.02   0.00   0.01    -0.01  -0.00   0.02     0.02   0.01   0.00
    22   6     0.01  -0.01   0.00     0.00  -0.01  -0.01     0.01  -0.01   0.01
    23   8     0.03  -0.01  -0.01     0.02  -0.02  -0.02     0.02  -0.00  -0.00
    24   1     0.10   0.38  -0.15    -0.00  -0.19   0.09    -0.06  -0.28   0.14
    25   1     0.31  -0.17   0.32    -0.13   0.12  -0.14    -0.17   0.05  -0.16
    26   1    -0.29  -0.26  -0.12     0.19   0.16   0.09     0.16   0.12   0.14
    27   1     0.01  -0.02  -0.03    -0.01  -0.00   0.04     0.00   0.00   0.05
    28   1     0.29   0.07  -0.19     0.23   0.02  -0.14     0.35   0.04  -0.20
    29   1    -0.21   0.32   0.04    -0.10   0.18   0.02    -0.11   0.26  -0.02
    30   1    -0.11  -0.27   0.11    -0.00  -0.20   0.11     0.06  -0.24   0.15
    31   1    -0.00   0.01  -0.02    -0.03   0.01  -0.02    -0.02  -0.02   0.03
    32   1    -0.03  -0.05   0.04     0.02  -0.02   0.05    -0.02   0.04  -0.06
    33   1    -0.05   0.01   0.04     0.01   0.03   0.06    -0.04  -0.05  -0.06
    34   1    -0.04   0.01   0.01     0.04  -0.09   0.09    -0.06   0.12  -0.13
    35   1    -0.06   0.01   0.01    -0.01   0.05   0.10    -0.03  -0.04  -0.15
    36   1    -0.01   0.03  -0.01    -0.02   0.03  -0.06     0.03   0.00   0.04
    37   1    -0.01   0.01   0.00    -0.02  -0.04  -0.05    -0.01   0.06   0.05
    38   1     0.00   0.00   0.00     0.03   0.08   0.01    -0.07  -0.03   0.00
    39   1     0.01   0.01  -0.00    -0.02  -0.01   0.06     0.01   0.02  -0.01
    40   1     0.01  -0.01   0.01    -0.01   0.03   0.15    -0.00  -0.05  -0.14
    41   1     0.00  -0.01   0.00    -0.06  -0.09   0.08     0.05   0.06  -0.08
    42   1    -0.01  -0.01  -0.00    -0.04   0.06  -0.01    -0.04  -0.09   0.00
    43   1     0.06   0.02   0.00     0.13   0.17  -0.07     0.02  -0.16   0.11
    44   1     0.02  -0.08  -0.01     0.02  -0.15  -0.04     0.06  -0.05   0.01
    45   1    -0.04   0.00   0.00    -0.20   0.10   0.00     0.14  -0.14  -0.01
    46   1    -0.01  -0.01   0.01    -0.02  -0.08  -0.02    -0.00   0.05   0.06
    47   1    -0.01   0.00   0.03     0.02  -0.01   0.19    -0.03   0.01  -0.06
    48   1    -0.02   0.02   0.02    -0.07   0.14   0.06    -0.07  -0.07  -0.01
    49   1     0.01   0.00   0.01     0.07  -0.04   0.00     0.04   0.16  -0.10
    50   1    -0.01   0.01   0.00     0.00  -0.01  -0.00    -0.04   0.01  -0.19
    51   1    -0.07   0.06  -0.01     0.24  -0.10   0.01     0.08  -0.11  -0.01
    52   1     0.05   0.06  -0.02    -0.27  -0.10  -0.11    -0.09  -0.09   0.04
    53   1    -0.01  -0.03  -0.01    -0.00   0.36  -0.05     0.00   0.04   0.00
    54   1    -0.01  -0.00  -0.01    -0.03  -0.01  -0.04    -0.05   0.00  -0.08
    55   1     0.00   0.00  -0.01    -0.03   0.04  -0.02    -0.01   0.07  -0.04
    56   1     0.01  -0.01  -0.00     0.01  -0.02   0.02     0.06   0.00   0.01
    57   1     0.01   0.01  -0.00    -0.02   0.01   0.04     0.01   0.03   0.06
    58   1     0.02   0.00   0.01     0.01  -0.00   0.04     0.02   0.02  -0.01
    59   1     0.02   0.01   0.01    -0.03   0.00   0.03     0.02  -0.00  -0.00
                     16                     17                     18
                      A                      A                      A
 Frequencies --    269.8586               272.1358               285.5010
 Red. masses --      2.2427                 2.1172                 2.2268
 Frc consts  --      0.0962                 0.0924                 0.1069
 IR Inten    --      0.4293                 1.4139                 0.0243
  Atom  AN      X      Y      Z        X      Y      Z        X      Y      Z
     1   6    -0.06  -0.01  -0.02    -0.04  -0.08   0.04     0.02   0.04  -0.05
     2   6    -0.03  -0.00   0.00    -0.01   0.01   0.02    -0.03  -0.03  -0.05
     3   6    -0.01   0.01  -0.02     0.01  -0.02   0.01    -0.09  -0.03  -0.01
     4   6    -0.02  -0.00   0.02    -0.03   0.04  -0.01    -0.00  -0.04  -0.02
     5   6    -0.02  -0.00  -0.03     0.04   0.06  -0.02    -0.03  -0.04   0.05
     6   6    -0.03  -0.00   0.05     0.06  -0.00   0.03    -0.04  -0.02   0.06
     7   6    -0.02   0.01  -0.04     0.01  -0.03  -0.02     0.00   0.01  -0.01
     8   6    -0.02  -0.01  -0.03     0.01  -0.07  -0.01    -0.00  -0.00   0.04
     9   6    -0.00  -0.04  -0.04     0.02  -0.06   0.02    -0.02   0.03   0.09
    10   6    -0.05  -0.03   0.09     0.02  -0.02   0.02     0.04   0.01  -0.11
    11   6    -0.03   0.00   0.01     0.03  -0.00   0.00    -0.00  -0.04  -0.01
    12   6     0.01  -0.01   0.04     0.01   0.01   0.02    -0.01  -0.01   0.04
    13   6     0.16  -0.00   0.03     0.00   0.14   0.02    -0.04  -0.02   0.05
    14   6     0.00  -0.02   0.04     0.01  -0.05  -0.01    -0.00  -0.00   0.02
    15   6    -0.01  -0.04  -0.02    -0.02  -0.06  -0.05     0.01  -0.03  -0.02
    16   6    -0.00   0.01  -0.04    -0.05  -0.02   0.01     0.00  -0.02   0.00
    17   6     0.01   0.01  -0.02    -0.03   0.00  -0.02     0.02  -0.00  -0.03
    18   6     0.16   0.07  -0.00    -0.06   0.05  -0.03     0.12   0.14  -0.03
    19   6    -0.02   0.04  -0.08     0.04   0.00   0.01    -0.01  -0.02   0.03
    20   6     0.01  -0.00   0.06     0.05   0.01   0.01     0.02   0.02  -0.01
    21   6    -0.01  -0.02   0.00     0.01  -0.00  -0.08     0.02   0.01  -0.04
    22   6    -0.01  -0.00   0.01    -0.01   0.03   0.00     0.01   0.01   0.02
    23   8    -0.04   0.01   0.01    -0.07   0.05   0.02    -0.00   0.02   0.01
    24   1    -0.06   0.08  -0.04    -0.06  -0.17   0.09     0.05  -0.03  -0.05
    25   1    -0.01  -0.04   0.03    -0.04  -0.11  -0.05    -0.07   0.13  -0.06
    26   1    -0.12  -0.06  -0.06    -0.03  -0.04   0.12     0.12   0.11  -0.05
    27   1    -0.04  -0.00   0.01     0.03   0.03  -0.00    -0.06  -0.04  -0.03
    28   1    -0.10   0.00   0.06     0.23  -0.01  -0.18    -0.07  -0.04  -0.03
    29   1     0.06  -0.10  -0.07    -0.14   0.20   0.06    -0.10   0.01   0.05
    30   1     0.04   0.13  -0.07    -0.04  -0.28   0.14    -0.14  -0.08  -0.02
    31   1    -0.02  -0.02   0.03    -0.05   0.03  -0.01     0.00  -0.01  -0.03
    32   1    -0.09   0.03  -0.09     0.01   0.10  -0.06    -0.01  -0.10   0.07
    33   1     0.05  -0.04  -0.08     0.11   0.07  -0.05    -0.05  -0.00   0.07
    34   1    -0.05  -0.09   0.09     0.08  -0.07   0.06    -0.04  -0.07   0.09
    35   1    -0.04   0.08   0.12     0.10   0.04   0.08    -0.07   0.04   0.10
    36   1    -0.03   0.05  -0.05     0.00  -0.02  -0.02     0.03   0.07  -0.03
    37   1    -0.03   0.04  -0.03    -0.01  -0.08  -0.01    -0.03  -0.03   0.04
    38   1     0.10  -0.10  -0.05     0.03  -0.06   0.02    -0.17   0.15   0.09
    39   1    -0.04  -0.03  -0.14     0.00  -0.07   0.01     0.03   0.01   0.25
    40   1    -0.02   0.03   0.23    -0.01  -0.00   0.03     0.00  -0.07  -0.30
    41   1    -0.16  -0.15   0.12     0.02  -0.03   0.02     0.20   0.15  -0.14
    42   1    -0.10   0.02   0.02     0.04   0.00   0.00     0.02  -0.12  -0.00
    43   1     0.24   0.03   0.09    -0.20   0.01  -0.04    -0.16  -0.12   0.05
    44   1     0.20  -0.04  -0.09    -0.05   0.43   0.02    -0.08   0.10   0.09
    45   1     0.15   0.02   0.07     0.25   0.10   0.10     0.07  -0.07   0.02
    46   1     0.04  -0.02   0.04     0.04  -0.03  -0.01     0.01   0.02   0.02
    47   1    -0.02  -0.03  -0.10    -0.06  -0.06  -0.12     0.01  -0.01  -0.07
    48   1     0.00  -0.13  -0.02     0.03  -0.12  -0.05     0.02  -0.09  -0.02
    49   1     0.01   0.05  -0.05    -0.10  -0.06   0.01    -0.01  -0.04   0.00
    50   1    -0.03   0.00  -0.08    -0.05   0.00   0.05    -0.01   0.00   0.02
    51   1     0.17   0.12   0.10    -0.13   0.09  -0.04     0.25   0.13   0.14
    52   1     0.23   0.11   0.01    -0.01   0.09  -0.07     0.05   0.12  -0.10
    53   1     0.22   0.06  -0.10    -0.08  -0.01   0.00     0.17   0.32  -0.13
    54   1    -0.06  -0.03  -0.24     0.03   0.01   0.02    -0.01   0.02   0.08
    55   1     0.03   0.22  -0.12     0.04   0.00   0.01    -0.04  -0.07   0.04
    56   1     0.14  -0.04   0.06     0.12   0.05   0.01     0.03   0.05  -0.01
    57   1    -0.02   0.02   0.17     0.04  -0.02   0.08     0.02   0.02  -0.00
    58   1    -0.02   0.01  -0.04    -0.03   0.01  -0.14    -0.00   0.02  -0.08
    59   1    -0.02  -0.09  -0.00     0.02  -0.08  -0.08     0.05  -0.02  -0.05
                     19                     20                     21
                      A                      A                      A
 Frequencies --    293.7015               303.2627               307.7563
 Red. masses --      1.2487                 2.3458                 2.0782
 Frc consts  --      0.0635                 0.1271                 0.1160
 IR Inten    --      0.0114                 0.0131                 0.9378
  Atom  AN      X      Y      Z        X      Y      Z        X      Y      Z
     1   6    -0.07  -0.01   0.01     0.17   0.10  -0.03    -0.02   0.01   0.02
     2   6    -0.01   0.02   0.03     0.03  -0.02  -0.06     0.01  -0.00   0.04
     3   6     0.04   0.03  -0.00     0.00  -0.02  -0.03     0.07   0.04  -0.00
     4   6    -0.00   0.01   0.03     0.01  -0.01  -0.02     0.00  -0.01   0.02
     5   6     0.01   0.01  -0.02    -0.08  -0.04   0.02    -0.04  -0.02  -0.01
     6   6     0.02  -0.00  -0.04    -0.09   0.02  -0.03    -0.06   0.01   0.00
     7   6     0.01  -0.01  -0.00    -0.05   0.03   0.06    -0.02   0.04  -0.04
     8   6     0.01  -0.02   0.00    -0.03   0.01   0.02    -0.02   0.01  -0.01
     9   6     0.00   0.00   0.03     0.02  -0.06  -0.03     0.02  -0.00   0.03
    10   6     0.01  -0.01  -0.01    -0.00  -0.05   0.07     0.02  -0.07   0.02
    11   6     0.00  -0.01  -0.01     0.02  -0.02   0.01    -0.01  -0.06  -0.02
    12   6    -0.00  -0.01   0.00    -0.00  -0.01  -0.00    -0.02  -0.03   0.01
    13   6    -0.04   0.03   0.01     0.01   0.10  -0.00    -0.11   0.08   0.01
    14   6     0.00  -0.02  -0.00    -0.03  -0.00   0.01    -0.03  -0.02   0.03
    15   6    -0.01  -0.01   0.01    -0.03  -0.03  -0.05    -0.03   0.03   0.12
    16   6     0.00   0.01  -0.03    -0.05   0.02   0.02     0.03   0.01  -0.03
    17   6     0.00  -0.00   0.02    -0.04   0.02   0.05     0.02   0.01  -0.04
    18   6     0.02  -0.02   0.02    -0.03  -0.03   0.07     0.06  -0.04  -0.03
    19   6    -0.00  -0.00   0.00     0.03  -0.01  -0.01    -0.01  -0.02  -0.01
    20   6     0.02   0.01   0.00     0.06  -0.00  -0.00     0.07   0.03   0.00
    21   6     0.01   0.00  -0.03     0.03  -0.00  -0.04     0.04   0.01  -0.07
    22   6     0.00   0.00  -0.00     0.01  -0.00  -0.01     0.02  -0.02  -0.02
    23   8    -0.01   0.01  -0.00     0.01  -0.01  -0.01     0.04  -0.02  -0.03
    24   1    -0.07   0.24  -0.06     0.26   0.03  -0.07    -0.04  -0.02   0.05
    25   1     0.12  -0.14   0.17     0.07   0.23   0.04    -0.05   0.03  -0.02
    26   1    -0.29  -0.19  -0.09     0.28   0.18  -0.01     0.03   0.04   0.01
    27   1    -0.01   0.02   0.03     0.01  -0.03  -0.05    -0.01  -0.01   0.05
    28   1    -0.05   0.03   0.08    -0.03  -0.03  -0.02     0.02   0.06   0.08
    29   1     0.10  -0.08  -0.08     0.02  -0.04  -0.01     0.11  -0.05  -0.11
    30   1     0.10   0.17  -0.04    -0.01  -0.01  -0.05     0.14   0.17  -0.03
    31   1    -0.01  -0.02   0.04     0.07   0.02  -0.01    -0.02  -0.03   0.02
    32   1     0.01   0.05  -0.04    -0.02  -0.09   0.08    -0.07  -0.02  -0.04
    33   1     0.02  -0.03  -0.04    -0.16  -0.03   0.07    -0.03  -0.06  -0.03
    34   1     0.03   0.02  -0.06    -0.11   0.11  -0.08    -0.08  -0.02   0.02
    35   1     0.03  -0.03  -0.07    -0.11  -0.05  -0.10    -0.09   0.05   0.03
    36   1     0.01  -0.04   0.00    -0.05  -0.00   0.06    -0.03   0.06  -0.04
    37   1     0.00  -0.03   0.00     0.01   0.04   0.02    -0.07   0.01  -0.02
    38   1    -0.03   0.05   0.03     0.10  -0.16  -0.03     0.02   0.05   0.03
    39   1     0.01  -0.01   0.08     0.02  -0.02  -0.16     0.06   0.01   0.07
    40   1     0.00  -0.02  -0.03     0.01  -0.00   0.17     0.04  -0.06   0.05
    41   1     0.04   0.00  -0.01    -0.08  -0.14   0.08     0.04  -0.11   0.02
    42   1     0.00  -0.02  -0.01     0.02   0.02   0.00    -0.02  -0.06  -0.02
    43   1    -0.10   0.00  -0.03    -0.06   0.07  -0.05    -0.21   0.07  -0.09
    44   1    -0.06   0.11   0.03    -0.01   0.22  -0.02    -0.15   0.19   0.08
    45   1     0.01   0.02   0.02     0.10   0.10   0.08    -0.07   0.09   0.07
    46   1    -0.00  -0.02   0.00    -0.03   0.04   0.00    -0.07  -0.09   0.04
    47   1    -0.01  -0.01   0.04    -0.06  -0.01  -0.16     0.00  -0.00   0.26
    48   1    -0.05   0.02   0.01     0.03  -0.13  -0.05    -0.12   0.14   0.12
    49   1     0.03   0.07  -0.04    -0.10   0.04   0.02     0.15   0.06  -0.04
    50   1    -0.01  -0.02  -0.09    -0.05   0.02   0.02    -0.03  -0.00  -0.12
    51   1     0.38  -0.25   0.09     0.19  -0.17   0.10    -0.20   0.12  -0.10
    52   1    -0.36  -0.23  -0.00    -0.23  -0.15   0.09     0.34   0.11   0.04
    53   1     0.04   0.41  -0.02    -0.00   0.19   0.02     0.05  -0.37  -0.02
    54   1    -0.01   0.01   0.02     0.01  -0.01  -0.01    -0.05   0.01   0.01
    55   1    -0.02  -0.01   0.01     0.05  -0.00  -0.01    -0.04  -0.02  -0.01
    56   1     0.05   0.02  -0.00     0.11   0.02  -0.00     0.17   0.06  -0.00
    57   1     0.01   0.01   0.03     0.04  -0.01   0.05     0.04   0.04   0.10
    58   1     0.00   0.01  -0.04     0.00   0.00  -0.07     0.03   0.03  -0.10
    59   1     0.01  -0.02  -0.03     0.03  -0.04  -0.05     0.04  -0.03  -0.07
                     22                     23                     24
                      A                      A                      A
 Frequencies --    323.0641               330.3780               361.8728
 Red. masses --      2.5231                 2.5648                 2.5344
 Frc consts  --      0.1552                 0.1649                 0.1955
 IR Inten    --      0.7977                 0.0377                 0.3110
  Atom  AN      X      Y      Z        X      Y      Z        X      Y      Z
     1   6    -0.01  -0.00   0.01    -0.02  -0.06  -0.05    -0.05  -0.02  -0.07
     2   6    -0.00   0.01   0.01    -0.05   0.02  -0.09     0.04  -0.04   0.01
     3   6     0.01   0.00  -0.00    -0.16  -0.10  -0.01    -0.06   0.02   0.07
     4   6    -0.01   0.01   0.00    -0.02   0.05  -0.01     0.07  -0.05  -0.00
     5   6    -0.02   0.01  -0.01     0.05   0.08  -0.04     0.05  -0.06   0.02
     6   6    -0.02   0.02  -0.01     0.07   0.04  -0.04     0.03   0.01   0.00
     7   6    -0.01   0.01  -0.00     0.02   0.01   0.04     0.05   0.03   0.09
     8   6    -0.02  -0.01   0.03     0.02   0.02   0.02     0.04   0.02   0.09
     9   6    -0.06  -0.01   0.02     0.03  -0.00  -0.01     0.03  -0.05  -0.04
    10   6    -0.05   0.01  -0.02     0.01  -0.01   0.03    -0.02  -0.04   0.03
    11   6    -0.01   0.02   0.00    -0.01  -0.00  -0.01    -0.03  -0.02  -0.01
    12   6     0.02  -0.01  -0.04    -0.02  -0.01  -0.03    -0.01  -0.03  -0.01
    13   6     0.16   0.13  -0.05    -0.06   0.03  -0.03    -0.07   0.04  -0.00
    14   6    -0.00  -0.01   0.02    -0.02   0.00   0.02     0.02   0.02   0.03
    15   6     0.01  -0.01   0.03    -0.02   0.03   0.07     0.06  -0.02  -0.04
    16   6     0.02   0.02  -0.03    -0.00   0.02   0.02     0.10   0.06  -0.08
    17   6     0.00   0.01  -0.02    -0.00   0.02   0.05     0.06   0.01   0.03
    18   6     0.04   0.01  -0.01     0.16  -0.09   0.09    -0.08   0.11  -0.00
    19   6    -0.05  -0.05   0.17    -0.01   0.01  -0.00    -0.05   0.03  -0.02
    20   6    -0.12  -0.01  -0.02    -0.00   0.02   0.00    -0.04   0.03   0.02
    21   6    -0.00  -0.05   0.03    -0.01   0.02  -0.00    -0.03   0.01  -0.01
    22   6     0.02  -0.07  -0.02    -0.01  -0.01  -0.02    -0.02  -0.04  -0.03
    23   8     0.07  -0.08  -0.05     0.02  -0.03  -0.02     0.00  -0.06  -0.04
    24   1    -0.01  -0.01   0.01     0.01  -0.12  -0.05    -0.18   0.02   0.00
    25   1    -0.01  -0.01  -0.00    -0.02  -0.07  -0.07    -0.07  -0.03  -0.14
    26   1    -0.01  -0.00   0.02    -0.03  -0.03   0.03    -0.04  -0.05  -0.16
    27   1     0.00   0.01   0.01    -0.01   0.03  -0.11     0.01  -0.05   0.02
    28   1     0.01   0.00  -0.01    -0.07  -0.14  -0.19    -0.04   0.06   0.14
    29   1     0.02  -0.01  -0.02    -0.22   0.07   0.20    -0.08   0.09   0.16
    30   1     0.03   0.01   0.00    -0.29  -0.36   0.06    -0.19  -0.01  -0.00
    31   1    -0.02   0.01  -0.00     0.04   0.05   0.01     0.07  -0.07   0.00
    32   1    -0.03   0.02  -0.02     0.05   0.12  -0.05     0.07  -0.11   0.05
    33   1    -0.01   0.00  -0.02     0.07   0.07  -0.05     0.01  -0.05   0.05
    34   1    -0.03   0.03  -0.01     0.06   0.10  -0.06    -0.00   0.11  -0.05
    35   1    -0.02   0.01  -0.01     0.12  -0.01  -0.08     0.01  -0.06  -0.07
    36   1     0.00   0.03  -0.00     0.03  -0.03   0.05     0.09   0.04   0.09
    37   1    -0.03  -0.01   0.03     0.04   0.05   0.02     0.08   0.06   0.08
    38   1    -0.09  -0.00   0.02     0.06  -0.04  -0.01     0.08  -0.22  -0.03
    39   1    -0.06  -0.02   0.04     0.03   0.01  -0.06     0.01  -0.01  -0.20
    40   1    -0.07   0.00  -0.06     0.03   0.01   0.08     0.02  -0.02   0.10
    41   1    -0.03   0.05  -0.03    -0.02  -0.06   0.04    -0.07  -0.09   0.04
    42   1     0.09   0.05  -0.01    -0.01   0.02  -0.02    -0.05  -0.01  -0.01
    43   1     0.07   0.05  -0.07    -0.07   0.05  -0.08    -0.10   0.07  -0.08
    44   1     0.15   0.35  -0.16    -0.07   0.02   0.01    -0.09   0.07   0.04
    45   1     0.38   0.11   0.08    -0.09   0.05  -0.01    -0.09   0.07   0.04
    46   1    -0.03  -0.01   0.02    -0.07  -0.02   0.02    -0.02   0.08   0.02
    47   1     0.00  -0.01   0.03    -0.01   0.01   0.12     0.07   0.01  -0.11
    48   1    -0.00  -0.01   0.03    -0.04   0.06   0.07     0.04  -0.10  -0.03
    49   1     0.08   0.07  -0.04     0.04   0.05   0.02     0.15   0.25  -0.11
    50   1    -0.01   0.00  -0.10    -0.02   0.01  -0.02     0.07  -0.03  -0.26
    51   1     0.04   0.02   0.01     0.23  -0.14   0.10    -0.15   0.17   0.02
    52   1     0.06   0.02  -0.00     0.19  -0.12   0.25    -0.09   0.15  -0.17
    53   1     0.05   0.00  -0.04     0.24  -0.13  -0.04    -0.14   0.15   0.10
    54   1     0.05   0.02   0.36    -0.02   0.01   0.01    -0.08   0.02  -0.05
    55   1    -0.11  -0.25   0.20    -0.03   0.00  -0.00    -0.06   0.07  -0.02
    56   1    -0.34   0.06  -0.02     0.02   0.02   0.00     0.00   0.03   0.02
    57   1    -0.06  -0.01  -0.24    -0.01   0.02   0.02    -0.05   0.04   0.05
    58   1     0.04  -0.03   0.03     0.02   0.02   0.03     0.02   0.03  -0.00
    59   1     0.02  -0.01   0.03    -0.04   0.04   0.01    -0.07   0.02  -0.01
                     25                     26                     27
                      A                      A                      A
 Frequencies --    368.8616               391.2067               413.2006
 Red. masses --      2.9006                 2.5991                 2.8987
 Frc consts  --      0.2325                 0.2344                 0.2916
 IR Inten    --      0.3744                 1.1459                 0.5494
  Atom  AN      X      Y      Z        X      Y      Z        X      Y      Z
     1   6    -0.01  -0.01  -0.02    -0.05  -0.01  -0.01    -0.03  -0.00   0.06
     2   6     0.01   0.00  -0.01     0.02   0.01   0.03    -0.03   0.06   0.01
     3   6    -0.02  -0.00   0.02     0.02   0.03   0.04     0.03  -0.00  -0.02
     4   6     0.02   0.01  -0.00     0.02  -0.00  -0.03    -0.02   0.03  -0.04
     5   6     0.02   0.01   0.01    -0.01  -0.01  -0.00    -0.00   0.04  -0.01
     6   6     0.02   0.00   0.00    -0.02   0.01  -0.00    -0.00   0.01  -0.00
     7   6     0.01   0.01  -0.04     0.03   0.05  -0.03    -0.01   0.00   0.02
     8   6     0.01   0.08  -0.09     0.01   0.08   0.05    -0.06   0.05   0.13
     9   6    -0.02   0.14  -0.04     0.12   0.01  -0.01    -0.09  -0.03  -0.02
    10   6    -0.04  -0.03   0.00     0.11  -0.03   0.00    -0.09   0.09   0.02
    11   6    -0.10  -0.08   0.03     0.01  -0.04  -0.00    -0.00   0.08   0.03
    12   6    -0.00  -0.06   0.10    -0.05  -0.03  -0.00     0.01   0.04  -0.01
    13   6     0.02   0.04   0.11     0.04   0.01  -0.01    -0.10   0.00  -0.00
    14   6     0.04   0.06  -0.04    -0.07   0.03   0.07    -0.02   0.07   0.09
    15   6     0.06   0.07  -0.08    -0.02  -0.07  -0.02     0.07  -0.02   0.00
    16   6     0.02   0.00   0.08    -0.06  -0.09   0.09     0.04  -0.06   0.05
    17   6     0.02   0.01   0.01     0.03  -0.01  -0.07     0.00  -0.03  -0.06
    18   6    -0.04  -0.06   0.02     0.02  -0.06  -0.08     0.04   0.01  -0.08
    19   6    -0.12  -0.02  -0.02    -0.01   0.03   0.02     0.04  -0.03  -0.04
    20   6    -0.03   0.01   0.03    -0.02   0.07  -0.00     0.04  -0.09   0.00
    21   6     0.05  -0.08  -0.08    -0.07   0.11   0.02     0.04  -0.10  -0.05
    22   6     0.03  -0.08   0.04    -0.06  -0.01  -0.04     0.04  -0.02  -0.03
    23   8     0.05  -0.02  -0.04     0.00  -0.06  -0.03     0.09  -0.07  -0.01
    24   1    -0.03  -0.01  -0.00    -0.12   0.00   0.04    -0.00  -0.03   0.05
    25   1    -0.00  -0.02  -0.04    -0.04  -0.05  -0.07     0.02  -0.05   0.05
    26   1    -0.02  -0.02  -0.03    -0.07  -0.03  -0.04    -0.08  -0.01   0.13
    27   1     0.02   0.01  -0.01     0.02   0.01   0.04    -0.01   0.07   0.01
    28   1    -0.02  -0.01   0.01     0.02   0.04   0.07     0.01  -0.04  -0.08
    29   1    -0.03   0.03   0.07     0.02   0.03   0.03     0.05  -0.05  -0.06
    30   1    -0.07  -0.04   0.01     0.01   0.05   0.02     0.11   0.01   0.03
    31   1     0.02   0.01  -0.00    -0.03   0.00  -0.04    -0.07   0.04  -0.05
    32   1     0.02   0.01   0.01    -0.00  -0.05   0.02    -0.00   0.02  -0.00
    33   1     0.02   0.02   0.01    -0.03   0.00   0.02     0.00   0.06  -0.00
    34   1     0.04  -0.05   0.03    -0.03  -0.02   0.01    -0.00   0.03  -0.01
    35   1     0.02   0.04   0.03    -0.05   0.04   0.02     0.02  -0.01  -0.01
    36   1    -0.04  -0.02  -0.04     0.09   0.08  -0.03     0.10   0.05   0.02
    37   1     0.01   0.08  -0.09    -0.03   0.14   0.04    -0.09   0.13   0.12
    38   1    -0.04   0.27  -0.05     0.16  -0.08  -0.00    -0.05  -0.27  -0.01
    39   1     0.02   0.12   0.09     0.16   0.06  -0.11    -0.13   0.02  -0.25
    40   1     0.08  -0.08   0.06     0.14  -0.07  -0.02    -0.14   0.11  -0.01
    41   1    -0.08  -0.07   0.01     0.14  -0.02  -0.00    -0.14   0.14   0.01
    42   1    -0.15  -0.14   0.04     0.03  -0.04  -0.01    -0.04   0.11   0.03
    43   1    -0.02   0.03   0.08     0.08   0.05  -0.01    -0.16  -0.01  -0.06
    44   1     0.02   0.14   0.06     0.06   0.02  -0.07    -0.13   0.00   0.11
    45   1     0.11   0.05   0.20     0.05   0.04   0.06    -0.14  -0.01  -0.05
    46   1     0.15   0.07  -0.04    -0.09   0.08   0.06    -0.08   0.17   0.08
    47   1     0.06   0.10  -0.15     0.00   0.00  -0.19     0.11   0.05  -0.14
    48   1     0.16   0.03  -0.08     0.07  -0.22  -0.01     0.11  -0.16   0.01
    49   1    -0.10  -0.14   0.10    -0.17  -0.36   0.14     0.01  -0.22   0.07
    50   1     0.10   0.05   0.25    -0.07   0.05   0.35     0.07  -0.01   0.19
    51   1    -0.01  -0.12  -0.07     0.11  -0.14  -0.12     0.10  -0.01  -0.02
    52   1    -0.10  -0.11   0.07    -0.07  -0.13  -0.03     0.00  -0.01  -0.10
    53   1    -0.06  -0.06   0.05     0.03   0.00  -0.09     0.06   0.08  -0.12
    54   1    -0.16  -0.04  -0.08    -0.06   0.07   0.03     0.09  -0.08  -0.10
    55   1    -0.12   0.06  -0.03    -0.02   0.03   0.02     0.10   0.01  -0.06
    56   1     0.04   0.03   0.03    -0.04   0.08  -0.00     0.12  -0.10  -0.00
    57   1    -0.05   0.09   0.10    -0.02   0.02  -0.01     0.03  -0.07   0.07
    58   1     0.02   0.00  -0.27     0.01   0.08   0.15    -0.03  -0.08  -0.13
    59   1     0.16  -0.26  -0.10    -0.15   0.21   0.04     0.06  -0.18  -0.06
                     28                     29                     30
                      A                      A                      A
 Frequencies --    422.1065               429.7149               445.5981
 Red. masses --      2.6993                 3.4919                 2.9364
 Frc consts  --      0.2834                 0.3799                 0.3435
 IR Inten    --      0.4400                 1.0596                 0.3525
  Atom  AN      X      Y      Z        X      Y      Z        X      Y      Z
     1   6    -0.03  -0.03  -0.13     0.01  -0.01  -0.06     0.00   0.01   0.03
     2   6     0.13  -0.02   0.02     0.05  -0.06   0.02    -0.03   0.02  -0.01
[...]
 217,-0.00000014,-0.00000075,0.00000228,0.00000002,-0.00000263,0.000001
 51,0.00000347,-0.00000113,-0.00000047,0.00000416,0.00000433,0.00000370
 ,0.00000466,-0.00000491,-0.00000202,0.00000683,0.00001224,0.00000211,-
 0.00000313,-0.00000566,0.00001223,0.00001036,0.00000873,0.00000015,0.0
 0000798,-0.00000629,0.00008964,-0.00013784,0.00001119,0.00005167,0.000
 08973,0.00000968,0.00000087,0.00006459,0.00005012,0.00016792,-0.000065
 79,-0.00026753,0.00003168,0.00004233,-0.00003963,-0.00003401,-0.000001
 77,-0.00003025,-0.00001531,-0.00002976,0.00003970,-0.00000041,-0.00003
 610,-0.00004647,0.00003486,-0.00001776,0.00006350,0.00000722,0.0000090
 1,-0.00001109,0.00000316,-0.00000151,0.00000009,-0.00000188,0.00000731
 ,-0.00000673,-0.00000226,-0.00000110,-0.00000162,0.00000419,0.00000933
 ,-0.00000075,-0.00000928,-0.00000199,0.00000361,0.00049764,0.00087887,
 0.00006504,0.00106700,0.00071563,0.00015174,-0.01261382,0.01732854,0.0
 0013003,0.14772091,0.00000618,-0.00000088,0.00000168,-0.00000478,0.000
 00498,-0.00001656,-0.00000187,-0.00000330,0.00000979,-0.00000430,-0.00
 000685,0.00002264,-0.00000722,0.00000591,-0.00000108,0.00002619,0.0000
 0126,0.00000433,-0.00002510,0.00003473,0.00005249,-0.00002508,0.000044
 82,-0.00011613,-0.00061617,-0.00040422,-0.00011906,0.00178883,-0.00092
 240,0.00044082,-0.00574833,-0.00311920,-0.00146263,-0.00023921,0.00054
 676,-0.00022440,0.00013962,-0.00003638,0.00003489,0.00004036,0.0000621
 5,0.00009571,0.00001620,-0.00003307,-0.00005498,-0.00001033,0.00000659
 ,0.00003212,0.00001271,-0.00001014,-0.00003345,0.00000454,0.00000480,0
 .00000779,0.01662610,-0.02188229,0.00020052,0.12263358,-0.22013683,-0.
 00056901,0.00010646,0.00066091,0.00018017,-0.00023797,0.00083186,0.000
 01611,0.00000045,-0.00002864,0.00006245,0.00000106,0.00000501,-0.00000
 584,0.00000571,-0.00000537,0.00000850,-0.00000217,-0.00000044,-0.00000
 239,-0.00000016,-0.00000051,0.00000123,-0.00000160,0.00000003,-0.00000
 300,0.00000970,-0.00000637,0.00000497,-0.00000256,0.00000161,-0.000001
 02,-0.00000189,0.00000149,0.00000162,0.00000282,-0.00001228,0.00000674
 ,0.00000894,-0.00000947,-0.00000592,0.00000049,0.00000434,-0.00000552,
 -0.00000604,0.00000942,0.00001404,0.00000019,-0.00000191,-0.00000163,-
 0.00001055,-0.00000633,0.00001765,0.00003076,0.00002287,-0.00000898,0.
 00015671,-0.00025512,-0.00000074,0.00001870,0.00006061,-0.00005711,-0.
 00009528,-0.00006244,0.00007129,-0.00006545,0.00038947,-0.00009878,-0.
 00001347,0.00000946,-0.00002066,-0.00002718,-0.00002892,-0.00002646,-0
 .00002378,-0.00000175,0.00008267,-0.00002186,-0.00001189,0.00000669,0.
 00001201,0.00000791,0.00000979,-0.00000309,-0.00000475,0.00001795,-0.0
 0000110,-0.00000080,-0.00000736,0.00002160,-0.00001721,0.00001884,0.00
 000800,-0.00000473,0.00001445,-0.00000447,-0.00000456,-0.00000480,0.00
 000795,-0.00000179,-0.00001511,0.00002028,0.00063240,-0.00045137,0.000
 02336,0.00119042,0.00067024,-0.00170552,0.00305982,-0.00075886,-0.1328
 5931,0.23893955,-0.00000097,-0.00000006,0.00000028,0.00000147,-0.00000
 280,0.00000139,0.00000019,-0.00000037,-0.00000111,0.00001190,0.0000008
 2,0.00000252,-0.00000246,0.00000817,0.00000325,-0.00001282,0.00000338,
 -0.00000444,0.00003818,0.00002707,0.00002367,-0.00009890,0.00001107,-0
 .00005635,-0.00008856,-0.00004216,-0.00004509,0.00011851,-0.00027359,0
 .00062734,-0.00057979,-0.00023195,0.00014333,0.00011736,-0.00018668,0.
 00065359,-0.00015182,0.00002055,0.00016826,0.00018036,0.00010673,0.000
 16420,-0.00002139,-0.00005405,0.00000182,0.00002902,-0.00000371,0.0000
 0967,-0.00001462,-0.00001138,-0.00000587,0.00000601,0.00000366,0.00000
 460,0.00351850,-0.00253774,-0.00058804,0.00256111,-0.00093498,-0.04858
 879,-0.01857606,0.02653426,-0.00417350,-0.00074684,-0.00445250,-0.0057
 4273,-0.00272566,0.00201235,0.00131131,-0.00000008,-0.00000146,0.00000
 078,-0.00000098,0.00000105,-0.00000140,0.00000041,0.00000160,0.0000007
 4,0.00000177,0.00000033,0.00000322,0.00000021,0.00000130,0.00000118,-0
 .00000174,0.00000109,-0.00000094,0.00000116,-0.00000020,-0.00000085,0.
 00000098,-0.00000063,-0.00000178,0.00000068,0.00000215,-0.00000022,0.0
 0000012,0.00000339,0.00000267,0.00000278,0.00000251,-0.00000242,0.0000
 0009,0.00000635,0.00000847,-0.00000169,-0.00000380,-0.00000262,0.00001
 219,0.00001049,0.00000330,0.00000269,0.00000474,0.00000920,0.00003123,
 -0.00003292,0.00000875,0.00007011,0.00009438,0.00002270,-0.00005620,-0
 .00009477,-0.00003163,-0.00041765,0.00031022,0.00016655,0.00004713,0.0
 0002714,-0.00004821,0.00001740,-0.00000949,-0.00004753,-0.00001206,-0.
 00004465,0.00003708,-0.00002749,-0.00004612,-0.00003948,0.00003400,-0.
 00001505,0.00006237,0.00000989,0.00001133,-0.00000848,0.00000168,-0.00
 000275,-0.00000074,-0.00000161,0.00000468,-0.00000340,-0.00000132,-0.0
 0000108,-0.00000008,0.00000281,0.00000691,-0.00000098,-0.00000640,-0.0
 0000263,0.00000212,0.00033902,0.00003900,-0.00004918,-0.00033841,0.000
 33796,0.00027976,0.01468696,-0.02140078,0.00033311,0.00069696,0.001184
 48,0.05272941,0.00000026,0.00000023,0.00000052,-0.00000160,0.00000073,
 -0.00000316,-0.00000035,-0.00000012,0.00000138,0.00000115,0.00000033,0
 .00000301,0.00000187,0.00000990,0.00000430,-0.00002773,0.00001353,-0.0
 0000479,0.00008181,0.00008102,0.00003686,-0.00023192,0.00015266,-0.000
 05146,-0.00006642,-0.00000633,-0.00002352,0.00010305,-0.00006311,0.000
 05185,-0.00025931,0.00019897,-0.00013639,-0.00212252,0.00228437,-0.000
 05269,-0.00047015,0.00003275,0.00006902,0.00071711,0.00066733,0.000075
 04,0.00003777,-0.00002813,0.00007653,-0.00000492,0.00000039,-0.0000155
 3,0.00000837,-0.00001199,0.00000263,-0.00000401,0.00000476,0.00000124,
 -0.00046330,0.00176910,-0.00348356,-0.01006812,-0.01216216,0.00022969,
 -0.16688917,-0.13617319,-0.00662539,0.01073614,0.01530159,0.00093089,0
 .00192461,-0.00067911,-0.00010402,0.00000058,0.00000105,-0.00000154,0.
 00000148,-0.00000130,0.00000178,-0.00000033,-0.00000010,-0.00000052,-0
 .00000017,0.00000020,0.00000042,-0.00000024,0.00000014,-0.00000050,0.0
 0000193,-0.00000160,0.00000132,-0.00000060,0.00000030,-0.00000047,-0.0
 0000020,-0.00000038,0.,-0.00000150,0.00000006,0.00000056,-0.00000015,0
 .00000045,-0.00000207,0.00000229,0.00000083,-0.00000273,-0.00000073,0.
 00000483,0.00000664,0.00000134,-0.00000608,0.00000046,0.00002051,0.000
 01938,-0.00001254,0.00000907,-0.00000515,0.00000233,0.00001776,-0.0000
 3426,0.00001241,0.00003454,0.00004689,0.00003502,0.00000276,0.00000554
 ,0.00000134,0.00004753,-0.00005837,0.00000417,0.00012876,-0.00010556,-
 0.00003465,0.00031235,-0.00016896,-0.00005081,0.00003280,-0.00000198,0
 .00001011,0.00003454,-0.00004696,0.00001617,0.00000570,-0.00001104,-0.
 00001596,-0.00000229,0.00001037,-0.00002141,0.00000130,-0.00000070,-0.
 00000035,-0.00000117,0.00000125,0.00000322,0.00000274,-0.00000113,0.00
 000205,-0.00000055,-0.00000063,-0.00000052,0.00000155,-0.00000150,-0.0
 0000300,-0.00044460,-0.00105785,-0.00024524,0.00025568,0.00031156,0.00
 014746,0.00111406,0.00032067,0.00015328,-0.00009746,0.00022695,0.00040
 068,0.17785291,0.00000566,-0.00000185,0.00000160,-0.00000650,0.0000026
 9,-0.00001596,-0.00000296,-0.00000524,0.00001003,-0.00000862,-0.000006
 31,0.00001714,-0.00001457,-0.00002289,-0.00001252,0.00009895,-0.000025
 39,0.00003037,-0.00025087,-0.00012981,-0.00007817,0.00065092,-0.000298
 23,0.00005639,0.00002631,0.00003976,0.00008136,-0.00000727,0.00010458,
 -0.00006330,0.00038653,0.00025447,0.00057616,0.00478869,-0.00300977,0.
 00046113,0.00048427,0.00021161,-0.00040606,-0.00162588,-0.00082495,-0.
 00019014,-0.00008841,-0.00004323,-0.00020652,0.00001807,0.00002835,0.0
 0007103,-0.00001336,0.00002285,-0.00003897,0.00000337,0.00000953,0.000
 00886,0.00050358,0.00069221,0.00060702,0.00280658,0.00349553,-0.000556
 05,-0.13076699,-0.19967731,-0.00962351,-0.02295683,-0.02701994,-0.0010
 3108,-0.00028008,0.00609360,0.00007117,0.00000187,0.00000451,-0.000005
 76,0.00000480,-0.00000492,0.00000748,-0.00000165,0.00000044,-0.0000013
 0,-0.00000047,0.00000058,0.00000198,-0.00000079,0.00000076,-0.00000195
 ,0.00000871,-0.00000591,0.00000390,-0.00000098,0.00000261,-0.00000232,
 0.,0.00000191,-0.00000021,0.00000717,-0.00001382,0.00000597,0.00001084
 ,-0.00001261,-0.00000302,-0.00000424,0.00000019,0.00000272,-0.00000169
 ,-0.00000533,-0.00000735,0.00000638,0.00000464,-0.00000604,-0.00002244
 ,0.00001023,0.00001379,0.00000781,0.00000820,-0.00001732,-0.00002258,-
 0.00001231,-0.00002769,-0.00005493,-0.00002385,-0.00006388,0.00000934,
 -0.00000525,0.00001615,0.00000395,-0.00000227,-0.00013103,-0.00010534,
 0.00006988,0.00003664,-0.00010034,0.00010833,0.00002463,-0.00001711,-0
 .00000387,0.00008734,0.00005818,-0.00001080,-0.00008463,0.00003440,0.0
 0002061,0.00008421,0.00001066,0.00001694,0.00002225,0.00000438,-0.0000
 1097,-0.00001531,0.00003568,-0.00003792,0.00002405,0.00000671,-0.00000
 631,0.00001424,-0.00000260,-0.00000427,-0.00000415,0.00000845,-0.00000
 097,-0.00001572,0.00004569,0.00022809,0.00018126,-0.00003225,-0.000060
 24,0.00001388,0.00000563,0.00026520,-0.00041168,-0.00015559,0.00027369
 ,-0.00048763,0.14379412,0.21624331,0.00000033,-0.00000028,-0.00000048,
 0.00000159,-0.00000007,0.00000074,-0.00000004,-0.00000074,-0.00000006,
 0.00000248,-0.00000328,0.00000471,0.00000030,0.00000584,0.00000233,-0.
 00001011,0.00000360,-0.00000560,0.00002270,0.00001571,0.00005161,-0.00
 007317,0.00003187,-0.00007133,-0.00006934,-0.00001322,0.00000589,0.000
 19554,-0.00012688,0.00005317,-0.00016310,0.00078864,-0.00011355,-0.000
 08441,0.00034529,0.00101533,0.00038409,0.00013771,0.00019138,0.0001396
 9,0.00007488,0.00021352,0.00003986,0.00000892,-0.00001095,-0.00000397,
 -0.00001303,0.00001741,0.00000541,-0.00000894,-0.00000674,0.00000700,-
 0.00000521,-0.00000027,-0.00233451,0.00193875,-0.00507891,-0.01867640,
 -0.02325332,-0.00154383,-0.00627842,-0.00962350,-0.05063817,0.00142360
 ,0.00109563,-0.00028193,0.00014198,-0.00004963,-0.00127355,-0.00000020
 ,-0.00000070,0.00000054,-0.00000063,0.00000071,-0.00000052,-0.00000015
 ,0.00000049,0.00000026,0.00000079,-0.00000017,0.00000065,-0.00000011,0
 .00000012,0.00000024,-0.00000059,0.00000071,-0.00000052,0.00000053,0.0
 0000024,0.00000008,0.00000049,0.00000094,-0.00000057,0.00000021,0.0000
 0067,-0.00000024,-0.00000032,0.00000089,0.00000068,0.00000168,0.000001
 44,-0.00000268,-0.00000152,0.00000377,0.00000624,-0.00000374,0.0000032
 8,-0.00000080,-0.00001358,-0.00001766,0.00001341,0.00000501,-0.0000008
 1,0.00000460,0.00001934,-0.00003398,0.00000514,0.00004890,0.00005617,0
 .00009593,-0.00003009,-0.00000424,-0.00000195,0.00007920,-0.00003592,0
 .00000284,-0.00019912,0.00022089,-0.00000756,-0.00045604,0.00013705,-0
 .00003955,-0.00000223,-0.00010335,0.00003406,-0.00003906,0.00003166,0.
 00000893,-0.00000021,-0.00000485,0.00001381,-0.00000210,-0.00000696,0.
 00001570,-0.00000193,0.00000407,0.00000076,-0.00000015,0.00000403,-0.0
 0000399,-0.00000148,0.00000120,-0.00000018,-0.00000007,0.00000322,-0.0
 0000032,-0.00000292,-0.00000120,0.00000244,-0.00106601,-0.00146006,-0.
 00024367,-0.00027267,-0.00002899,0.00006505,0.00076581,-0.00042839,0.0
 0117771,0.00038019,0.00043027,0.00084407,0.01006417,0.00989044,0.05343
 838,-0.00000245,0.00000020,0.00000061,0.00000133,-0.00000096,0.0000052
 5,-0.00000040,-0.00000038,-0.00000137,0.00000867,0.00000462,-0.0000009
 0,-0.00000185,0.00000326,0.00000247,-0.00000751,0.00000126,-0.00000073
 ,0.00001177,0.00001057,-0.00001502,-0.00002652,-0.00003886,0.00001630,
 0.00001632,0.00001942,0.00000205,-0.00008139,-0.00000150,-0.00007280,-
 0.00014392,-0.00028958,-0.00001902,-0.00016762,0.00051809,-0.00085317,
 -0.00053049,-0.00124193,0.00043720,-0.00001269,-0.00001220,-0.00008434
 ,-0.00006595,-0.00000625,-0.00000826,0.00003885,0.00001371,-0.00001761
 ,-0.00001914,-0.00000192,-0.00000030,-0.00000422,0.00001123,0.00000547
 ,0.00109181,0.00021061,0.00037317,0.01179228,-0.00157321,-0.01666845,-
 0.14812976,0.00924661,0.13073020,-0.01310069,-0.00186396,0.01289309,-0
 .00164390,0.00499472,-0.00217165,0.00000161,-0.00000063,0.00000081,-0.
 00000162,0.00000197,-0.00000214,0.00000076,-0.00000009,-0.00000022,-0.
 00000002,-0.00000114,0.00000046,0.00000035,-0.00000025,0.00000032,-0.0
 0000234,0.00000190,-0.00000140,0.00000188,0.00000052,-0.00000037,0.000
 00312,-0.00000129,-0.00000348,0.00000049,0.00000372,-0.00000119,-0.000
 00023,0.00000199,0.00000133,0.00000226,0.00000184,-0.00000009,0.000000
 62,-0.00000009,-0.00000084,0.00000985,-0.00000521,-0.00000745,0.000040
 42,0.00003828,-0.00002026,0.00000081,-0.00000257,-0.00000782,0.0000017
 6,0.00001271,0.00000504,0.00000266,-0.00003007,-0.00001852,0.00003203,
 0.00001224,-0.00000254,-0.00006496,0.00005662,-0.00007233,0.00021677,-
 0.00034814,-0.00010021,0.00035712,-0.00141750,0.00019109,-0.00012151,0
 .00031167,-0.00019900,0.00000610,-0.00007540,-0.00006307,0.00005209,-0
 .00001524,0.00016522,0.00005145,0.00006411,-0.00005302,0.00001346,-0.0
 0001428,-0.00000552,-0.00001015,0.00001237,-0.00000860,-0.00000282,0.0
 0000157,-0.00000400,0.00000316,0.00000259,-0.00000151,-0.00000104,-0.0
 0000236,0.00000372,0.00010587,0.00031784,0.00019289,-0.00014309,0.0001
 1136,0.00023741,-0.00122374,-0.00013512,-0.00385734,0.00129718,-0.0001
 9059,0.00094197,-0.01233479,0.00270761,0.01605749,0.16268198,-0.000000
 01,0.00000031,-0.00000145,0.00000161,0.00000084,0.00000328,0.00000108,
 0.00000157,-0.00000235,-0.00000942,-0.00000376,-0.00000599,0.00000667,
 -0.00000034,0.00000035,-0.00001348,0.00000238,-0.00000862,0.00002388,0
 .00000872,0.00002894,-0.00008637,0.00007275,-0.00002160,0.00000103,-0.
 00002969,-0.00000183,0.00005204,0.00001536,0.00000041,0.00028701,0.000
 12146,0.00026958,-0.00117346,-0.00002924,0.00193932,-0.00044978,-0.002
 24769,0.00003897,0.00016379,-0.00000431,0.00036352,0.00011665,0.000072
 17,0.00010452,-0.00006144,-0.00003641,0.00001069,0.00002720,-0.0000025
 0,0.00001490,0.00000379,-0.00001507,-0.00000962,0.00059737,0.00006348,
 -0.00058239,-0.00201022,0.00047500,0.00275744,0.00991918,-0.05440742,-
 0.01838011,0.01631064,0.00503067,-0.02544750,0.00423852,-0.00426870,0.
 00356907,-0.00000148,-0.00000117,0.00000193,-0.00000133,0.00000096,-0.
 00000164,0.00000003,-0.00000070,0.00000052,-0.00000046,0.00000015,-0.0
 0000241,0.00000010,-0.00000081,0.00000019,-0.00000183,0.00000131,-0.00
 000087,-0.00000060,-0.00000076,0.00000138,-0.00000152,0.00000125,0.000
 00195,-0.00000208,0.00000207,-0.00000168,-0.00000397,0.00000165,-0.000
 00022,-0.00000112,-0.00000148,0.00000052,-0.00000020,-0.00000179,-0.00
 000173,-0.00000573,0.00000824,0.00000417,-0.00003871,-0.00003910,0.000
 02397,-0.00000923,0.00000395,0.00001021,-0.00000331,0.00000879,-0.0000
 0326,-0.00000922,-0.00000348,0.00001772,-0.00004220,-0.00002916,0.0000
 0435,0.00000786,0.00009863,0.00016193,-0.00031049,0.00010218,0.0004215
 8,-0.00111468,-0.00142559,0.00017554,0.00007629,-0.00013184,0.00016808
 ,-0.00007220,0.00014517,0.00008339,-0.00008064,0.00002594,-0.00021352,
 -0.00003564,-0.00008837,0.00005381,-0.00001210,0.00001992,0.00000727,-
 0.00000420,0.00000379,-0.00000547,-0.00000223,0.00000311,-0.00000371,-
 0.00000247,-0.00000163,0.00000320,-0.00000182,0.00000310,0.00000474,-0
 .00006943,-0.00003181,0.00011560,-0.00014959,0.00010930,-0.00011234,0.
 00065767,0.00102444,0.00077350,-0.00065070,0.00020798,0.00009675,-0.01
 463455,0.00307126,0.01998624,-0.01142448,0.05209489,0.00000103,-0.0000
 0017,-0.00000072,0.00000131,0.00000006,0.00000001,0.00000075,0.0000006
 7,-0.00000095,-0.00000047,-0.00000240,0.00000015,-0.00000002,-0.000000
 58,-0.00000096,0.00000510,-0.00000203,-0.00000351,-0.00001363,-0.00002
 164,0.00000759,0.00006084,0.00000634,-0.00003480,-0.00002000,-0.000015
 79,-0.00000812,0.00005118,-0.00001322,-0.00003394,-0.00029982,-0.00014
 280,-0.00023668,0.00060243,-0.00065938,-0.00053451,0.00160339,0.001058
 09,0.00010616,-0.00013116,-0.00010369,-0.00004682,0.00002527,0.0000500
 2,-0.00002553,-0.00000551,-0.00000675,0.00000175,0.00000327,0.00000295
 ,-0.00000207,0.00000848,-0.00001136,-0.00000272,0.00113038,0.00036677,
 0.00106899,0.01771528,-0.00145844,-0.02593893,0.12719938,-0.01558655,-
 0.19732649,-0.00178522,0.00011971,0.00306095,-0.00087439,0.00036703,-0
 .00123162,-0.00000157,-0.00000063,0.00000099,-0.00000018,0.00000009,-0
 .00000008,-0.00000020,0.00000035,0.00000034,0.00000058,0.00000015,0.00
 000014,-0.00000008,0.00000039,0.00000022,-0.00000031,0.00000022,0.0000
 0008,-0.00000086,-0.00000095,0.00000057,-0.00000241,0.00000071,0.00000
 217,0.00000004,-0.00000120,0.00000048,-0.00000074,0.00000106,0.0000010
 3,-0.00000216,-0.00000166,0.00000043,-0.00000015,0.00000094,0.00000237
 ,-0.00001129,0.00000657,0.00000559,-0.00002706,-0.00003534,0.00002398,
 -0.00000798,0.00000678,0.00001211,0.00000532,-0.00000988,-0.00000011,-
 0.00000215,-0.00002577,0.00002146,-0.00004854,-0.00003891,0.00000531,-
 0.00008384,0.00018478,0.00012471,-0.00027004,0.00047602,-0.00010166,-0
 .00061612,0.00081032,0.00026607,-0.00008134,-0.00003847,-0.00000884,-0
 .00003920,0.00004358,0.00003328,-0.00001921,-0.00001489,0.00000486,-0.
 00000777,-0.00001838,0.00003522,-0.00000881,0.00000674,0.00000485,-0.0
 0000016,0.00000183,-0.00000014,-0.00000175,0.00000124,0.00000057,-0.00
 000109,0.00000051,0.00000034,-0.00000189,0.00000107,0.00000297,-0.0001
 6527,0.00023867,0.00033599,-0.00072885,-0.00057428,0.00016047,-0.00413
 075,0.00000670,-0.00428899,0.00035066,0.00034990,0.00181515,-0.0014537
 0,0.00108609,0.00204030,-0.13791901,0.01358880,0.22068050\\0.00000062,
 -0.00006186,0.00003430,-0.00008389,0.00002122,-0.00001957,0.00001397,-
 0.00001360,0.00000219,0.00004402,0.00002716,0.00004691,-0.00002426,0.0
 0001148,-0.00003930,0.00000965,-0.00002223,0.00002189,-0.00003225,0.00
 006718,-0.00001861,0.00005491,-0.00002531,0.00006318,-0.00002488,0.000
 02445,-0.00002770,-0.00001071,-0.00000070,0.00001131,0.00004983,-0.000
 00657,-0.00000467,0.00002692,-0.00003627,-0.00004208,-0.00001483,-0.00
 003221,0.00003958,-0.00004775,-0.00000677,-0.00000902,-0.00000273,0.00
 000704,0.00001408,0.00001863,-0.00001726,-0.00001986,-0.00000383,0.000
 04001,0.00001551,-0.00000515,-0.00000524,0.00001778,-0.00000557,-0.000
 01531,0.00000368,0.00003332,0.00001703,0.00001144,-0.00005273,0.000026
 07,-0.00002114,0.00000505,-0.00000496,0.00000300,0.00002381,0.00001568
 ,-0.00003406,0.00000689,0.00001317,-0.00001021,0.00000560,0.00000029,0
 .00000068,0.00000182,0.00000121,-0.00000832,0.00002458,-0.00002633,0.0
 0000169,0.00000469,-0.00000364,-0.00000013,0.00000299,-0.00000530,-0.0
 0000686,-0.00000794,-0.00000367,0.00000185,0.00000616,-0.00000096,-0.0
 0000797,-0.00000116,0.00000660,0.00000706,-0.00000066,-0.00000135,-0.0
 0000009,0.00000417,0.00000038,0.00000521,-0.00000005,-0.00000017,0.000
 00494,0.00000318,-0.00001862,-0.00001797,0.00001293,0.00000858,-0.0000
 3044,-0.00000870,0.00000044,0.00000725,-0.00000387,0.00000261,-0.00000
 228,0.00000398,0.00000079,0.00000528,-0.00001056,0.00000053,0.00000057
 ,-0.00000311,0.00001143,-0.00000248,0.00001335,-0.00001558,-0.00001895
 ,0.00000107,0.00000173,-0.00002274,-0.00001091,0.00000155,-0.00000192,
 -0.00000568,0.00001677,0.00000258,-0.00000733,0.00000157,-0.00000188,-
 0.00001047,-0.00002024,0.00000411,-0.00000246,0.00001111,0.00000487,-0
 .00001954,0.00000771,-0.00001265,-0.00000888,0.00001009,0.00000842,0.0
 0001652,-0.00001269,-0.00000241,0.00001701,0.00000359,0.00000301,0.000
 00201,-0.00000065,0.00000737,0.00000640,0.00000370,0.00001738,-0.00000
 935,0.00000335,0.00000083,0.00000507,-0.00000268,0.00000739,0.00000110
 ,-0.00000321,0.00000723,-0.00000100,-0.00000114,0.00000074\\\@


 Human beings, who are almost unique in having the
 ability to learn from the experience of others, are
 also remarkable for their apparent disinclination to do so.
                               -- Douglas Adams,
                                Last Chance to See
 Job cpu time:       0 days  0 hours 18 minutes 58.0 seconds.
 Elapsed time:       0 days  0 hours 21 minutes  0.5 seconds.
 File lengths (MBytes):  RWF=   1168 Int=      0 D2E=      0 Chk=     16 Scr=      1
 Normal termination of Gaussian 16 at Fri Feb 23 19:44:45 2024.
