 Entering Gaussian System, Link 0=g16
 Input=/Volumes/SSD-PMU3/b3lyp_6-31gd_freq/IWIBUYYSOXCCCX-OGZUYTBBSA-N_calculating/gaussianinput1.gjf
 Output=/Volumes/SSD-PMU3/b3lyp_6-31gd_freq/IWIBUYYSOXCCCX-OGZUYTBBSA-N_calculating/gaussianinput1.log
 Initial command:
 /Applications/g16/l1.exe "/Users/macmini_m1_2022/PycharmProjects/sphere_model/sphere_model_lib/Gau-72992.inp" -scrdir="/Users/macmini_m1_2022/PycharmProjects/sphere_model/sphere_model_lib/"
 Entering Link 1 = /Applications/g16/l1.exe PID=     72993.
  
 Copyright (c) 1988,1990,1992,1993,1995,1998,2003,2009,2016,
            Gaussian, Inc.  All Rights Reserved.
  
 This is part of the Gaussian(R) 16 program.  It is based on
 the Gaussian(R) 09 system (copyright 2009, Gaussian, Inc.),
 the Gaussian(R) 03 system (copyright 2003, Gaussian, Inc.),
 the Gaussian(R) 98 system (copyright 1998, Gaussian, Inc.),
 the Gaussian(R) 94 system (copyright 1995, Gaussian, Inc.),
 the Gaussian 92(TM) system (copyright 1992, Gaussian, Inc.),
 the Gaussian 90(TM) system (copyright 1990, Gaussian, Inc.),
 the Gaussian 88(TM) system (copyright 1988, Gaussian, Inc.),
 the Gaussian 86(TM) system (copyright 1986, Carnegie Mellon
 University), and the Gaussian 82(TM) system (copyright 1983,
 Carnegie Mellon University). Gaussian is a federally registered
 trademark of Gaussian, Inc.
  
 This software contains proprietary and confidential information,
 including trade secrets, belonging to Gaussian, Inc.
  
 This software is provided under written license and may be
 used, copied, transmitted, or stored only in accord with that
 written license.
  
 The following legend is applicable only to US Government
 contracts under FAR:
  
                    RESTRICTED RIGHTS LEGEND
  
 Use, reproduction and disclosure by the US Government is
 subject to restrictions as set forth in subparagraphs (a)
 and (c) of the Commercial Computer Software - Restricted
 Rights clause in FAR 52.227-19.
  
 Gaussian, Inc.
 340 Quinnipiac St., Bldg. 40, Wallingford CT 06492
  
  
 ---------------------------------------------------------------
 Warning -- This program may not be used in any manner that
 competes with the business of Gaussian, Inc. or will provide
 assistance to any competitor of Gaussian, Inc.  The licensee
 of this program is prohibited from giving any competitor of
 Gaussian, Inc. access to this program.  By using this program,
 the user acknowledges that Gaussian, Inc. is engaged in the
 business of creating and licensing software in the field of
 computational chemistry and represents and warrants to the
 licensee that it is not a competitor of Gaussian, Inc. and that
 it will not use this program in any manner prohibited above.
 ---------------------------------------------------------------
  

 Cite this work as:
 Gaussian 16, Revision A.03,
 M. J. Frisch, G. W. Trucks, H. B. Schlegel, G. E. Scuseria, 
 M. A. Robb, J. R. Cheeseman, G. Scalmani, V. Barone, 
 G. A. Petersson, H. Nakatsuji, X. Li, M. Caricato, A. V. Marenich, 
 J. Bloino, B. G. Janesko, R. Gomperts, B. Mennucci, H. P. Hratchian, 
 J. V. Ortiz, A. F. Izmaylov, J. L. Sonnenberg, D. Williams-Young, 
 F. Ding, F. Lipparini, F. Egidi, J. Goings, B. Peng, A. Petrone, 
 T. Henderson, D. Ranasinghe, V. G. Zakrzewski, J. Gao, N. Rega, 
 G. Zheng, W. Liang, M. Hada, M. Ehara, K. Toyota, R. Fukuda, 
 J. Hasegawa, M. Ishida, T. Nakajima, Y. Honda, O. Kitao, H. Nakai, 
 T. Vreven, K. Throssell, J. A. Montgomery, Jr., J. E. Peralta, 
 F. Ogliaro, M. J. Bearpark, J. J. Heyd, E. N. Brothers, K. N. Kudin, 
 V. N. Staroverov, T. A. Keith, R. Kobayashi, J. Normand, 
 K. Raghavachari, A. P. Rendell, J. C. Burant, S. S. Iyengar, 
 J. Tomasi, M. Cossi, J. M. Millam, M. Klene, C. Adamo, R. Cammi, 
 J. W. Ochterski, R. L. Martin, K. Morokuma, O. Farkas, 
 J. B. Foresman, and D. J. Fox, Gaussian, Inc., Wallingford CT, 2016.
 
 ******************************************
 Gaussian 16:  EM64M-G16RevA.03 25-Dec-2016
                23-Feb-2024 
 ******************************************
 %nprocshared=10
 Will use up to   10 processors via shared memory.
 %mem=12GB
 %chk= 1.chk
 ---------------------
 # freq b3lyp/6-31g(d)
 ---------------------
 1/10=4,30=1,38=1/1,3;
 2/12=2,17=6,18=5,40=1/2;
 3/5=1,6=6,7=1,11=2,25=1,30=1,71=2,74=-5,140=1/1,2,3;
 4//1;
 5/5=2,38=5,98=1/2;
 8/6=4,10=90,11=11/1;
 11/6=1,8=1,9=11,15=111,16=1/1,2,10;
 10/6=1/2;
 6/7=2,8=2,9=2,10=2,28=1/1;
 7/8=1,10=1,25=1/1,2,3,16;
 1/10=4,30=1/3;
 99//99;
 ---------
 good luck
 ---------
 Symbolic Z-matrix:
 Charge =  0 Multiplicity = 1
 C                     3.43932  -8.52539   0.70031 
 C                     2.65531  -7.38623   1.37947 
 C                     3.60601  -6.60336   2.2998 
 C                     1.9443   -6.51046   0.31987 
 C                     0.97574  -7.34441  -0.58485 
 C                    -0.17372  -6.39526  -1.02289 
 C                     0.30039  -5.01155  -0.55319 
 C                    -0.70605  -3.85339  -0.48097 
 C                    -1.48107  -3.67814  -1.79705 
 C                    -2.39691  -2.45046  -1.76553 
 C                    -1.60302  -1.17735  -1.44389 
 C                    -0.84659  -1.29062  -0.06397 
 C                    -1.82582  -1.32041   1.13757 
 C                     0.0644   -2.55945  -0.08619 
 C                     0.86428  -2.78206   1.21774 
 C                     1.80866  -4.00054   1.15027 
 C                     1.06245  -5.29746   0.77457 
 C                     0.11977  -5.72862   1.92064 
 C                    -2.44788   0.10313  -1.5666 
 C                    -1.60061   1.36827  -1.37046 
 C                    -0.77848   1.31061  -0.06397 
 C                     0.        0.        0. 
 O                     1.21863   0.        0. 
 H                     4.22117  -8.12222   0.04275 
 H                     3.93185  -9.15689   1.44934 
 H                     2.79485  -9.17063   0.09498 
 H                     1.88253  -7.85158   2.0095 
 H                     3.07751  -5.88972   2.93773 
 H                     4.15214  -7.28956   2.9586 
 H                     4.34923  -6.04396   1.71722 
 H                     2.73333  -6.0913   -0.32514 
 H                     1.50653  -7.75521  -1.44966 
 H                     0.58061  -8.20441  -0.03034 
 H                    -0.35247  -6.43144  -2.10253 
 H                    -1.11911  -6.67051  -0.53832 
 H                     1.0763   -4.69242  -1.27028 
 H                    -1.44475  -4.08153   0.3023 
 H                    -0.76567  -3.57056  -2.62706 
 H                    -2.06826  -4.5803   -2.00875 
 H                    -3.19716  -2.59463  -1.02581 
 H                    -2.89585  -2.32734  -2.73633 
 H                    -0.81033  -1.10318  -2.20757 
 H                    -2.58924  -0.54103   1.07906 
 H                    -2.34761  -2.27998   1.19689 
 H                    -1.29099  -1.18168   2.08271 
 H                     0.80498  -2.37841  -0.87998 
 H                     1.45559  -1.88846   1.43195 
 H                     0.17409  -2.91312   2.06069 
 H                     2.32421  -4.09551   2.11235 
 H                     2.58785  -3.80796   0.39828 
 H                     0.68851  -5.89428   2.84253 
 H                    -0.40892  -6.66052   1.69383 
 H                    -0.63885  -4.97322   2.14424 
 H                    -2.91416   0.12493  -2.56028 
 H                    -3.27603   0.08636  -0.84562 
 H                    -0.90524   1.46955  -2.21477 
 H                    -2.23199   2.26501  -1.37497 
 H                    -1.45266   1.38841   0.79847 
 H                    -0.05975   2.13293  -0.00702 
 

 GradGradGradGradGradGradGradGradGradGradGradGradGradGradGradGradGradGrad
 Berny optimization.
 Initialization pass.
 Trust Radius=3.00D-01 FncErr=1.00D-07 GrdErr=1.00D-07 EigMax=2.50D+02 EigMin=1.00D-04
 Number of steps in this run=      2 maximum allowed number of steps=      2.
 GradGradGradGradGradGradGradGradGradGradGradGradGradGradGradGradGradGrad

 Stoichiometry    C22H36O
 Framework group  C1[X(C22H36O)]
 Deg. of freedom   171
 Full point group                 C1      NOp   1
 Largest Abelian subgroup         C1      NOp   1
 Largest concise Abelian subgroup C1      NOp   1
                         Standard orientation:                         
 ---------------------------------------------------------------------
 Center     Atomic      Atomic             Coordinates (Angstroms)
 Number     Number       Type             X           Y           Z
 ---------------------------------------------------------------------
      1          6           0       -5.962764   -0.134519   -0.803126
      2          6           0       -4.756229   -0.583345    0.043301
      3          6           0       -4.679324   -2.118809    0.030975
      4          6           0       -3.463103    0.114139   -0.443111
      5          6           0       -3.579815    1.675111   -0.400189
      6          6           0       -2.152727    2.234870   -0.146975
      7          6           0       -1.249097    1.000695   -0.289493
      8          6           0        0.194601    1.058185    0.231950
      9          6           0        0.955867    2.279985   -0.307603
     10          6           0        2.428233    2.272539    0.115543
     11          6           0        3.123043    0.977446   -0.325456
     12          6           0        2.411336   -0.300638    0.265452
     13          6           0        2.578848   -0.403288    1.803274
     14          6           0        0.903323   -0.276710   -0.141560
     15          6           0        0.092105   -1.484832    0.379937
     16          6           0       -1.377677   -1.477691   -0.089952
     17          6           0       -2.103597   -0.168597    0.283238
     18          6           0       -2.291691   -0.073733    1.814132
     19          6           0        4.640956    0.995224   -0.072312
     20          6           0        5.330299   -0.252885   -0.641475
     21          6           0        4.652735   -1.553430   -0.156076
     22          6           0        3.149763   -1.478805   -0.407719
     23          8           0        2.608786   -2.254252   -1.176531
     24          1           0       -5.825770   -0.414726   -1.856185
     25          1           0       -6.883244   -0.615380   -0.451114
     26          1           0       -6.118641    0.948198   -0.763967
     27          1           0       -4.946029   -0.263050    1.078707
     28          1           0       -3.949548   -2.506997    0.746709
     29          1           0       -5.653260   -2.552802    0.288366
     30          1           0       -4.403801   -2.493228   -0.963302
     31          1           0       -3.317848   -0.185793   -1.493461
     32          1           0       -4.000603    2.060686   -1.334350
     33          1           0       -4.266744    1.985075    0.396838
     34          1           0       -1.888263    3.030017   -0.851741
     35          1           0       -2.070695    2.666154    0.858808
     36          1           0       -1.170907    0.799993   -1.371945
     37          1           0        0.166074    1.152166    1.328115
     38          1           0        0.898834    2.285642   -1.407146
     39          1           0        0.471186    3.203401    0.032797
     40          1           0        2.509095    2.393463    1.205134
     41          1           0        2.952105    3.130364   -0.327450
     42          1           0        2.989207    0.908631   -1.418356
     43          1           0        3.610114   -0.243855    2.126886
     44          1           0        1.960583    0.338383    2.317314
     45          1           0        2.272851   -1.389902    2.165963
     46          1           0        0.891999   -0.343519   -1.240081
     47          1           0        0.566981   -2.408432    0.040093
     48          1           0        0.114840   -1.503584    1.476859
     49          1           0       -1.882595   -2.353813    0.331822
     50          1           0       -1.404455   -1.600165   -1.182651
     51          1           0       -2.873888   -0.926083    2.182015
     52          1           0       -2.825292    0.835595    2.110436
     53          1           0       -1.340115   -0.079859    2.353210
     54          1           0        5.066446    1.893460   -0.538611
     55          1           0        4.849231    1.086200    1.002055
     56          1           0        5.279535   -0.222744   -1.738368
     57          1           0        6.394605   -0.265283   -0.377092
     58          1           0        4.846849   -1.691479    0.915207
     59          1           0        5.040369   -2.428175   -0.685777
 ---------------------------------------------------------------------
 Rotational constants (GHZ):           0.6138717           0.1397976           0.1245725
 Standard basis: 6-31G(d) (6D, 7F)
 There are   417 symmetry adapted cartesian basis functions of A   symmetry.
 There are   417 symmetry adapted basis functions of A   symmetry.
   417 basis functions,   788 primitive gaussians,   417 cartesian basis functions
    88 alpha electrons       88 beta electrons
       nuclear repulsion energy      2164.5295574662 Hartrees.
 NAtoms=   59 NActive=   59 NUniq=   59 SFac= 1.00D+00 NAtFMM=   60 NAOKFM=F Big=F
 Integral buffers will be    131072 words long.
 Raffenetti 2 integral format.
 Two-electron integral symmetry is turned on.
 One-electron integrals computed using PRISM.
 NBasis=   417 RedAO= T EigKep=  1.53D-03  NBF=   417
 NBsUse=   417 1.00D-06 EigRej= -1.00D+00 NBFU=   417
 ExpMin= 1.61D-01 ExpMax= 5.48D+03 ExpMxC= 8.25D+02 IAcc=3 IRadAn=         5 AccDes= 0.00D+00
 Harris functional with IExCor=  402 and IRadAn=       5 diagonalized for initial guess.
 HarFok:  IExCor=  402 AccDes= 0.00D+00 IRadAn=         5 IDoV= 1 UseB2=F ITyADJ=14
 ICtDFT=  3500011 ScaDFX=  1.000000  1.000000  1.000000  1.000000
 FoFCou: FMM=F IPFlag=           0 FMFlag=      100000 FMFlg1=           0
         NFxFlg=           0 DoJE=T BraDBF=F KetDBF=T FulRan=T
         wScrn=  0.000000 ICntrl=       500 IOpCl=  0 I1Cent=   200000004 NGrid=           0
         NMat0=    1 NMatS0=      1 NMatT0=    0 NMatD0=    1 NMtDS0=    0 NMtDT0=    0
 Petite list used in FoFCou.
 Requested convergence on RMS density matrix=1.00D-08 within 128 cycles.
 Requested convergence on MAX density matrix=1.00D-06.
 Requested convergence on             energy=1.00D-06.
 No special actions if energy rises.
 Integral accuracy reduced to 1.0D-05 until final iterations.
 Initial convergence to 1.0D-05 achieved.  Increase integral accuracy.
 SCF Done:  E(RB3LYP) =  -935.271785991     A.U. after   14 cycles
            NFock= 14  Conv=0.28D-08     -V/T= 2.0099
 DoSCS=F DFT=T ScalE2(SS,OS)=  1.000000  1.000000
 Range of M.O.s used for correlation:     1   417
 NBasis=   417 NAE=    88 NBE=    88 NFC=     0 NFV=     0
 NROrb=    417 NOA=    88 NOB=    88 NVA=   329 NVB=   329
 Symmetrizing basis deriv contribution to polar:
 IMax=3 JMax=2 DiffMx= 0.00D+00
 G2DrvN: will do    60 centers at a time, making    1 passes.
 Calling FoFCou, ICntrl=  3107 FMM=F I1Cent=   0 AccDes= 0.00D+00.
 End of G2Drv F.D. properties file   721 does not exist.
 End of G2Drv F.D. properties file   722 does not exist.
 End of G2Drv F.D. properties file   788 does not exist.
          IDoAtm=11111111111111111111111111111111111111111111111111
          IDoAtm=111111111
          Differentiating once with respect to electric field.
                with respect to dipole field.
          Differentiating once with respect to nuclear coordinates.
 CalDSu exits because no D1Ps are significant.
          There are   180 degrees of freedom in the 1st order CPHF.  IDoFFX=6 NUNeed=     3.
    177 vectors produced by pass  0 Test12= 2.90D-14 1.00D-09 XBig12= 1.47D+02 1.98D+00.
 AX will form   177 AO Fock derivatives at one time.
    177 vectors produced by pass  1 Test12= 2.90D-14 1.00D-09 XBig12= 1.07D+01 5.18D-01.
    177 vectors produced by pass  2 Test12= 2.90D-14 1.00D-09 XBig12= 8.84D-02 1.69D-02.
    177 vectors produced by pass  3 Test12= 2.90D-14 1.00D-09 XBig12= 2.02D-04 7.80D-04.
    177 vectors produced by pass  4 Test12= 2.90D-14 1.00D-09 XBig12= 1.64D-07 2.97D-05.
     73 vectors produced by pass  5 Test12= 2.90D-14 1.00D-09 XBig12= 1.23D-10 6.85D-07.
      3 vectors produced by pass  6 Test12= 2.90D-14 1.00D-09 XBig12= 8.52D-14 1.98D-08.
 InvSVY:  IOpt=1 It=  1 EMax= 3.55D-15
 Solved reduced A of dimension   961 with   180 vectors.
 Isotropic polarizability for W=    0.000000      220.74 Bohr**3.
 End of Minotr F.D. properties file   721 does not exist.
 End of Minotr F.D. properties file   722 does not exist.
 End of Minotr F.D. properties file   788 does not exist.

 **********************************************************************

            Population analysis using the SCF density.

 **********************************************************************

 Orbital symmetries:
       Occupied  (A) (A) (A) (A) (A) (A) (A) (A) (A) (A) (A) (A)
                 (A) (A) (A) (A) (A) (A) (A) (A) (A) (A) (A) (A)
                 (A) (A) (A) (A) (A) (A) (A) (A) (A) (A) (A) (A)
                 (A) (A) (A) (A) (A) (A) (A) (A) (A) (A) (A) (A)
                 (A) (A) (A) (A) (A) (A) (A) (A) (A) (A) (A) (A)
                 (A) (A) (A) (A) (A) (A) (A) (A) (A) (A) (A) (A)
                 (A) (A) (A) (A) (A) (A) (A) (A) (A) (A) (A) (A)
                 (A) (A) (A) (A)
       Virtual   (A) (A) (A) (A) (A) (A) (A) (A) (A) (A) (A) (A)
                 (A) (A) (A) (A) (A) (A) (A) (A) (A) (A) (A) (A)
                 (A) (A) (A) (A) (A) (A) (A) (A) (A) (A) (A) (A)
                 (A) (A) (A) (A) (A) (A) (A) (A) (A) (A) (A) (A)
                 (A) (A) (A) (A) (A) (A) (A) (A) (A) (A) (A) (A)
                 (A) (A) (A) (A) (A) (A) (A) (A) (A) (A) (A) (A)
                 (A) (A) (A) (A) (A) (A) (A) (A) (A) (A) (A) (A)
                 (A) (A) (A) (A) (A) (A) (A) (A) (A) (A) (A) (A)
                 (A) (A) (A) (A) (A) (A) (A) (A) (A) (A) (A) (A)
                 (A) (A) (A) (A) (A) (A) (A) (A) (A) (A) (A) (A)
                 (A) (A) (A) (A) (A) (A) (A) (A) (A) (A) (A) (A)
                 (A) (A) (A) (A) (A) (A) (A) (A) (A) (A) (A) (A)
                 (A) (A) (A) (A) (A) (A) (A) (A) (A) (A) (A) (A)
                 (A) (A) (A) (A) (A) (A) (A) (A) (A) (A) (A) (A)
                 (A) (A) (A) (A) (A) (A) (A) (A) (A) (A) (A) (A)
                 (A) (A) (A) (A) (A) (A) (A) (A) (A) (A) (A) (A)
                 (A) (A) (A) (A) (A) (A) (A) (A) (A) (A) (A) (A)
                 (A) (A) (A) (A) (A) (A) (A) (A) (A) (A) (A) (A)
                 (A) (A) (A) (A) (A) (A) (A) (A) (A) (A) (A) (A)
                 (A) (A) (A) (A) (A) (A) (A) (A) (A) (A) (A) (A)
                 (A) (A) (A) (A) (A) (A) (A) (A) (A) (A) (A) (A)
                 (A) (A) (A) (A) (A) (A) (A) (A) (A) (A) (A) (A)
                 (A) (A) (A) (A) (A) (A) (A) (A) (A) (A) (A) (A)
                 (A) (A) (A) (A) (A) (A) (A) (A) (A) (A) (A) (A)
                 (A) (A) (A) (A) (A) (A) (A) (A) (A) (A) (A) (A)
                 (A) (A) (A) (A) (A) (A) (A) (A) (A) (A) (A) (A)
                 (A) (A) (A) (A) (A) (A) (A) (A) (A) (A) (A) (A)
                 (A) (A) (A) (A) (A)
 The electronic state is 1-A.
 Alpha  occ. eigenvalues --  -19.13251 -10.26455 -10.19994 -10.19311 -10.19266
 Alpha  occ. eigenvalues --  -10.18746 -10.18604 -10.18150 -10.18143 -10.18054
 Alpha  occ. eigenvalues --  -10.18048 -10.17802 -10.17783 -10.17579 -10.17490
 Alpha  occ. eigenvalues --  -10.17199 -10.17084 -10.17038 -10.16627 -10.16586
 Alpha  occ. eigenvalues --  -10.16568 -10.16489 -10.16398  -1.03141  -0.85941
 Alpha  occ. eigenvalues --   -0.84239  -0.80563  -0.78151  -0.77711  -0.75557
 Alpha  occ. eigenvalues --   -0.74604  -0.71718  -0.70012  -0.67890  -0.67470
 Alpha  occ. eigenvalues --   -0.66874  -0.66263  -0.61869  -0.60821  -0.59252
 Alpha  occ. eigenvalues --   -0.57594  -0.55922  -0.55146  -0.53526  -0.51934
 Alpha  occ. eigenvalues --   -0.50876  -0.47548  -0.47223  -0.47141  -0.45543
 Alpha  occ. eigenvalues --   -0.45092  -0.44707  -0.43801  -0.43158  -0.42709
 Alpha  occ. eigenvalues --   -0.41819  -0.41678  -0.40539  -0.40243  -0.40063
 Alpha  occ. eigenvalues --   -0.39811  -0.39148  -0.38888  -0.38198  -0.38094
 Alpha  occ. eigenvalues --   -0.37826  -0.36909  -0.36648  -0.36355  -0.35741
 Alpha  occ. eigenvalues --   -0.34995  -0.34325  -0.34166  -0.33603  -0.33077
 Alpha  occ. eigenvalues --   -0.32753  -0.32428  -0.32176  -0.31643  -0.30875
 Alpha  occ. eigenvalues --   -0.30774  -0.29892  -0.29813  -0.29710  -0.28888
 Alpha  occ. eigenvalues --   -0.27995  -0.26075  -0.22828
 Alpha virt. eigenvalues --   -0.00985   0.07348   0.07964   0.08354   0.10000
 Alpha virt. eigenvalues --    0.10466   0.10885   0.11354   0.12105   0.12363
 Alpha virt. eigenvalues --    0.12910   0.13538   0.14197   0.14506   0.14760
 Alpha virt. eigenvalues --    0.15377   0.15661   0.15967   0.16269   0.16392
 Alpha virt. eigenvalues --    0.16480   0.17092   0.17459   0.17661   0.18099
 Alpha virt. eigenvalues --    0.18533   0.18741   0.19081   0.19873   0.20149
 Alpha virt. eigenvalues --    0.20385   0.20821   0.21049   0.21728   0.21944
 Alpha virt. eigenvalues --    0.22276   0.22680   0.22854   0.23396   0.24094
 Alpha virt. eigenvalues --    0.24438   0.24584   0.25037   0.25061   0.25721
 Alpha virt. eigenvalues --    0.25966   0.26053   0.27128   0.27762   0.27812
 Alpha virt. eigenvalues --    0.28402   0.29158   0.30079   0.30383   0.30743
 Alpha virt. eigenvalues --    0.31571   0.32310   0.33278   0.34170   0.34882
 Alpha virt. eigenvalues --    0.37122   0.38318   0.40452   0.48772   0.49561
 Alpha virt. eigenvalues --    0.50729   0.51139   0.51589   0.52309   0.52866
 Alpha virt. eigenvalues --    0.53257   0.53635   0.55035   0.55498   0.56409
 Alpha virt. eigenvalues --    0.56726   0.57832   0.58604   0.59506   0.60705
 Alpha virt. eigenvalues --    0.61498   0.62002   0.62390   0.63709   0.64375
 Alpha virt. eigenvalues --    0.64954   0.65706   0.65965   0.66453   0.67208
 Alpha virt. eigenvalues --    0.68217   0.68410   0.69198   0.69576   0.70797
 Alpha virt. eigenvalues --    0.71384   0.71848   0.72925   0.73733   0.73912
 Alpha virt. eigenvalues --    0.75911   0.76853   0.77622   0.78411   0.78683
 Alpha virt. eigenvalues --    0.80576   0.81246   0.82059   0.82283   0.82864
 Alpha virt. eigenvalues --    0.83506   0.83713   0.85201   0.85529   0.86039
 Alpha virt. eigenvalues --    0.86267   0.86837   0.87108   0.87214   0.87739
 Alpha virt. eigenvalues --    0.88093   0.88615   0.89194   0.89683   0.89897
 Alpha virt. eigenvalues --    0.90339   0.90690   0.90876   0.91345   0.91824
 Alpha virt. eigenvalues --    0.92790   0.93163   0.93469   0.93707   0.93870
 Alpha virt. eigenvalues --    0.94670   0.95064   0.95653   0.95792   0.96455
 Alpha virt. eigenvalues --    0.96942   0.97135   0.97572   0.98191   0.98754
 Alpha virt. eigenvalues --    0.99096   1.00152   1.00427   1.01675   1.02026
 Alpha virt. eigenvalues --    1.02537   1.03313   1.04154   1.04690   1.06040
 Alpha virt. eigenvalues --    1.06856   1.07917   1.09301   1.10550   1.11541
 Alpha virt. eigenvalues --    1.12808   1.16226   1.17344   1.18981   1.21353
 Alpha virt. eigenvalues --    1.22062   1.22872   1.24750   1.25970   1.26640
 Alpha virt. eigenvalues --    1.30819   1.32648   1.35113   1.35385   1.36236
 Alpha virt. eigenvalues --    1.37760   1.40747   1.42009   1.45681   1.46787
 Alpha virt. eigenvalues --    1.50497   1.51344   1.52416   1.53613   1.55390
 Alpha virt. eigenvalues --    1.55924   1.56935   1.60036   1.61365   1.64122
 Alpha virt. eigenvalues --    1.64900   1.66757   1.68205   1.69523   1.69915
 Alpha virt. eigenvalues --    1.71843   1.72063   1.73581   1.74899   1.75615
 Alpha virt. eigenvalues --    1.75954   1.76759   1.77966   1.78702   1.80413
 Alpha virt. eigenvalues --    1.80581   1.81654   1.83408   1.83629   1.86088
 Alpha virt. eigenvalues --    1.86459   1.87646   1.88428   1.89869   1.90689
 Alpha virt. eigenvalues --    1.91540   1.92255   1.93399   1.93630   1.94589
 Alpha virt. eigenvalues --    1.94756   1.95566   1.95838   1.97218   1.98124
 Alpha virt. eigenvalues --    1.98812   2.00096   2.00308   2.00978   2.02110
 Alpha virt. eigenvalues --    2.02243   2.02859   2.03680   2.04888   2.05926
 Alpha virt. eigenvalues --    2.06235   2.06726   2.07542   2.09439   2.10415
 Alpha virt. eigenvalues --    2.10922   2.11687   2.12124   2.13961   2.14478
 Alpha virt. eigenvalues --    2.15836   2.17592   2.18254   2.18790   2.19829
 Alpha virt. eigenvalues --    2.19902   2.21990   2.23853   2.24630   2.26701
 Alpha virt. eigenvalues --    2.27512   2.29231   2.29667   2.31181   2.31386
 Alpha virt. eigenvalues --    2.33632   2.34131   2.35779   2.37348   2.37596
 Alpha virt. eigenvalues --    2.38919   2.40748   2.41924   2.42233   2.43595
 Alpha virt. eigenvalues --    2.44616   2.45575   2.46093   2.47510   2.49565
 Alpha virt. eigenvalues --    2.50980   2.53227   2.54510   2.55097   2.57820
 Alpha virt. eigenvalues --    2.58337   2.59050   2.60511   2.61397   2.62018
 Alpha virt. eigenvalues --    2.64076   2.65407   2.66960   2.68044   2.72450
 Alpha virt. eigenvalues --    2.73307   2.75626   2.76215   2.77334   2.78924
 Alpha virt. eigenvalues --    2.82938   2.83701   2.85752   2.86228   2.89807
 Alpha virt. eigenvalues --    2.91600   2.91885   2.96667   2.99976   3.04235
 Alpha virt. eigenvalues --    3.07648   4.07817   4.12028   4.15811   4.22699
 Alpha virt. eigenvalues --    4.23410   4.25190   4.27360   4.29044   4.29854
 Alpha virt. eigenvalues --    4.31789   4.36193   4.40201   4.45151   4.47796
 Alpha virt. eigenvalues --    4.52456   4.57199   4.61218   4.64229   4.67047
 Alpha virt. eigenvalues --    4.71653   4.77192   4.82792   4.84215
          Condensed to atoms (all electrons):
 Mulliken charges:
               1
     1  C   -0.448251
     2  C   -0.079853
     3  C   -0.449841
     4  C   -0.072850
     5  C   -0.295240
     6  C   -0.290911
     7  C   -0.091143
     8  C   -0.098273
     9  C   -0.271279
    10  C   -0.268422
    11  C   -0.103534
    12  C    0.012139
    13  C   -0.494043
    14  C   -0.091361
    15  C   -0.294727
    16  C   -0.281927
    17  C    0.093629
    18  C   -0.481144
    19  C   -0.271189
    20  C   -0.275370
    21  C   -0.340970
    22  C    0.440385
    23  O   -0.455714
    24  H    0.137030
    25  H    0.137077
    26  H    0.146227
    27  H    0.118556
    28  H    0.148185
    29  H    0.135552
    30  H    0.139653
    31  H    0.108327
    32  H    0.137040
    33  H    0.132500
    34  H    0.132328
    35  H    0.130112
    36  H    0.111327
    37  H    0.112170
    38  H    0.125166
    39  H    0.134759
    40  H    0.129915
    41  H    0.129921
    42  H    0.126426
    43  H    0.148357
    44  H    0.157705
    45  H    0.159567
    46  H    0.124645
    47  H    0.161669
    48  H    0.124911
    49  H    0.128321
    50  H    0.127137
    51  H    0.145133
    52  H    0.142891
    53  H    0.143859
    54  H    0.136538
    55  H    0.134705
    56  H    0.146514
    57  H    0.141769
    58  H    0.153060
    59  H    0.160841
 Sum of Mulliken charges =  -0.00000
 Mulliken charges with hydrogens summed into heavy atoms:
               1
     1  C   -0.027919
     2  C    0.038703
     3  C   -0.026451
     4  C    0.035477
     5  C   -0.025700
     6  C   -0.028471
     7  C    0.020183
     8  C    0.013897
     9  C   -0.011354
    10  C   -0.008587
    11  C    0.022892
    12  C    0.012139
    13  C   -0.028415
    14  C    0.033283
    15  C   -0.008146
    16  C   -0.026469
    17  C    0.093629
    18  C   -0.049261
    19  C    0.000054
    20  C    0.012913
    21  C   -0.027069
    22  C    0.440385
    23  O   -0.455714
 APT charges:
               1
     1  C    0.062179
     2  C    0.133246
     3  C    0.047708
     4  C    0.075853
     5  C    0.073117
     6  C    0.072863
     7  C    0.076489
     8  C    0.056366
     9  C    0.097409
    10  C    0.109364
    11  C    0.071857
    12  C   -0.061952
    13  C    0.012255
    14  C    0.058196
    15  C    0.055475
    16  C    0.104918
    17  C    0.050711
    18  C    0.021938
    19  C    0.087276
    20  C    0.148377
    21  C   -0.072128
    22  C    0.689029
    23  O   -0.632151
    24  H   -0.024560
    25  H   -0.048546
    26  H   -0.015274
    27  H   -0.067659
    28  H   -0.016302
    29  H   -0.048231
    30  H   -0.015218
    31  H   -0.065698
    32  H   -0.050491
    33  H   -0.049105
    34  H   -0.048618
    35  H   -0.044230
    36  H   -0.059847
    37  H   -0.048621
    38  H   -0.042629
    39  H   -0.052382
    40  H   -0.040350
    41  H   -0.072161
    42  H   -0.053205
    43  H   -0.016138
    44  H   -0.000037
    45  H    0.000804
    46  H   -0.034457
    47  H   -0.006337
    48  H   -0.034571
    49  H   -0.059005
    50  H   -0.042054
    51  H   -0.021324
    52  H   -0.014088
    53  H   -0.018936
    54  H   -0.053375
    55  H   -0.038768
    56  H   -0.037773
    57  H   -0.062408
    58  H   -0.006396
    59  H   -0.030405
 Sum of APT charges =   0.00000
 APT charges with hydrogens summed into heavy atoms:
               1
     1  C   -0.026200
     2  C    0.065587
     3  C   -0.032043
     4  C    0.010155
     5  C   -0.026480
     6  C   -0.019985
     7  C    0.016642
     8  C    0.007745
     9  C    0.002397
    10  C   -0.003147
    11  C    0.018652
    12  C   -0.061952
    13  C   -0.003116
    14  C    0.023740
    15  C    0.014566
    16  C    0.003858
    17  C    0.050711
    18  C   -0.032410
    19  C   -0.004867
    20  C    0.048197
    21  C   -0.108929
    22  C    0.689029
    23  O   -0.632151
 Electronic spatial extent (au):  <R**2>=           9107.4006
 Charge=             -0.0000 electrons
 Dipole moment (field-independent basis, Debye):
    X=              1.3024    Y=              1.9207    Z=              1.4530  Tot=              2.7380
 Quadrupole moment (field-independent basis, Debye-Ang):
   XX=           -136.4631   YY=           -150.1765   ZZ=           -145.1135
   XY=              3.4603   XZ=              3.0024   YZ=             -4.5613
 Traceless Quadrupole moment (field-independent basis, Debye-Ang):
   XX=              7.4546   YY=             -6.2588   ZZ=             -1.1958
   XY=              3.4603   XZ=              3.0024   YZ=             -4.5613
 Octapole moment (field-independent basis, Debye-Ang**2):
  XXX=             74.7652  YYY=              6.0560  ZZZ=             -5.1788  XYY=             -4.1095
  XXY=             -1.2638  XXZ=              8.6967  XZZ=              2.7891  YZZ=              3.1959
  YYZ=              9.2604  XYZ=            -11.4806
 Hexadecapole moment (field-independent basis, Debye-Ang**3):
 XXXX=          -9607.0479 YYYY=          -1991.6805 ZZZZ=           -759.7651 XXXY=            -41.5897
 XXXZ=            -39.7026 YYYX=              3.6163 YYYZ=            -19.7279 ZZZX=             -1.6510
 ZZZY=              4.4512 XXYY=          -1980.9678 XXZZ=          -1762.1483 YYZZ=           -457.7260
 XXYZ=            -27.3061 YYXZ=             15.7917 ZZXY=              4.1565
 N-N= 2.164529557466D+03 E-N=-6.494659861304D+03  KE= 9.261097176589D+02
  Exact polarizability: 272.609   3.270 209.784   1.717  -0.350 179.819
 Approx polarizability: 315.736   5.793 311.102   3.902   8.626 311.834
 Calling FoFJK, ICntrl=    100127 FMM=F ISym2X=0 I1Cent= 0 IOpClX= 0 NMat=1 NMatS=1 NMatT=0.
 Full mass-weighted force constant matrix:
 Low frequencies ---   -5.6407   -1.3175   -0.0009   -0.0008   -0.0007    4.2144
 Low frequencies ---   42.3812   56.0515   81.4732
 Diagonal vibrational polarizability:
       11.9117407       7.9586568      11.4255673
 Harmonic frequencies (cm**-1), IR intensities (KM/Mole), Raman scattering
 activities (A**4/AMU), depolarization ratios for plane and unpolarized
 incident light, reduced masses (AMU), force constants (mDyne/A),
 and normal coordinates:
                      1                      2                      3
                      A                      A                      A
 Frequencies --     42.3746                56.0511                81.4728
 Red. masses --      3.6636                 3.1215                 3.7601
 Frc consts  --      0.0039                 0.0058                 0.0147
 IR Inten    --      0.2805                 0.3586                 0.7059
  Atom  AN      X      Y      Z        X      Y      Z        X      Y      Z
     1   6    -0.07   0.05   0.20     0.02  -0.08  -0.06    -0.06   0.14   0.13
     2   6    -0.01   0.02   0.10    -0.00   0.04   0.04    -0.02   0.05   0.02
     3   6    -0.03   0.02   0.07    -0.01   0.04   0.26    -0.12   0.04  -0.03
     4   6    -0.03   0.01   0.02     0.00  -0.02  -0.03    -0.01  -0.03  -0.04
     5   6    -0.02   0.01   0.04     0.02  -0.01  -0.14     0.03  -0.02  -0.12
     6   6    -0.00  -0.00  -0.03     0.00  -0.00  -0.09     0.03  -0.04  -0.10
     7   6    -0.01  -0.01  -0.07     0.01  -0.01  -0.03     0.01  -0.05  -0.04
     8   6    -0.00  -0.01  -0.10    -0.00  -0.00   0.00    -0.00  -0.05   0.01
     9   6     0.00  -0.02  -0.10     0.01   0.01   0.05    -0.02  -0.01   0.07
    10   6    -0.02  -0.00  -0.04    -0.00  -0.01   0.10    -0.03  -0.01   0.11
    11   6     0.02  -0.00   0.02     0.01   0.01   0.06    -0.02   0.03   0.05
    12   6    -0.01  -0.00  -0.02    -0.00  -0.02  -0.00     0.03  -0.02   0.01
    13   6    -0.09  -0.01  -0.01    -0.00  -0.10  -0.01     0.03  -0.05   0.01
    14   6     0.00  -0.01  -0.09    -0.00  -0.00  -0.00     0.02  -0.04   0.01
    15   6    -0.00  -0.03  -0.15    -0.00   0.00   0.00     0.01  -0.04   0.01
    16   6    -0.01  -0.00  -0.13    -0.01  -0.00   0.01     0.00  -0.04   0.00
    17   6     0.01  -0.01  -0.06    -0.00   0.01  -0.01    -0.01  -0.03  -0.03
    18   6     0.08  -0.05  -0.05    -0.00   0.05  -0.01    -0.02  -0.00  -0.03
    19   6    -0.00   0.01   0.12     0.00  -0.01   0.09    -0.01   0.07  -0.00
    20   6     0.05   0.01   0.17     0.00   0.02   0.03     0.00   0.13  -0.11
    21   6     0.01   0.00   0.12    -0.01  -0.01  -0.07     0.08   0.09  -0.10
    22   6     0.03   0.01   0.01    -0.01   0.02  -0.07     0.06  -0.01   0.02
    23   8     0.09   0.02  -0.04    -0.01   0.08  -0.13     0.04  -0.12   0.15
    24   1    -0.15   0.06   0.18     0.04  -0.25  -0.01    -0.16   0.18   0.11
    25   1    -0.04   0.05   0.26     0.00  -0.02  -0.00    -0.06   0.17   0.18
    26   1    -0.05   0.05   0.23     0.03  -0.07  -0.23    -0.01   0.15   0.19
    27   1     0.07   0.00   0.12    -0.03   0.18  -0.01     0.07   0.03   0.04
    28   1     0.02  -0.01   0.00    -0.02   0.14   0.32    -0.05  -0.02  -0.13
    29   1    -0.01   0.02   0.14    -0.01   0.08   0.31    -0.11   0.09   0.08
    30   1    -0.11   0.03   0.04     0.00  -0.11   0.31    -0.25   0.06  -0.07
    31   1    -0.10   0.01   0.01    -0.01  -0.10  -0.00    -0.03  -0.09  -0.03
    32   1    -0.06   0.02   0.06     0.08  -0.07  -0.19     0.07  -0.06  -0.15
    33   1     0.03   0.01   0.08    -0.03   0.05  -0.20     0.02   0.04  -0.15
    34   1    -0.03  -0.00  -0.04     0.03  -0.02  -0.10     0.06  -0.07  -0.12
    35   1     0.05  -0.01  -0.03    -0.04   0.02  -0.10     0.01  -0.01  -0.12
    36   1    -0.04   0.01  -0.08     0.03  -0.04  -0.02     0.05  -0.09  -0.03
    37   1     0.00  -0.01  -0.10    -0.03  -0.02   0.01    -0.04  -0.08   0.01
    38   1     0.04  -0.04  -0.10     0.05   0.04   0.05     0.01   0.03   0.07
    39   1    -0.02  -0.01  -0.13     0.00  -0.00   0.06    -0.05  -0.04   0.10
    40   1    -0.06   0.02  -0.04    -0.04  -0.06   0.11    -0.06  -0.06   0.11
    41   1    -0.00  -0.00  -0.03     0.01   0.01   0.16    -0.04   0.02   0.16
    42   1     0.09  -0.01   0.01     0.02   0.06   0.06    -0.04   0.07   0.05
    43   1    -0.11   0.01   0.04    -0.01  -0.10   0.00     0.03  -0.05   0.01
    44   1    -0.13  -0.02  -0.04    -0.02  -0.13   0.03     0.02  -0.07   0.03
    45   1    -0.09  -0.01  -0.03     0.01  -0.12  -0.06     0.04  -0.07  -0.02
    46   1     0.05   0.02  -0.10    -0.00   0.00   0.00     0.02  -0.04   0.01
    47   1    -0.01  -0.01  -0.21    -0.00  -0.00   0.00     0.00  -0.04   0.02
    48   1     0.01  -0.09  -0.16     0.00   0.00   0.00     0.00  -0.03   0.01
    49   1    -0.01  -0.02  -0.16    -0.01   0.01   0.03     0.00  -0.03   0.02
    50   1    -0.04   0.05  -0.13    -0.01  -0.02   0.02     0.00  -0.07   0.01
    51   1     0.10  -0.05  -0.04    -0.03   0.08   0.01    -0.05   0.02  -0.03
    52   1     0.10  -0.05  -0.00     0.02   0.08  -0.04     0.01   0.02  -0.05
    53   1     0.11  -0.06  -0.09    -0.01   0.04  -0.01    -0.03  -0.03  -0.02
    54   1     0.03   0.01   0.14     0.01   0.01   0.14    -0.06   0.12   0.04
    55   1    -0.07   0.02   0.13    -0.01  -0.07   0.09     0.03   0.00  -0.00
    56   1     0.13   0.01   0.17     0.03   0.09   0.03    -0.08   0.18  -0.11
    57   1     0.03   0.01   0.26    -0.00  -0.00   0.05     0.02   0.16  -0.19
    58   1    -0.06  -0.00   0.13    -0.02  -0.08  -0.07     0.16   0.08  -0.12
    59   1     0.05   0.01   0.14    -0.01   0.03  -0.12     0.09   0.12  -0.14
                      4                      5                      6
                      A                      A                      A
 Frequencies --     85.8459               108.7351               114.4164
 Red. masses --      3.3543                 3.9172                 2.9143
 Frc consts  --      0.0146                 0.0273                 0.0225
 IR Inten    --      0.7502                 0.5464                 0.2021
  Atom  AN      X      Y      Z        X      Y      Z        X      Y      Z
     1   6     0.03  -0.06  -0.14    -0.01  -0.14   0.11     0.03  -0.00  -0.11
     2   6    -0.02   0.05  -0.01     0.07  -0.08   0.02    -0.03   0.01  -0.02
     3   6    -0.00   0.05   0.18     0.19  -0.07  -0.04    -0.00   0.01  -0.02
     4   6    -0.01   0.04  -0.00     0.00   0.03  -0.01    -0.01   0.03   0.06
     5   6     0.00   0.04   0.05    -0.04   0.02   0.02    -0.01   0.03   0.13
     6   6    -0.00   0.02   0.13    -0.03   0.06  -0.08     0.02   0.01  -0.01
     7   6    -0.01   0.03   0.03     0.00   0.07  -0.06    -0.01  -0.02  -0.00
     8   6    -0.00  -0.01   0.01    -0.00   0.07  -0.03     0.00  -0.02  -0.06
     9   6    -0.01   0.01   0.04     0.04   0.06   0.03    -0.01  -0.04  -0.12
    10   6    -0.00   0.00   0.00     0.03   0.01   0.10    -0.04  -0.00  -0.05
    11   6    -0.01   0.00  -0.02     0.01   0.01   0.06     0.01   0.00   0.02
    12   6    -0.00   0.00  -0.02    -0.02   0.01  -0.00     0.00  -0.03  -0.04
    13   6    -0.03   0.03  -0.01    -0.04  -0.05  -0.00    -0.00  -0.09  -0.04
    14   6     0.00   0.00  -0.05    -0.01   0.05  -0.02    -0.01  -0.03  -0.03
    15   6    -0.01  -0.03  -0.13    -0.02   0.06  -0.04    -0.01  -0.01   0.02
    16   6    -0.01   0.02  -0.13     0.01   0.07  -0.06    -0.04  -0.01   0.08
    17   6    -0.00  -0.01  -0.03     0.02   0.06  -0.05    -0.01   0.02   0.06
    18   6     0.02  -0.10  -0.02     0.05   0.08  -0.05     0.01   0.07   0.06
    19   6    -0.01   0.02  -0.05     0.01  -0.04   0.06    -0.02   0.04   0.13
    20   6    -0.01   0.03  -0.06    -0.04  -0.02  -0.04     0.05   0.11   0.07
    21   6     0.03   0.04   0.02    -0.04  -0.03  -0.09     0.05   0.05  -0.11
    22   6     0.02  -0.03   0.05    -0.06  -0.03   0.01     0.03  -0.01  -0.05
    23   8     0.03  -0.13   0.16    -0.12  -0.11   0.14     0.01  -0.09   0.04
    24   1     0.10  -0.21  -0.09    -0.06  -0.12   0.10     0.14   0.02  -0.11
    25   1     0.01  -0.00  -0.14     0.04  -0.21   0.17     0.01  -0.03  -0.21
    26   1     0.04  -0.05  -0.31    -0.08  -0.15   0.14     0.01  -0.01  -0.10
    27   1    -0.09   0.16  -0.05     0.10  -0.13   0.05    -0.11   0.00  -0.03
    28   1    -0.03   0.14   0.26     0.18  -0.05  -0.01    -0.06   0.02   0.05
    29   1    -0.01   0.08   0.18     0.21  -0.16  -0.10    -0.02  -0.01  -0.11
    30   1     0.05  -0.06   0.24     0.27  -0.01  -0.04     0.10   0.02   0.01
    31   1    -0.03   0.06  -0.01    -0.01   0.06  -0.03     0.01   0.08   0.05
    32   1     0.06   0.08   0.04    -0.13   0.03   0.06    -0.12   0.07   0.20
    33   1    -0.04   0.02   0.02     0.01  -0.02   0.08     0.08  -0.01   0.23
    34   1     0.01   0.09   0.21    -0.08   0.03  -0.12    -0.02  -0.04  -0.07
    35   1    -0.02  -0.08   0.17     0.00   0.11  -0.10     0.11   0.07  -0.04
    36   1    -0.03   0.10   0.01     0.02   0.07  -0.06    -0.06  -0.05  -0.00
    37   1     0.01  -0.05   0.01    -0.03   0.05  -0.03     0.04   0.02  -0.06
    38   1    -0.04   0.05   0.04     0.10   0.09   0.02     0.03  -0.12  -0.13
    39   1    -0.00  -0.00   0.09     0.05   0.06   0.03    -0.04  -0.03  -0.21
    40   1     0.03  -0.01  -0.00    -0.02  -0.05   0.11    -0.11   0.03  -0.05
    41   1    -0.01   0.00  -0.01     0.07   0.02   0.16    -0.03  -0.01  -0.04
    42   1    -0.03   0.01  -0.02     0.02   0.06   0.05     0.09  -0.00   0.00
    43   1    -0.03   0.02  -0.00    -0.04  -0.11   0.01     0.00  -0.17  -0.03
    44   1    -0.03   0.04  -0.03    -0.02  -0.05   0.02     0.04  -0.08  -0.02
    45   1    -0.05   0.04  -0.00    -0.09  -0.05  -0.04    -0.06  -0.09  -0.08
    46   1     0.02   0.06  -0.05     0.00   0.06  -0.02    -0.02  -0.07  -0.03
    47   1    -0.02  -0.00  -0.18    -0.01   0.06  -0.02    -0.04  -0.03   0.03
    48   1    -0.02  -0.10  -0.13    -0.04   0.06  -0.04     0.02   0.02   0.02
    49   1    -0.02  -0.01  -0.21    -0.00   0.06  -0.09    -0.03   0.02   0.15
    50   1    -0.01   0.11  -0.14     0.02   0.08  -0.07    -0.09  -0.05   0.09
    51   1     0.03  -0.13  -0.06     0.07   0.07  -0.02    -0.04   0.12   0.09
    52   1     0.01  -0.13   0.04     0.03   0.07  -0.05     0.08   0.11   0.04
    53   1     0.03  -0.12  -0.04     0.06   0.10  -0.07     0.02   0.02   0.04
    54   1    -0.03   0.03  -0.07     0.04  -0.02   0.13    -0.01   0.09   0.22
    55   1     0.01   0.03  -0.06     0.02  -0.13   0.07    -0.09  -0.03   0.15
    56   1    -0.06  -0.00  -0.05    -0.08   0.05  -0.04     0.14   0.22   0.07
    57   1     0.00   0.05  -0.10    -0.03  -0.06  -0.09     0.03   0.10   0.15
    58   1     0.06   0.09   0.02    -0.00  -0.09  -0.10     0.05  -0.10  -0.13
    59   1     0.04   0.02   0.06    -0.08  -0.02  -0.14     0.06   0.11  -0.21
                      7                      8                      9
                      A                      A                      A
 Frequencies --    138.2365               170.0697               184.1224
 Red. masses --      2.0202                 2.1836                 2.3016
 Frc consts  --      0.0227                 0.0372                 0.0460
 IR Inten    --      0.7177                 0.8123                 0.5225
  Atom  AN      X      Y      Z        X      Y      Z        X      Y      Z
     1   6    -0.01   0.01   0.04     0.02   0.03  -0.04     0.02   0.02  -0.03
     2   6     0.01   0.00  -0.00    -0.01   0.01  -0.00    -0.02  -0.02   0.00
     3   6    -0.02  -0.00   0.01    -0.05   0.01   0.03    -0.08  -0.02   0.00
     4   6     0.01  -0.03  -0.04     0.00  -0.00   0.01     0.01  -0.04   0.03
     5   6     0.01  -0.02  -0.09     0.00  -0.01   0.10    -0.01  -0.05  -0.01
     6   6    -0.03  -0.01   0.11     0.03  -0.02  -0.09    -0.02  -0.01  -0.07
     7   6    -0.00   0.02   0.04     0.02  -0.03  -0.04     0.00  -0.01   0.01
     8   6     0.01   0.03   0.01    -0.00  -0.01   0.00    -0.00   0.01   0.04
     9   6     0.01  -0.00  -0.07     0.00  -0.02  -0.04    -0.01   0.06   0.13
    10   6     0.01   0.02  -0.09    -0.01   0.01  -0.01     0.03   0.03   0.00
    11   6     0.03   0.00  -0.00     0.00  -0.00   0.05     0.02   0.03  -0.06
    12   6     0.01   0.02   0.01     0.00   0.01   0.09     0.01   0.04  -0.07
    13   6     0.04   0.01  -0.00     0.01   0.07   0.09     0.03   0.08  -0.08
    14   6     0.01   0.02   0.03     0.01  -0.01   0.06     0.00   0.05  -0.04
    15   6     0.01   0.03   0.04     0.00  -0.03  -0.00     0.04   0.01  -0.07
    16   6     0.03   0.01  -0.03     0.02  -0.03  -0.06     0.01  -0.01   0.02
    17   6     0.00  -0.02  -0.02     0.02  -0.03  -0.04     0.01  -0.01   0.04
    18   6    -0.04  -0.07  -0.02     0.07  -0.06  -0.03     0.03  -0.01   0.04
    19   6     0.01  -0.01   0.08     0.00  -0.02   0.03     0.01   0.00   0.00
    20   6     0.03   0.02   0.06    -0.04  -0.00  -0.07     0.04  -0.03   0.11
    21   6    -0.01  -0.02  -0.10    -0.02  -0.01  -0.05    -0.04  -0.04  -0.01
    22   6    -0.03   0.00  -0.02    -0.03   0.02   0.04    -0.03  -0.00  -0.04
    23   8    -0.08  -0.01   0.04    -0.07   0.09   0.00    -0.06  -0.06   0.04
    24   1    -0.07  -0.02   0.04     0.06   0.05  -0.04     0.09   0.10  -0.04
    25   1    -0.01   0.05   0.09     0.01   0.02  -0.09     0.01  -0.02  -0.12
    26   1     0.02   0.02   0.01     0.02   0.02  -0.02    -0.00   0.01   0.04
    27   1     0.05   0.01   0.00    -0.02   0.03  -0.01    -0.03  -0.02   0.00
    28   1     0.02  -0.01  -0.04    -0.03   0.01   0.02    -0.03  -0.05  -0.07
    29   1    -0.02   0.02   0.08    -0.05   0.04   0.08    -0.07   0.02   0.09
    30   1    -0.10  -0.01  -0.01    -0.09  -0.03   0.04    -0.19  -0.04  -0.02
    31   1     0.01  -0.06  -0.03    -0.02   0.05  -0.01     0.02  -0.06   0.04
    32   1     0.16  -0.04  -0.17    -0.15   0.04   0.19    -0.06  -0.07   0.00
    33   1    -0.11   0.02  -0.21     0.13  -0.07   0.23     0.02  -0.04   0.02
    34   1     0.01   0.09   0.23    -0.01  -0.10  -0.20    -0.03  -0.07  -0.15
    35   1    -0.13  -0.14   0.17     0.13   0.09  -0.14    -0.01   0.08  -0.12
    36   1    -0.01   0.07   0.03     0.05  -0.06  -0.03     0.03  -0.05   0.02
    37   1     0.04   0.07   0.01    -0.04   0.04  -0.00    -0.02  -0.06   0.05
    38   1    -0.01  -0.08  -0.07     0.03  -0.08  -0.04    -0.10   0.19   0.13
    39   1     0.02   0.02  -0.13    -0.02  -0.01  -0.10     0.03   0.03   0.27
    40   1     0.02   0.10  -0.09    -0.02   0.07  -0.01     0.13   0.00  -0.00
    41   1     0.01  -0.00  -0.15    -0.01  -0.00  -0.04    -0.00   0.04  -0.02
    42   1     0.09  -0.03  -0.01    -0.00  -0.03   0.06     0.04   0.06  -0.06
    43   1     0.09  -0.23  -0.04     0.07  -0.24   0.04     0.06  -0.06  -0.11
    44   1     0.24   0.17   0.00     0.27   0.31   0.05     0.15   0.19  -0.09
    45   1    -0.18   0.09   0.03    -0.30   0.20   0.17    -0.10   0.14  -0.03
    46   1    -0.01   0.01   0.03     0.06  -0.01   0.06    -0.02   0.10  -0.05
    47   1     0.03   0.02   0.10     0.02  -0.01  -0.02     0.03   0.03  -0.14
    48   1    -0.05   0.07   0.05    -0.04  -0.07  -0.00     0.10  -0.04  -0.07
    49   1     0.02  -0.01  -0.09     0.00  -0.04  -0.11     0.04  -0.01   0.08
    50   1     0.10   0.05  -0.04     0.06   0.02  -0.07    -0.06  -0.03   0.03
    51   1     0.11  -0.18  -0.04    -0.01  -0.01  -0.04    -0.17   0.12   0.01
    52   1    -0.21  -0.17  -0.02     0.17  -0.01   0.01     0.25   0.11   0.06
    53   1    -0.05   0.10  -0.00     0.08  -0.16  -0.05     0.03  -0.26   0.03
    54   1     0.05   0.01   0.14     0.00  -0.00   0.06     0.06  -0.03  -0.02
    55   1    -0.04  -0.05   0.10     0.04  -0.09   0.03    -0.05   0.07   0.01
    56   1     0.12   0.10   0.06    -0.14   0.03  -0.07     0.21  -0.03   0.10
    57   1     0.01  -0.02   0.13    -0.02  -0.02  -0.16     0.01  -0.06   0.26
    58   1     0.00  -0.17  -0.12     0.06  -0.03  -0.07    -0.09  -0.14  -0.02
    59   1    -0.04   0.03  -0.21    -0.07   0.00  -0.10    -0.04  -0.02  -0.06
                     10                     11                     12
                      A                      A                      A
 Frequencies --    189.9831               200.5438               216.5100
 Red. masses --      1.8923                 2.9443                 2.0498
 Frc consts  --      0.0402                 0.0698                 0.0566
 IR Inten    --      0.3876                 0.1774                 0.2450
  Atom  AN      X      Y      Z        X      Y      Z        X      Y      Z
     1   6    -0.06  -0.05   0.05     0.11   0.07   0.02    -0.01   0.01   0.02
     2   6     0.00   0.02  -0.00     0.09   0.03   0.03     0.02   0.03  -0.02
     3   6     0.10   0.02  -0.02     0.13   0.03  -0.03     0.05   0.04   0.03
     4   6    -0.03   0.05  -0.02     0.08   0.00   0.02     0.01   0.03  -0.05
     5   6     0.00   0.05  -0.02     0.10   0.01  -0.11     0.03   0.02   0.08
     6   6     0.02   0.02  -0.02     0.07  -0.02   0.02     0.06  -0.01  -0.04
     7   6    -0.00  -0.01   0.02     0.03  -0.04   0.03     0.02  -0.03  -0.03
     8   6    -0.01  -0.04   0.05    -0.00  -0.04   0.01    -0.00  -0.02   0.02
     9   6    -0.03  -0.03   0.07    -0.06  -0.02  -0.02    -0.04  -0.00   0.03
    10   6    -0.00  -0.03  -0.04    -0.07   0.02  -0.04    -0.03   0.01  -0.02
    11   6    -0.01  -0.03  -0.03    -0.07   0.01  -0.00    -0.03   0.01  -0.04
    12   6     0.01  -0.03   0.01    -0.06   0.00   0.00     0.00   0.01  -0.01
    13   6     0.04   0.03   0.01    -0.09   0.01   0.00     0.08  -0.01  -0.02
    14   6    -0.01  -0.04   0.03    -0.03  -0.03  -0.01     0.00  -0.02   0.05
    15   6    -0.04  -0.04  -0.02     0.00  -0.06  -0.05     0.00  -0.00   0.09
    16   6    -0.05   0.01  -0.01    -0.01  -0.04   0.02     0.04  -0.03  -0.04
    17   6    -0.04   0.02  -0.00     0.04  -0.02   0.04     0.01  -0.03  -0.06
    18   6    -0.07   0.03  -0.01     0.10  -0.03   0.05    -0.04  -0.06  -0.07
    19   6    -0.02   0.01  -0.02    -0.09   0.02   0.02    -0.04   0.05  -0.04
    20   6     0.04   0.02   0.02    -0.08   0.04   0.01     0.01   0.01   0.09
    21   6     0.05   0.00  -0.00    -0.07   0.02  -0.00    -0.04  -0.00  -0.01
    22   6     0.04  -0.02   0.00    -0.06   0.01   0.00    -0.04   0.01  -0.03
    23   8     0.07   0.00  -0.03    -0.08   0.01   0.01    -0.07  -0.01   0.02
    24   1    -0.15  -0.15   0.06     0.15   0.14   0.01    -0.12  -0.14   0.04
    25   1    -0.03  -0.02   0.17     0.10   0.04  -0.04    -0.01   0.12   0.16
    26   1    -0.05  -0.05  -0.04     0.11   0.06   0.09     0.07   0.02  -0.11
    27   1     0.01   0.01   0.00     0.08   0.01   0.03     0.05   0.06  -0.02
    28   1     0.03   0.06   0.08     0.02   0.03   0.09     0.03   0.07   0.07
    29   1     0.10  -0.05  -0.16     0.11  -0.02  -0.22     0.05   0.03   0.01
    30   1     0.28   0.06   0.02     0.33   0.09   0.01     0.09   0.01   0.05
    31   1    -0.03   0.05  -0.02     0.09  -0.07   0.05    -0.02   0.09  -0.07
    32   1     0.01   0.06  -0.02     0.24  -0.07  -0.21    -0.09   0.11   0.17
    33   1     0.01   0.07  -0.02    -0.00   0.10  -0.23     0.14  -0.05   0.20
    34   1     0.05  -0.01  -0.05     0.14   0.00   0.07     0.05  -0.06  -0.11
    35   1     0.02   0.06  -0.04     0.01  -0.07   0.04     0.14   0.06  -0.08
    36   1     0.02  -0.01   0.02     0.02  -0.05   0.03     0.06  -0.03  -0.02
    37   1    -0.02  -0.07   0.06     0.01  -0.03   0.01    -0.03  -0.02   0.02
    38   1    -0.10   0.01   0.07    -0.09  -0.04  -0.02    -0.08   0.02   0.03
    39   1    -0.01  -0.04   0.13    -0.09  -0.04  -0.02    -0.04  -0.02   0.07
    40   1     0.08   0.02  -0.05    -0.05   0.07  -0.05     0.01  -0.00  -0.02
    41   1    -0.04  -0.04  -0.11    -0.08   0.01  -0.09    -0.05   0.01  -0.03
    42   1    -0.02  -0.06  -0.03    -0.06  -0.01  -0.00    -0.05   0.00  -0.04
    43   1     0.12  -0.33  -0.06    -0.10   0.05   0.03     0.04   0.26  -0.04
    44   1     0.35   0.31  -0.03    -0.13  -0.01  -0.01    -0.12  -0.22   0.03
    45   1    -0.31   0.18   0.10    -0.06   0.00  -0.00     0.36  -0.12  -0.05
    46   1    -0.01  -0.01   0.02    -0.02   0.00  -0.02    -0.03  -0.05   0.05
    47   1    -0.07  -0.04  -0.05    -0.00  -0.03  -0.13     0.03  -0.02   0.17
    48   1    -0.04  -0.08  -0.02     0.05  -0.14  -0.05    -0.06   0.07   0.09
    49   1    -0.06   0.01  -0.01    -0.01  -0.02   0.05     0.01  -0.04  -0.09
    50   1    -0.06   0.02  -0.01    -0.06  -0.04   0.02     0.13  -0.02  -0.04
    51   1    -0.19   0.10  -0.03    -0.04   0.06   0.05     0.01  -0.10  -0.10
    52   1     0.04   0.09  -0.02     0.26   0.05   0.09    -0.10  -0.10  -0.07
    53   1    -0.09  -0.10   0.02     0.11  -0.21   0.02    -0.05  -0.01  -0.04
    54   1    -0.04   0.01  -0.03    -0.08   0.03   0.04    -0.04   0.01  -0.12
    55   1    -0.04   0.04  -0.02    -0.11   0.01   0.03    -0.06   0.16  -0.04
    56   1     0.09   0.01   0.02    -0.09   0.05   0.01     0.18   0.00   0.09
    57   1     0.03   0.05   0.08    -0.08   0.04   0.01    -0.02   0.01   0.24
    58   1     0.06  -0.03  -0.01    -0.07   0.01  -0.00    -0.10  -0.08  -0.01
    59   1     0.05   0.03  -0.04    -0.05   0.03  -0.01    -0.03   0.02  -0.05
                     13                     14                     15
                      A                      A                      A
 Frequencies --    228.0702               237.1135               254.0695
 Red. masses --      1.2818                 1.2660                 1.4119
 Frc consts  --      0.0393                 0.0419                 0.0537
 IR Inten    --      0.4471                 0.0499                 0.1012
  Atom  AN      X      Y      Z        X      Y      Z        X      Y      Z
     1   6     0.05   0.03  -0.01     0.02  -0.00  -0.00     0.02  -0.03   0.01
     2   6     0.02  -0.00   0.01     0.01   0.00   0.01     0.05   0.00  -0.03
     3   6     0.01  -0.00   0.02     0.04   0.00   0.04     0.01   0.00   0.00
     4   6     0.01  -0.00   0.01    -0.01   0.01  -0.00     0.03   0.01  -0.04
     5   6     0.01  -0.01   0.02    -0.02   0.01  -0.02     0.04   0.01   0.04
     6   6     0.02  -0.01  -0.01    -0.02   0.02  -0.03     0.04  -0.00   0.07
     7   6     0.01  -0.01  -0.03    -0.01   0.02   0.02     0.02  -0.00  -0.01
     8   6    -0.01  -0.02  -0.02    -0.01   0.01   0.04     0.01  -0.02  -0.02
     9   6    -0.02   0.01   0.05    -0.01  -0.01  -0.01    -0.01  -0.00   0.00
    10   6    -0.02  -0.01   0.04    -0.01  -0.01  -0.04    -0.02   0.00   0.01
    11   6    -0.03   0.00  -0.02    -0.01  -0.02  -0.01    -0.02   0.00  -0.00
    12   6    -0.01  -0.01  -0.03     0.00  -0.02   0.02    -0.02  -0.00  -0.02
    13   6    -0.02   0.03  -0.03     0.03  -0.06   0.02    -0.06   0.02  -0.02
    14   6    -0.01  -0.02  -0.02    -0.01   0.00   0.04    -0.00  -0.02  -0.03
    15   6    -0.01  -0.00   0.02    -0.02   0.00   0.01     0.01   0.00   0.03
    16   6     0.00  -0.01   0.00    -0.00   0.03  -0.04     0.01  -0.02   0.04
    17   6     0.01  -0.00  -0.01    -0.01   0.01  -0.01     0.01  -0.00  -0.03
    18   6     0.02   0.04  -0.01    -0.02  -0.02  -0.01    -0.03   0.05  -0.03
    19   6    -0.03   0.01  -0.02    -0.01   0.01  -0.02    -0.03  -0.00   0.01
    20   6    -0.01   0.00   0.02     0.01   0.01   0.01    -0.03   0.01  -0.01
    21   6    -0.01  -0.00   0.02     0.01   0.01   0.00    -0.01   0.00   0.01
    22   6    -0.00  -0.01  -0.01     0.01  -0.01   0.00    -0.01  -0.01  -0.01
    23   8     0.02  -0.02  -0.02     0.01  -0.00  -0.00     0.01  -0.01  -0.01
    24   1     0.14   0.18  -0.04     0.24   0.43  -0.09    -0.04  -0.10   0.02
    25   1     0.05  -0.07  -0.14     0.08  -0.36  -0.32     0.03  -0.00   0.08
    26   1    -0.02   0.02   0.13    -0.26  -0.05   0.38     0.03  -0.03  -0.05
    27   1     0.02  -0.00   0.01     0.00   0.00   0.01     0.08   0.02  -0.03
    28   1     0.01   0.01   0.02     0.18   0.04  -0.09     0.32   0.00  -0.31
    29   1     0.01   0.01   0.02     0.10  -0.00   0.24     0.11   0.05   0.47
    30   1     0.01  -0.01   0.02    -0.15  -0.03  -0.01    -0.46  -0.05  -0.11
    31   1     0.00   0.00   0.00    -0.01   0.00  -0.00     0.04   0.05  -0.06
    32   1    -0.01   0.00   0.04    -0.03  -0.00  -0.02     0.03   0.07   0.06
    33   1     0.03  -0.01   0.04    -0.01   0.02  -0.02     0.04  -0.04   0.06
    34   1     0.00  -0.00  -0.01    -0.01  -0.00  -0.05     0.04   0.04   0.11
    35   1     0.04  -0.02  -0.00    -0.03   0.06  -0.04     0.05  -0.06   0.09
    36   1     0.00  -0.01  -0.03     0.02   0.01   0.02     0.00   0.03  -0.02
    37   1    -0.02  -0.05  -0.02    -0.01   0.03   0.03     0.01  -0.04  -0.02
    38   1    -0.02   0.09   0.05    -0.04  -0.04  -0.00    -0.01   0.02   0.00
    39   1    -0.02  -0.02   0.11     0.00   0.00  -0.02    -0.02  -0.02   0.02
    40   1    -0.01  -0.06   0.04     0.02   0.03  -0.05    -0.02  -0.01   0.01
    41   1    -0.02   0.00   0.08    -0.01  -0.03  -0.08    -0.01   0.00   0.02
    42   1    -0.05   0.03  -0.02    -0.02  -0.06  -0.00    -0.01   0.02  -0.01
    43   1     0.02  -0.17  -0.05     0.03  -0.01   0.01    -0.05  -0.08  -0.00
    44   1     0.14   0.18  -0.05    -0.00  -0.11   0.06     0.01   0.09  -0.05
    45   1    -0.22   0.11   0.02     0.10  -0.09  -0.01    -0.16   0.06  -0.00
    46   1    -0.02  -0.05  -0.02    -0.01   0.01   0.04    -0.02  -0.04  -0.02
    47   1    -0.00  -0.02   0.08    -0.02   0.00   0.00     0.01  -0.01   0.08
    48   1    -0.04   0.05   0.02    -0.04  -0.02   0.01     0.01   0.06   0.03
    49   1    -0.01  -0.00   0.01    -0.01   0.00  -0.11     0.03   0.00   0.09
    50   1     0.01  -0.02   0.00     0.04   0.08  -0.05     0.00  -0.09   0.05
    51   1     0.41  -0.19   0.08    -0.09   0.01  -0.04    -0.19   0.15  -0.05
    52   1    -0.37  -0.17  -0.08     0.03   0.01   0.01     0.11   0.14  -0.06
    53   1     0.04   0.51  -0.03    -0.03  -0.10   0.01    -0.06  -0.11   0.00
    54   1    -0.04   0.00  -0.04    -0.03   0.01  -0.04    -0.02   0.01   0.04
    55   1    -0.05   0.04  -0.02    -0.01   0.04  -0.02    -0.04  -0.03   0.02
    56   1     0.01  -0.01   0.02     0.04   0.00   0.01    -0.06   0.01  -0.00
    57   1    -0.02   0.02   0.05     0.00   0.02   0.03    -0.03   0.02  -0.03
    58   1    -0.02  -0.00   0.02     0.01  -0.00  -0.00    -0.02   0.03   0.02
    59   1     0.01   0.00   0.02     0.02   0.01  -0.01     0.01   0.00   0.03
                     16                     17                     18
                      A                      A                      A
 Frequencies --    259.9115               266.7872               274.9761
 Red. masses --      2.0197                 1.8865                 2.0482
 Frc consts  --      0.0804                 0.0791                 0.0912
 IR Inten    --      0.1464                 0.0215                 1.7154
  Atom  AN      X      Y      Z        X      Y      Z        X      Y      Z
     1   6    -0.04   0.02   0.01     0.01   0.02  -0.00    -0.06  -0.07  -0.02
     2   6    -0.03   0.03   0.00    -0.01  -0.01   0.01    -0.04   0.01  -0.01
     3   6     0.06   0.03   0.04    -0.02  -0.01  -0.00     0.01   0.02  -0.04
     4   6    -0.03   0.01  -0.02    -0.01  -0.01  -0.00    -0.03   0.03   0.02
     5   6     0.01   0.01   0.01    -0.02  -0.01  -0.01     0.01   0.04  -0.02
     6   6     0.02  -0.04   0.04    -0.04  -0.00   0.08     0.03  -0.00   0.03
     7   6    -0.01  -0.04  -0.03    -0.02   0.03  -0.05    -0.00  -0.02  -0.01
     8   6     0.00  -0.04  -0.06    -0.02   0.01  -0.05    -0.00  -0.05   0.00
     9   6     0.03  -0.03  -0.02     0.00  -0.01  -0.05     0.00  -0.06  -0.00
    10   6     0.01  -0.01   0.08    -0.05  -0.03   0.10    -0.01  -0.03   0.03
    11   6     0.05   0.04   0.01    -0.04   0.01   0.00     0.01  -0.01   0.01
    12   6     0.02   0.03  -0.04     0.01  -0.01   0.00     0.01   0.00   0.04
    13   6    -0.03   0.13  -0.03     0.11  -0.02  -0.01     0.07   0.10   0.04
    14   6     0.01  -0.01  -0.06    -0.01  -0.02   0.03     0.01  -0.04   0.01
    15   6     0.02   0.01   0.02    -0.01   0.00   0.06    -0.01  -0.08  -0.09
    16   6    -0.00  -0.05   0.04     0.02   0.00  -0.02    -0.05  -0.00   0.00
    17   6    -0.03  -0.04  -0.02     0.02   0.01  -0.05    -0.02   0.01   0.02
    18   6    -0.12  -0.04  -0.03     0.11   0.05  -0.04     0.07   0.08   0.03
    19   6     0.06  -0.02   0.03    -0.03   0.04  -0.07     0.02   0.01  -0.02
    20   6     0.02  -0.02  -0.02    -0.00  -0.01   0.05     0.04   0.00   0.03
    21   6    -0.00  -0.02  -0.02    -0.01  -0.01   0.03    -0.00  -0.01  -0.06
    22   6     0.00   0.02  -0.01    -0.01  -0.01  -0.00    -0.01   0.02   0.01
    23   8    -0.03   0.02   0.01    -0.00  -0.01  -0.01    -0.07   0.05   0.03
    24   1     0.08   0.31  -0.05     0.03   0.06  -0.01    -0.04  -0.09  -0.01
    25   1     0.01  -0.22  -0.17    -0.00  -0.00  -0.05    -0.03  -0.13  -0.01
    26   1    -0.22  -0.01   0.28    -0.00   0.01   0.04    -0.14  -0.08  -0.05
    27   1    -0.03   0.04  -0.00    -0.01  -0.01   0.01    -0.05  -0.01  -0.00
    28   1    -0.04   0.10   0.19    -0.10  -0.02   0.08     0.19   0.02  -0.23
    29   1     0.05  -0.04  -0.13    -0.05  -0.01  -0.12     0.08  -0.01   0.19
    30   1     0.28   0.02   0.10     0.09  -0.01   0.03    -0.23   0.05  -0.12
    31   1    -0.06   0.02  -0.02    -0.03  -0.01  -0.01    -0.01   0.02   0.03
    32   1     0.03   0.04   0.01     0.05  -0.01  -0.05     0.08   0.02  -0.06
    33   1     0.01   0.01   0.01    -0.09  -0.00  -0.07    -0.02   0.09  -0.08
    34   1     0.04   0.01   0.10    -0.06   0.10   0.19     0.05   0.03   0.07
    35   1     0.04  -0.11   0.07    -0.06  -0.13   0.14     0.02  -0.06   0.05
    36   1    -0.05  -0.03  -0.03    -0.05   0.09  -0.06    -0.01  -0.02  -0.01
    37   1    -0.01  -0.05  -0.06    -0.03   0.04  -0.05    -0.01  -0.04  -0.00
    38   1     0.11  -0.03  -0.02     0.11  -0.05  -0.05     0.03  -0.09  -0.00
    39   1     0.00  -0.03  -0.05    -0.03  -0.00  -0.13    -0.02  -0.06  -0.04
    40   1    -0.06  -0.09   0.09    -0.17  -0.17   0.12    -0.04  -0.06   0.04
    41   1     0.01   0.05   0.18     0.00   0.02   0.26    -0.02  -0.01   0.07
    42   1     0.07   0.10   0.00    -0.09   0.05   0.01    -0.01  -0.01   0.01
    43   1    -0.05   0.21  -0.01     0.16  -0.16  -0.10     0.04   0.32   0.00
    44   1    -0.08   0.13  -0.10     0.26   0.08   0.03    -0.07  -0.00   0.02
    45   1     0.02   0.14   0.03    -0.00   0.03   0.03     0.27   0.05   0.11
    46   1     0.01  -0.05  -0.05    -0.00  -0.07   0.03     0.06  -0.00   0.00
    47   1     0.02  -0.02   0.08     0.01  -0.01   0.11    -0.06  -0.05  -0.23
    48   1     0.03   0.09   0.02    -0.05   0.04   0.06     0.06  -0.21  -0.09
    49   1     0.03  -0.03   0.12    -0.02   0.01  -0.05    -0.04   0.00   0.03
    50   1    -0.02  -0.13   0.05     0.08   0.01  -0.02    -0.12  -0.00   0.00
    51   1    -0.23   0.01  -0.10    -0.10   0.20  -0.02     0.24   0.01   0.13
    52   1    -0.04   0.01  -0.04     0.36   0.18  -0.01    -0.06   0.01   0.00
    53   1    -0.15  -0.16   0.04     0.13  -0.20  -0.09     0.11   0.27  -0.05
    54   1     0.09  -0.01   0.07    -0.06  -0.01  -0.19    -0.01  -0.00  -0.07
    55   1     0.06  -0.07   0.04     0.01   0.18  -0.09     0.04   0.07  -0.03
    56   1    -0.01   0.00  -0.01     0.08  -0.06   0.04     0.14   0.02   0.02
    57   1     0.02  -0.05  -0.04    -0.02   0.01   0.12     0.02  -0.01   0.11
    58   1    -0.00  -0.02  -0.02    -0.03  -0.04   0.03     0.02  -0.10  -0.07
    59   1    -0.02  -0.02  -0.03     0.01   0.00   0.02    -0.03   0.02  -0.14
                     19                     20                     21
                      A                      A                      A
 Frequencies --    285.3725               305.9944               308.7797
 Red. masses --      2.1525                 2.5400                 2.4475
 Frc consts  --      0.1033                 0.1401                 0.1375
 IR Inten    --      0.0369                 0.5411                 0.3920
  Atom  AN      X      Y      Z        X      Y      Z        X      Y      Z
     1   6     0.02   0.03   0.02    -0.10  -0.06  -0.03     0.13   0.04   0.01
     2   6     0.02  -0.04  -0.01    -0.07   0.05   0.01     0.07  -0.03   0.03
     3   6    -0.06  -0.05   0.03     0.01   0.06  -0.04    -0.00  -0.04   0.01
     4   6     0.01  -0.03  -0.04    -0.04   0.03   0.04     0.04  -0.01   0.02
     5   6    -0.01  -0.03   0.03    -0.01   0.03  -0.04    -0.03  -0.01  -0.01
     6   6    -0.02  -0.01   0.08     0.00   0.01  -0.02    -0.04   0.05  -0.04
     7   6     0.01   0.02  -0.04    -0.01   0.00  -0.02    -0.02   0.05   0.03
     8   6    -0.00  -0.02   0.02    -0.01   0.01  -0.01    -0.01   0.01   0.01
     9   6    -0.00   0.01   0.09     0.01   0.03   0.05     0.04  -0.05  -0.03
    10   6     0.05  -0.01  -0.09     0.03  -0.03  -0.01     0.00  -0.09   0.08
    11   6     0.00  -0.05  -0.02    -0.00  -0.03  -0.03    -0.01  -0.06  -0.02
    12   6    -0.01  -0.02   0.04    -0.02  -0.02  -0.02    -0.03  -0.03   0.00
    13   6    -0.07   0.03   0.05    -0.10   0.06  -0.01    -0.09   0.12   0.02
    14   6    -0.01  -0.03   0.02    -0.02  -0.02   0.02    -0.04  -0.02   0.02
    15   6    -0.02  -0.03   0.02    -0.02   0.05   0.15    -0.06  -0.01   0.03
    16   6    -0.00  -0.02  -0.02     0.03  -0.00  -0.00    -0.02   0.06  -0.04
    17   6     0.02   0.01  -0.08     0.01  -0.01   0.00    -0.00   0.04   0.03
    18   6     0.04   0.14  -0.09     0.18  -0.10   0.03    -0.06  -0.05   0.03
    19   6    -0.00  -0.02   0.02    -0.01  -0.03   0.03    -0.00   0.00  -0.04
    20   6     0.04   0.03  -0.01     0.02   0.02  -0.01     0.08   0.03   0.01
    21   6     0.03   0.02  -0.07     0.03   0.01  -0.03     0.03   0.02  -0.07
    22   6     0.01   0.01   0.01     0.02  -0.02  -0.02     0.01  -0.01  -0.02
    23   8    -0.00   0.02   0.00     0.04  -0.03  -0.03     0.02  -0.02  -0.02
    24   1     0.04   0.14  -0.01    -0.05  -0.07  -0.02     0.10  -0.07   0.04
    25   1     0.02  -0.01  -0.05    -0.06  -0.14  -0.04     0.06   0.21   0.05
    26   1     0.02   0.02   0.13    -0.21  -0.07  -0.06     0.29   0.07  -0.09
    27   1     0.04  -0.03  -0.01    -0.11   0.03   0.01     0.08  -0.04   0.04
    28   1    -0.22  -0.07   0.19     0.09   0.08  -0.11     0.02  -0.11  -0.05
    29   1    -0.13   0.01  -0.15     0.06  -0.02  -0.00    -0.01   0.02   0.07
    30   1     0.12  -0.10   0.10    -0.02   0.13  -0.08    -0.10  -0.04  -0.02
    31   1    -0.02   0.00  -0.05    -0.04   0.00   0.05     0.05  -0.02   0.02
    32   1    -0.00   0.01   0.05     0.04  -0.01  -0.08    -0.06  -0.04  -0.01
    33   1    -0.03  -0.08   0.04    -0.03   0.10  -0.08    -0.02  -0.02  -0.00
    34   1    -0.06   0.07   0.16     0.02   0.02  -0.01    -0.06  -0.01  -0.11
    35   1    -0.03  -0.12   0.12    -0.00  -0.01  -0.02    -0.06   0.14  -0.08
    36   1     0.03   0.10  -0.06    -0.01  -0.01  -0.02    -0.02   0.02   0.04
    37   1    -0.05  -0.06   0.02    -0.04  -0.00  -0.01    -0.01   0.04   0.01
    38   1    -0.12   0.13   0.10    -0.04   0.13   0.05     0.13  -0.14  -0.04
    39   1     0.04  -0.02   0.23     0.04   0.01   0.15     0.05  -0.01  -0.14
    40   1     0.19   0.10  -0.11     0.08  -0.03  -0.01    -0.08  -0.22   0.09
    41   1     0.01  -0.06  -0.24     0.03  -0.04  -0.03     0.05  -0.05   0.21
    42   1     0.02  -0.11  -0.02     0.01  -0.03  -0.03    -0.04  -0.02  -0.01
    43   1    -0.12   0.21   0.11    -0.13   0.13   0.06    -0.12   0.25   0.06
    44   1    -0.23  -0.06  -0.00    -0.18   0.06  -0.10    -0.19   0.12  -0.10
    45   1     0.07  -0.01   0.05    -0.08   0.07   0.02    -0.03   0.14   0.11
    46   1    -0.00  -0.04   0.02    -0.07  -0.10   0.03    -0.06  -0.03   0.02
    47   1    -0.01  -0.03   0.04     0.02  -0.00   0.34    -0.06  -0.02   0.05
    48   1    -0.04  -0.02   0.02    -0.11   0.21   0.15    -0.10   0.00   0.03
    49   1    -0.05   0.01  -0.01     0.01  -0.02  -0.07    -0.07   0.03  -0.16
    50   1     0.02  -0.04  -0.02     0.16   0.02  -0.01     0.04   0.17  -0.06
    51   1    -0.05   0.23  -0.01     0.19  -0.11   0.03    -0.11  -0.05  -0.06
    52   1     0.13   0.22  -0.16     0.26  -0.10   0.17    -0.05  -0.05   0.05
    53   1     0.03   0.09  -0.09     0.24  -0.19  -0.08    -0.09  -0.11   0.08
    54   1    -0.02   0.02   0.09    -0.01   0.01   0.10    -0.06   0.01  -0.08
    55   1    -0.04  -0.07   0.03    -0.06  -0.09   0.04    -0.00   0.06  -0.05
    56   1     0.09   0.07  -0.01     0.04   0.05  -0.01     0.23   0.04   0.01
    57   1     0.03   0.03   0.04     0.02   0.02   0.01     0.05   0.03   0.16
    58   1     0.06  -0.03  -0.07     0.02   0.01  -0.03     0.02  -0.04  -0.08
    59   1     0.00   0.03  -0.11     0.03   0.01  -0.04     0.02   0.04  -0.11
                     22                     23                     24
                      A                      A                      A
 Frequencies --    322.6403               350.6563               363.9929
 Red. masses --      2.5504                 2.5367                 2.3310
 Frc consts  --      0.1564                 0.1838                 0.1820
 IR Inten    --      0.8516                 0.2175                 0.4200
  Atom  AN      X      Y      Z        X      Y      Z        X      Y      Z
     1   6     0.03   0.03   0.00     0.03   0.12  -0.03     0.11  -0.01  -0.01
     2   6     0.02  -0.00  -0.00     0.00   0.05  -0.02    -0.02  -0.02   0.14
     3   6     0.01  -0.00   0.00     0.16   0.08   0.01     0.00  -0.02  -0.04
     4   6     0.01  -0.00  -0.01    -0.02  -0.02  -0.02    -0.05   0.01   0.12
     5   6    -0.03  -0.01  -0.00    -0.11  -0.06   0.01     0.01   0.04  -0.01
     6   6    -0.04   0.02  -0.01    -0.14  -0.03   0.00     0.03  -0.03  -0.00
     7   6    -0.02   0.02   0.02    -0.07  -0.00  -0.04    -0.02  -0.04  -0.08
     8   6    -0.03  -0.01   0.04    -0.06   0.03  -0.03    -0.01  -0.05  -0.11
     9   6    -0.05  -0.02   0.01    -0.04   0.04   0.01    -0.05   0.04   0.03
    10   6    -0.05   0.00  -0.01    -0.02  -0.02  -0.01    -0.02   0.03  -0.03
    11   6    -0.01   0.01   0.00    -0.00  -0.03   0.01     0.00   0.01   0.01
    12   6     0.01  -0.01  -0.04     0.01  -0.01   0.05     0.03   0.01   0.02
    13   6     0.16   0.14  -0.05     0.01  -0.02   0.05     0.05  -0.03   0.02
    14   6    -0.01  -0.01   0.03    -0.00   0.04  -0.01     0.03  -0.03  -0.06
    15   6     0.01  -0.02   0.01     0.04   0.01  -0.03    -0.04   0.05   0.02
    16   6     0.02   0.03  -0.03     0.01  -0.05   0.07    -0.01   0.04  -0.07
    17   6     0.00   0.02  -0.01    -0.02  -0.03  -0.02    -0.03   0.00   0.01
    18   6     0.01   0.03  -0.01     0.03  -0.03  -0.01    -0.07   0.01   0.00
    19   6    -0.05  -0.06   0.16     0.01  -0.03  -0.01     0.01  -0.02   0.01
    20   6    -0.11  -0.01  -0.02     0.05  -0.03  -0.01     0.00  -0.02  -0.00
    21   6     0.00  -0.05   0.02     0.04  -0.03  -0.04     0.03  -0.04  -0.00
    22   6     0.02  -0.07  -0.02     0.02  -0.00   0.03     0.03   0.01   0.04
    23   8     0.08  -0.08  -0.06     0.02   0.02   0.01    -0.02   0.06   0.03
    24   1     0.01  -0.00   0.01    -0.03   0.02  -0.01     0.25  -0.13   0.04
    25   1     0.01   0.07   0.01    -0.03   0.29   0.03     0.01   0.10  -0.11
    26   1     0.08   0.03  -0.02     0.19   0.15  -0.11     0.19   0.01  -0.16
    27   1     0.03  -0.00  -0.00     0.02   0.07  -0.02    -0.09  -0.07   0.14
    28   1     0.02   0.00  -0.00     0.34   0.23  -0.10     0.07  -0.12  -0.16
    29   1     0.01   0.00   0.02     0.27  -0.07   0.19     0.03  -0.07  -0.03
    30   1    -0.00  -0.01   0.00     0.06   0.09  -0.02    -0.08   0.15  -0.12
    31   1     0.01   0.00  -0.01    -0.02  -0.02  -0.02    -0.14  -0.03   0.12
    32   1    -0.05  -0.01   0.01    -0.15  -0.05   0.04     0.12  -0.04  -0.09
    33   1    -0.03  -0.03   0.01    -0.10  -0.13   0.04    -0.03   0.18  -0.10
    34   1    -0.05   0.01  -0.03    -0.17   0.01   0.03     0.04   0.02   0.06
    35   1    -0.05   0.06  -0.02    -0.14  -0.07   0.02     0.07  -0.12   0.03
    36   1     0.00   0.04   0.01    -0.08   0.01  -0.05    -0.09  -0.07  -0.08
    37   1    -0.02  -0.00   0.03    -0.09   0.02  -0.03    -0.04  -0.11  -0.10
    38   1    -0.08  -0.04   0.01    -0.07   0.12   0.01    -0.11   0.24   0.04
    39   1    -0.06  -0.01  -0.00     0.00   0.04   0.09    -0.05  -0.03   0.23
    40   1    -0.05   0.03  -0.01    -0.01  -0.01  -0.02     0.02   0.06  -0.03
    41   1    -0.07   0.00  -0.02    -0.01  -0.03  -0.02    -0.04   0.02  -0.07
    42   1     0.09   0.05  -0.01    -0.02  -0.07   0.02     0.01  -0.01   0.01
    43   1     0.15   0.37  -0.15     0.02  -0.01   0.04     0.06  -0.01  -0.01
    44   1     0.06   0.07  -0.07     0.01  -0.03   0.07     0.05  -0.06   0.06
    45   1     0.39   0.11   0.09     0.03  -0.03   0.04     0.09  -0.05  -0.01
    46   1    -0.03   0.01   0.02     0.04   0.04  -0.01     0.09  -0.11  -0.05
    47   1    -0.00  -0.01  -0.02     0.05   0.04  -0.09    -0.05  -0.02   0.19
    48   1     0.01  -0.05   0.01     0.11  -0.03  -0.03    -0.12   0.20   0.03
    49   1    -0.01   0.01  -0.11     0.08  -0.02   0.23    -0.01  -0.02  -0.18
    50   1     0.07   0.09  -0.04    -0.08  -0.21   0.09     0.05   0.14  -0.08
    51   1     0.02   0.03   0.01     0.07  -0.05   0.02    -0.16   0.05  -0.05
    52   1     0.02   0.03  -0.02     0.02  -0.04   0.03    -0.03   0.04  -0.03
    53   1     0.02   0.04  -0.02     0.06  -0.01  -0.06    -0.11  -0.06   0.07
    54   1     0.05  -0.00   0.35     0.00  -0.03  -0.03     0.03  -0.02   0.02
    55   1    -0.11  -0.25   0.18     0.03  -0.02  -0.02     0.01  -0.03   0.01
    56   1    -0.32   0.06  -0.01     0.09  -0.02  -0.01    -0.03  -0.02  -0.00
    57   1    -0.06  -0.00  -0.22     0.04  -0.01   0.03     0.01  -0.01  -0.03
    58   1     0.02  -0.02   0.02     0.09  -0.10  -0.05     0.08  -0.08  -0.01
    59   1     0.04  -0.03   0.02    -0.01  -0.02  -0.11    -0.01  -0.03  -0.05
                     25                     26                     27
                      A                      A                      A
 Frequencies --    370.0499               384.0438               411.4201
 Red. masses --      2.7906                 2.6024                 3.1520
 Frc consts  --      0.2251                 0.2261                 0.3143
 IR Inten    --      0.2310                 0.1964                 0.9500
  Atom  AN      X      Y      Z        X      Y      Z        X      Y      Z
     1   6    -0.02  -0.06   0.02    -0.08   0.02  -0.02    -0.01   0.02  -0.03
     2   6     0.01  -0.01  -0.01    -0.06   0.02  -0.03    -0.08   0.02   0.09
     3   6    -0.07  -0.02   0.00     0.02   0.03  -0.00     0.04   0.05  -0.02
     4   6     0.02   0.02  -0.01     0.01  -0.05   0.02    -0.04  -0.04   0.07
     5   6     0.05   0.03   0.00     0.02  -0.06   0.02     0.00  -0.05   0.02
     6   6     0.06   0.02   0.00     0.01  -0.04   0.01     0.01  -0.07   0.01
     7   6     0.03   0.02  -0.04     0.00  -0.04   0.06     0.02  -0.03  -0.03
     8   6     0.03   0.08  -0.08     0.01  -0.01   0.02     0.03   0.06   0.01
     9   6     0.01   0.14  -0.03    -0.07  -0.00  -0.02     0.13   0.02   0.00
    10   6    -0.02  -0.02   0.00    -0.08  -0.00   0.02     0.12  -0.10  -0.02
    11   6    -0.10  -0.08   0.02    -0.04   0.00   0.01     0.02  -0.10  -0.01
    12   6    -0.01  -0.06   0.08     0.03  -0.01   0.02    -0.03  -0.06   0.02
    13   6     0.03   0.04   0.10    -0.09   0.01   0.03     0.04   0.02   0.03
    14   6     0.03   0.05  -0.03     0.07   0.03  -0.01    -0.00   0.05   0.03
    15   6     0.03   0.06  -0.07     0.11   0.05  -0.02     0.02   0.02  -0.03
    16   6    -0.00  -0.00   0.08     0.15   0.06  -0.09     0.03  -0.04  -0.04
    17   6     0.02   0.02   0.00     0.02  -0.03   0.06     0.01  -0.05  -0.01
    18   6    -0.04  -0.08  -0.00    -0.04   0.11   0.05    -0.05   0.05  -0.02
    19   6    -0.12  -0.01  -0.01    -0.04  -0.00  -0.03    -0.02   0.06   0.03
    20   6    -0.05   0.02   0.03    -0.01  -0.03   0.02    -0.05   0.11   0.01
    21   6     0.03  -0.06  -0.06     0.02  -0.07  -0.04    -0.10   0.14   0.04
    22   6     0.01  -0.07   0.03     0.03  -0.04   0.00    -0.09  -0.03  -0.05
    23   8     0.04  -0.03  -0.04     0.02  -0.02  -0.02    -0.04  -0.07  -0.06
    24   1    -0.01  -0.01   0.00    -0.12   0.03  -0.03     0.09  -0.06   0.01
    25   1     0.03  -0.15   0.00    -0.07   0.01   0.01    -0.06   0.06  -0.08
    26   1    -0.11  -0.07   0.06    -0.09   0.02  -0.00     0.02   0.02  -0.11
    27   1     0.02  -0.01  -0.01    -0.07   0.03  -0.03    -0.13   0.01   0.08
    28   1    -0.16  -0.09   0.06     0.05   0.13   0.03     0.14   0.07  -0.11
    29   1    -0.13   0.06  -0.09     0.06  -0.05  -0.02     0.11  -0.11  -0.02
    30   1    -0.02  -0.04   0.02     0.09   0.04   0.02     0.04   0.19  -0.08
    31   1     0.02   0.03  -0.01     0.03  -0.06   0.03    -0.12  -0.08   0.07
    32   1     0.05   0.04   0.00     0.01  -0.06   0.02     0.03  -0.08  -0.01
    33   1     0.05   0.04   0.00     0.02  -0.06   0.02    -0.01   0.01  -0.01
    34   1     0.06   0.05   0.04     0.02  -0.08  -0.04    -0.01  -0.04   0.04
    35   1     0.08  -0.04   0.03     0.01   0.02  -0.02     0.02  -0.11   0.02
    36   1    -0.01  -0.00  -0.04    -0.00  -0.06   0.07     0.04  -0.04  -0.02
    37   1     0.03   0.09  -0.08     0.05  -0.00   0.02    -0.01   0.08   0.01
    38   1    -0.00   0.25  -0.03    -0.06  -0.04  -0.02     0.14   0.02   0.00
    39   1     0.04   0.11   0.08    -0.08  -0.00  -0.05     0.21   0.06  -0.00
    40   1    -0.05  -0.05   0.01    -0.13  -0.04   0.02     0.16  -0.12  -0.02
    41   1     0.11  -0.08   0.05    -0.06   0.01   0.07     0.18  -0.14  -0.02
    42   1    -0.14  -0.12   0.03    -0.07  -0.01   0.01     0.05  -0.13  -0.01
    43   1     0.04   0.14   0.04    -0.11   0.02   0.12     0.06   0.03  -0.03
    44   1    -0.00   0.03   0.07    -0.14   0.02  -0.03     0.08   0.07  -0.00
    45   1     0.12   0.04   0.20    -0.12   0.02   0.02     0.04   0.05   0.12
    46   1     0.13   0.06  -0.03     0.08   0.06  -0.01     0.01   0.08   0.03
    47   1     0.04   0.09  -0.13     0.12   0.05   0.02     0.07   0.06  -0.07
    48   1     0.13   0.02  -0.07     0.05   0.08  -0.02     0.01  -0.02  -0.03
    49   1     0.05   0.06   0.26     0.16  -0.08  -0.37     0.07  -0.08  -0.07
    50   1    -0.12  -0.16   0.10     0.25   0.34  -0.13     0.04   0.00  -0.04
    51   1    -0.03  -0.13  -0.12    -0.11   0.20   0.15    -0.10   0.10   0.01
    52   1    -0.08  -0.12   0.06    -0.02   0.18  -0.12    -0.06   0.08  -0.15
    53   1    -0.06  -0.11   0.04    -0.07   0.16   0.11    -0.09   0.08   0.05
    54   1    -0.17  -0.01  -0.06    -0.03  -0.03  -0.09    -0.11   0.10   0.03
    55   1    -0.12   0.07  -0.02    -0.02   0.05  -0.04    -0.04   0.08   0.03
    56   1     0.01   0.04   0.03     0.04  -0.03   0.01    -0.07   0.12   0.01
    57   1    -0.06   0.09   0.09    -0.02   0.01   0.06    -0.04   0.04  -0.01
    58   1     0.11  -0.20  -0.10     0.06  -0.16  -0.06    -0.21   0.29   0.08
    59   1     0.02   0.03  -0.22     0.01  -0.03  -0.13     0.04   0.10   0.21
                     28                     29                     30
                      A                      A                      A
 Frequencies --    420.7884               430.1552               444.5708
 Red. masses --      2.8910                 3.1637                 2.8929
 Frc consts  --      0.3016                 0.3449                 0.3369
 IR Inten    --      1.4748                 0.8892                 0.1702
  Atom  AN      X      Y      Z        X      Y      Z        X      Y      Z
     1   6     0.06  -0.05   0.00     0.04  -0.08   0.02    -0.01   0.00  -0.00
     2   6    -0.01   0.03   0.13     0.02   0.06   0.09    -0.00   0.02   0.00
[...]
 085,0.00000108,-0.00000102,-0.00000125,0.00000018,0.00000749,-0.000002
 70,0.00000563,-0.00000199,0.00000356,-0.00000156,-0.00000086,0.0000019
 7,-0.00000019,-0.00000168,-0.00000056,0.00000352,0.00000429,0.00000111
 ,0.00000412,-0.00000159,-0.00000145,0.00000677,0.00001299,0.00000327,0
 .00000446,-0.00000483,0.00000198,-0.00000311,-0.00000563,0.00001236,0.
 00001032,0.00000868,0.00000028,0.00000795,-0.00000622,0.00008985,-0.00
 013782,0.00001043,0.00000087,0.00006413,0.00005001,0.00005218,0.000090
 31,0.00000931,0.00016380,-0.00006358,-0.00026914,-0.00003453,-0.000002
 19,-0.00003002,0.00003176,0.00004252,-0.00004021,-0.00001509,-0.000029
 95,0.00004016,-0.00000067,-0.00003600,-0.00004697,0.00003477,-0.000017
 68,0.00006340,0.00000745,0.00000960,-0.00001131,-0.00000094,0.00000594
 ,-0.00000612,0.00000313,-0.00000144,0.00000004,-0.00000193,-0.00000089
 ,-0.00000156,0.00000369,0.00000935,-0.00000098,-0.00000905,-0.00000237
 ,0.00000341,0.00050405,0.00088089,0.00006187,0.00106269,0.00072012,0.0
 0014539,-0.01249540,0.01718538,0.00021106,0.14748924,-0.00000017,-0.00
 000327,0.00001108,0.00000086,0.00000586,-0.00002048,-0.00000194,-0.000
 00526,0.00000660,-0.00000537,-0.00000508,0.00002400,-0.00000996,0.0000
 0904,0.00000015,0.00002800,-0.00000191,0.00000158,-0.00002475,0.000035
 73,0.00005223,-0.00002599,0.00004478,-0.00011598,-0.00061719,-0.000403
 77,-0.00011235,0.00179171,-0.00092185,0.00042600,-0.00576116,-0.003123
 32,-0.00141292,-0.00024237,0.00054738,-0.00022411,0.00013963,-0.000036
 83,0.00003355,0.00004105,0.00006266,0.00009664,0.00001646,-0.00003318,
 -0.00005611,-0.00001004,0.00000750,0.00003375,0.00001102,-0.00001144,-
 0.00003357,0.00000412,0.00000484,0.00000722,0.01660913,-0.02188671,0.0
 0008986,0.12254577,-0.22033045,-0.00130887,0.00010016,0.00067137,0.000
 17575,-0.00024185,0.00083512,0.00001132,0.00000395,-0.00002924,0.00006
 404,0.00000062,0.00000200,-0.00000250,0.00000839,-0.00000808,0.0000049
 0,-0.00000243,0.00000429,-0.00000163,0.00000002,-0.00000099,0.00000232
 ,-0.00000118,0.00000065,-0.00001051,0.00000844,-0.00000825,0.00000632,
 -0.00000260,0.00000283,-0.00000146,0.00000116,0.00000123,0.00000041,0.
 00000897,-0.00000802,-0.00000631,0.00000425,-0.00001473,0.00000865,-0.
 00000547,0.00001067,0.00001622,-0.00000006,0.00000405,-0.00000517,0.00
 000066,-0.00000211,-0.00000169,-0.00001040,-0.00000652,0.00001810,0.00
 003101,0.00002261,-0.00000950,0.00015615,-0.00025442,-0.00000228,-0.00
 009483,-0.00006275,0.00007208,0.00001805,0.00006044,-0.00005740,-0.000
 06752,0.00039086,-0.00009780,-0.00002831,-0.00002822,-0.00002513,-0.00
 001350,0.00000950,-0.00002067,-0.00002316,-0.00000170,0.00008279,-0.00
 002173,-0.00001207,0.00000675,0.00001231,0.00000791,0.00000998,-0.0000
 0300,-0.00000500,0.00001780,0.00001986,-0.00001461,0.00001761,-0.00000
 104,-0.00000079,-0.00000750,0.00000729,-0.00000516,0.00001451,-0.00000
 373,-0.00000464,-0.00000430,0.00000807,-0.00000107,-0.00001522,0.00001
 811,0.00063581,-0.00045197,0.00002770,0.00118828,0.00066893,-0.0016846
 9,0.00302658,-0.00074935,-0.13276037,0.23915704,0.00000036,0.00000023,
 -0.00000177,-0.00000011,-0.00000159,0.00000303,0.00000034,-0.00000103,
 -0.00000188,0.00001195,-0.00000017,0.00000196,-0.00000186,0.00000780,0
 .00000327,-0.00001294,0.00000374,-0.00000454,0.00003876,0.00002618,0.0
 0002263,-0.00009898,0.00001091,-0.00005435,-0.00008613,-0.00003996,-0.
 00004363,0.00011487,-0.00026395,0.00062542,-0.00055603,-0.00022371,0.0
 0015373,0.00011789,-0.00018475,0.00064100,-0.00014950,0.00002052,0.000
 16962,0.00018199,0.00010575,0.00016155,-0.00002173,-0.00005343,0.00000
 146,0.00002880,-0.00000447,0.00000907,-0.00001421,-0.00001057,-0.00000
 524,0.00000580,0.00000366,0.00000473,0.00340064,-0.00239582,-0.0006170
 0,0.00310001,-0.00169438,-0.04863911,-0.01849539,0.02645127,-0.0040328
 5,-0.00078574,-0.00443596,-0.00569505,-0.00272064,0.00201397,0.0013036
 7,-0.00000018,-0.00000047,0.00000009,-0.00000152,0.00000139,-0.0000007
 3,0.00000077,0.00000071,0.00000112,0.00000081,0.00000087,-0.00000046,-
 0.00000121,-0.00000011,0.00000482,-0.00000138,0.00000337,-0.00000075,0
 .00000243,-0.00000098,-0.00000099,0.00000081,-0.00000068,-0.00000124,0
 .00000003,0.00000302,0.00000266,0.00000044,0.00000244,-0.00000034,0.00
 000056,0.00000618,0.00000872,0.00000247,0.00000233,-0.00000236,-0.0000
 0182,-0.00000368,-0.00000246,0.00001204,0.00001028,0.00000321,0.000002
 91,0.00000468,0.00000932,0.00003053,-0.00003153,0.00000845,-0.00005687
 ,-0.00009559,-0.00003148,0.00006960,0.00009318,0.00002179,-0.00041887,
 0.00031088,0.00017363,0.00001720,-0.00001018,-0.00004773,0.00004656,0.
 00002699,-0.00004834,-0.00001164,-0.00004431,0.00003712,-0.00002790,-0
 .00004521,-0.00003906,0.00003357,-0.00001461,0.00006160,0.00001008,0.0
 0001186,-0.00000839,-0.00000097,0.00000367,-0.00000287,0.00000161,-0.0
 0000269,-0.00000079,-0.00000116,-0.00000098,-0.00000004,0.00000250,0.0
 0000677,-0.00000109,-0.00000603,-0.00000277,0.00000194,0.00033657,0.00
 003057,-0.00005107,-0.00034417,0.00033139,0.00027880,0.01476662,-0.021
 54269,0.00024057,0.00012822,0.00199230,0.05273682,-0.00000100,0.000000
 34,-0.00000223,0.00000041,-0.00000179,0.00000606,-0.00000232,0.0000017
 0,-0.00000086,0.00000857,0.00000296,-0.00000088,-0.00000115,0.00000254
 ,0.00000217,-0.00000782,0.00000169,-0.00000034,0.00001168,0.00001040,-
 0.00001507,-0.00002599,-0.00003908,0.00001668,0.00001621,0.00001937,0.
 00000175,-0.00008217,-0.00000146,-0.00007175,-0.00014437,-0.00029088,-
 0.00001778,-0.00016972,0.00051557,-0.00085974,-0.00054436,-0.00122272,
 0.00044712,-0.00001481,-0.00001188,-0.00008553,-0.00006533,-0.00000584
 ,-0.00000720,0.00003809,0.00001299,-0.00001826,-0.00001870,-0.00000110
 ,0.00000021,-0.00000423,0.00001042,0.00000540,0.00109530,0.00020932,0.
 00036623,0.01178907,-0.00160420,-0.01693199,-0.14627215,0.00934328,0.1
 3036378,-0.01300214,-0.00180063,0.01300402,-0.00162940,0.00496611,-0.0
 0220645,0.00000092,-0.00000030,-0.00000010,-0.00000201,0.00000217,-0.0
 0000124,0.00000052,-0.00000114,0.00000026,0.00000110,0.00000197,-0.000
 00156,0.00000063,-0.00000173,0.00000346,-0.00000231,0.00000355,-0.0000
 0145,0.00000271,-0.00000082,-0.00000089,0.00000273,-0.00000131,-0.0000
 0269,-0.00000031,0.00000168,0.00000131,0.00000006,0.00000414,-0.000001
 63,0.00000061,-0.00000024,-0.00000097,0.00000229,0.00000188,-0.0000002
 2,0.00000953,-0.00000519,-0.00000747,0.00003982,0.00003795,-0.00002073
 ,0.00000067,-0.00000255,-0.00000767,0.00000187,0.00001267,0.00000507,0
 .00003164,0.00001189,-0.00000287,0.00000253,-0.00003018,-0.00001839,-0
 .00006605,0.00005767,-0.00007055,0.00039547,-0.00139494,0.00018170,0.0
 0021686,-0.00034442,-0.00010186,-0.00012015,0.00030788,-0.00019643,0.0
 0000630,-0.00007374,-0.00006294,0.00005165,-0.00001555,0.00016330,0.00
 005098,0.00006408,-0.00005232,-0.00000929,0.00001117,-0.00000782,0.000
 01333,-0.00001406,-0.00000550,-0.00000288,0.00000159,-0.00000406,0.000
 00308,0.00000248,-0.00000154,-0.00000071,-0.00000221,0.00000378,0.0001
 0682,0.00031997,0.00019414,-0.00015195,0.00010037,0.00024271,-0.001279
 99,-0.00013706,-0.00387810,0.00130683,-0.00018895,0.00094461,0.1606603
 5,0.,0.00000066,-0.00000222,0.00000143,0.00000010,0.00000348,0.0000014
 7,0.00000158,-0.00000161,-0.00000902,-0.00000313,-0.00000696,0.0000073
 6,-0.00000075,0.00000041,-0.00001418,0.00000351,-0.00000839,0.00002505
 ,0.00000779,0.00002873,-0.00008800,0.00007333,-0.00002031,0.00000103,-
 0.00002982,-0.00000187,0.00005246,0.00001500,-0.00000027,0.00028889,0.
 00012229,0.00026774,-0.00119473,-0.00000929,0.00198025,-0.00037879,-0.
 00229991,0.00000275,0.00016936,-0.00000590,0.00036194,0.00011592,0.000
 07161,0.00010506,-0.00006089,-0.00003593,0.00001024,0.00002728,-0.0000
 0264,0.00001430,0.00000392,-0.00001409,-0.00000935,0.00056300,0.000043
 24,-0.00060239,-0.00197468,0.00048627,0.00276248,0.01015173,-0.0544172
 4,-0.01870581,0.01612702,0.00492943,-0.02554572,0.00420099,-0.00423485
 ,0.00357465,-0.00000060,-0.00000022,0.00000111,-0.00000150,0.00000157,
 -0.00000095,0.00000017,-0.00000171,-0.00000032,-0.00000131,-0.00000160
 ,0.00000015,0.00000167,0.00000070,0.00000027,-0.00000174,0.00000027,-0
 .00000126,-0.00000185,-0.00000008,0.00000198,-0.00000239,0.00000127,0.
 00000188,-0.00000385,0.00000133,0.00000002,-0.00000243,0.00000275,-0.0
 0000217,-0.00000033,-0.00000210,-0.00000205,-0.00000103,-0.00000151,0.
 00000061,-0.00000587,0.00000825,0.00000430,-0.00003822,-0.00003897,0.0
 0002424,-0.00000914,0.00000401,0.00001024,-0.00000326,0.00000875,-0.00
 000325,-0.00004202,-0.00002911,0.00000488,-0.00000910,-0.00000356,0.00
 001772,0.00000948,0.00009873,0.00016052,-0.00115597,-0.00134509,0.0002
 0887,-0.00030854,0.00010436,0.00042570,0.00007602,-0.00012424,0.000164
 25,-0.00007242,0.00014379,0.00008423,-0.00008044,0.00002578,-0.0002118
 8,-0.00003556,-0.00008874,0.00005247,-0.00000418,0.00000388,-0.0000056
 4,-0.00001212,0.00001967,0.00000740,-0.00000184,0.00000309,-0.00000373
 ,-0.00000259,-0.00000148,0.00000305,-0.00000225,0.00000265,0.00000463,
 -0.00006906,-0.00003150,0.00011604,-0.00015849,0.00009761,-0.00010571,
 0.00065934,0.00102582,0.00076643,-0.00065075,0.00020864,0.00010560,-0.
 01157943,0.05211206,0.00000050,0.00000013,-0.00000097,0.00000129,0.000
 00034,0.00000001,0.00000130,-0.00000008,-0.00000129,0.00000016,-0.0000
 0220,-0.00000033,-0.00000010,-0.00000044,-0.00000081,0.00000510,-0.000
 00196,-0.00000377,-0.00001372,-0.00002184,0.00000747,0.00006104,0.0000
 0650,-0.00003558,-0.00002009,-0.00001601,-0.00000795,0.00005147,-0.000
 01345,-0.00003305,-0.00030059,-0.00014019,-0.00023516,0.00060259,-0.00
 066679,-0.00052748,0.00161763,0.00106291,0.00008121,-0.00013209,-0.000
 10348,-0.00004645,0.00002480,0.00005064,-0.00002595,-0.00000489,-0.000
 00688,0.00000215,0.00000325,0.00000275,-0.00000201,0.00000866,-0.00001
 064,-0.00000244,0.00111847,0.00035434,0.00107388,0.01746159,-0.0014721
 1,-0.02596883,0.12684210,-0.01582336,-0.19895575,-0.00171176,0.0001270
 4,0.00302298,-0.00086847,0.00033266,-0.00122935,-0.00000099,-0.0000002
 3,0.00000070,-0.00000013,0.00000026,0.00000015,0.00000011,0.00000012,-
 0.00000006,-0.00000109,-0.00000151,0.00000085,0.00000027,0.00000106,0.
 00000074,-0.00000018,0.00000006,-0.00000004,-0.00000108,-0.00000028,0.
 00000099,-0.00000267,0.00000080,0.00000194,-0.00000080,0.00000101,0.00
 000107,0.00000017,-0.00000115,0.00000054,-0.00000002,0.00000095,0.0000
 0239,-0.00000222,-0.00000175,0.00000060,-0.00001119,0.00000662,0.00000
 578,-0.00002676,-0.00003545,0.00002450,-0.00000785,0.00000681,0.000012
 20,0.00000530,-0.00000996,-0.00000017,-0.00004873,-0.00003913,0.000005
 67,-0.00000190,-0.00002531,0.00002161,-0.00008301,0.00018499,0.0001262
 0,-0.00063974,0.00083964,0.00030064,-0.00027259,0.00047736,-0.00010034
 ,-0.00008180,-0.00004314,-0.00000910,-0.00003880,0.00004330,0.00003407
 ,-0.00001856,-0.00001448,0.00000427,-0.00000851,-0.00001923,0.00003535
 ,-0.00000010,0.00000160,-0.00000008,-0.00000896,0.00000684,0.00000498,
 -0.00000142,0.00000119,0.00000057,-0.00000125,0.00000069,0.00000028,-0
 .00000231,0.00000081,0.00000262,-0.00016346,0.00023707,0.00033658,-0.0
 0073275,-0.00057928,0.00017111,-0.00415627,0.00000671,-0.00423497,0.00
 035594,0.00035256,0.00180571,-0.13745760,0.01387922,0.22241921,0.00000
 017,-0.00000012,0.00000174,-0.00000115,0.00000073,-0.00000341,-0.00000
 015,-0.00000043,0.00000088,0.00000087,0.00000053,0.00000340,0.00000219
 ,0.00001050,0.00000448,-0.00002809,0.00001391,-0.00000492,0.00008345,0
 .00008054,0.00003640,-0.00023418,0.00015304,-0.00004878,-0.00006723,-0
 .00000668,-0.00002285,0.00010496,-0.00006368,0.00005129,-0.00026131,0.
 00020330,-0.00013443,-0.00212318,0.00228502,-0.00003882,-0.00046462,0.
 00003586,0.00007588,0.00071982,0.00066826,0.00007283,0.00003923,-0.000
 02867,0.00007639,-0.00000546,0.00000020,-0.00001534,0.00000800,-0.0000
 1216,0.00000237,-0.00000398,0.00000439,0.00000101,-0.00050571,0.001780
 73,-0.00351703,-0.01019349,-0.01230784,0.00030791,-0.16703286,-0.13624
 653,-0.00576678,0.01074700,0.01530180,0.00082523,0.00192520,-0.0006785
 5,-0.00009923,0.00000006,0.00000035,-0.00000067,0.00000154,-0.00000184
 ,0.00000116,-0.00000041,0.00000089,-0.00000021,0.00000030,0.00000033,0
 .00000027,-0.00000076,0.00000004,-0.00000201,0.00000169,-0.00000198,0.
 00000147,-0.00000042,0.00000062,-0.00000059,0.00000026,-0.00000030,-0.
 00000028,-0.00000004,0.00000056,-0.00000187,-0.00000148,-0.00000013,0.
 00000092,-0.00000045,0.00000480,0.00000711,0.00000209,0.00000079,-0.00
 000272,0.00000123,-0.00000608,0.00000046,0.00002004,0.00001905,-0.0000
 1267,0.00000923,-0.00000511,0.00000227,0.00001796,-0.00003423,0.000012
 30,0.00000253,0.00000540,0.00000129,0.00003508,0.00004739,0.00003519,0
 .00004797,-0.00005813,0.00000403,0.00030771,-0.00016758,-0.00005492,0.
 00012664,-0.00010360,-0.00003581,0.00003317,-0.00000397,0.00001089,0.0
 0003373,-0.00004693,0.00001600,0.00000530,-0.00001167,-0.00001567,-0.0
 0000210,0.00001068,-0.00002106,-0.00000136,0.00000175,0.00000311,0.000
 00131,-0.00000067,-0.00000038,0.00000245,-0.00000115,0.00000212,-0.000
 00034,-0.00000066,-0.00000045,0.00000171,-0.00000122,-0.00000292,-0.00
 045439,-0.00106841,-0.00024371,0.00025578,0.00031171,0.00014574,0.0011
 1916,0.00031676,0.00015085,-0.00009272,0.00023085,0.00040463,-0.012247
 34,-0.01450502,-0.00133731,0.17806542,-0.00000033,-0.00000392,0.000011
 47,-0.00000131,0.00000389,-0.00002019,-0.00000273,-0.00000647,0.000009
 36,-0.00001037,-0.00000382,0.00001947,-0.00001872,-0.00002088,-0.00001
 193,0.00010169,-0.00003006,0.00002883,-0.00025454,-0.00012488,-0.00007
 498,0.00065433,-0.00029878,0.00004824,0.00002708,0.00003991,0.00008125
 ,-0.00000804,0.00010518,-0.00006371,0.00038789,0.00025184,0.00057197,0
 .00479515,-0.00300965,0.00042979,0.00047992,0.00021398,-0.00040936,-0.
 00163080,-0.00082492,-0.00017557,-0.00008776,-0.00004340,-0.00020849,0
 .00001856,0.00002993,0.00007336,-0.00001400,0.00002071,-0.00003921,0.0
 0000282,0.00000927,0.00000815,0.00050936,0.00069133,0.00060097,0.00279
 629,0.00348154,-0.00057791,-0.13085057,-0.19960908,-0.00858038,-0.0229
 7272,-0.02702507,-0.00086369,-0.00027758,0.00609837,0.00004646,0.00000
 133,0.00000180,-0.00000304,0.00000740,-0.00000721,0.00000378,-0.000001
 52,0.00000481,-0.00000046,0.00000157,0.00000030,0.00000178,-0.00000215
 ,0.00000021,-0.00000977,0.00000787,-0.00000742,0.00000492,-0.00000063,
 0.00000253,-0.00000321,0.00000320,0.00000138,-0.00000102,0.00001073,-0
 .00001100,-0.00000390,0.00000886,-0.00001644,0.00000763,-0.00000199,-0
 .00000386,-0.00000667,-0.00000413,0.00000023,0.00000267,0.00000709,0.0
 0000432,-0.00000633,-0.00002221,0.00001050,0.00001429,0.00000760,0.000
 00804,-0.00001751,-0.00002292,-0.00001264,-0.00002747,0.00000948,-0.00
 000534,0.00001608,-0.00005555,-0.00002427,-0.00006339,0.00000317,-0.00
 000208,-0.00013067,-0.00009960,0.00010906,0.00002578,-0.00010493,0.000
 06958,0.00003737,-0.00001678,-0.00000445,0.00008725,0.00005830,-0.0000
 1033,-0.00008500,0.00003483,0.00002087,0.00008551,0.00001087,0.0000172
 3,0.00002227,0.00003368,-0.00003519,0.00002232,0.00000450,-0.00001094,
 -0.00001559,0.00000599,-0.00000665,0.00001435,-0.00000200,-0.00000444,
 -0.00000363,0.00000876,-0.00000040,-0.00001550,0.00004778,0.00022771,0
 .00018134,-0.00003218,-0.00006044,0.00001468,0.00000263,0.00026402,-0.
 00041110,-0.00015889,0.00027379,-0.00048624,0.00273361,0.00309369,0.00
 106331,0.14387255,0.21616808,-0.00000070,-0.00000055,-0.00000036,0.000
 00206,-0.00000014,0.00000077,-0.00000064,-0.00000051,-0.00000052,0.000
 00234,-0.00000357,0.00000415,0.00000054,0.00000591,0.00000249,-0.00001
 025,0.00000385,-0.00000604,0.00002357,0.00001456,0.00005116,-0.0000733
 4,0.00003133,-0.00007029,-0.00006904,-0.00001335,0.00000663,0.00019551
 ,-0.00012631,0.00005136,-0.00016340,0.00078597,-0.00011172,-0.00007291
 ,0.00032979,0.00101727,0.00038913,0.00013294,0.00018714,0.00013900,0.0
 0007139,0.00021222,0.00003954,0.00000910,-0.00001128,-0.00000364,-0.00
 001348,0.00001737,0.00000518,-0.00000879,-0.00000676,0.00000703,-0.000
 00462,-0.00000009,-0.00236513,0.00192345,-0.00504059,-0.01861876,-0.02
 316007,-0.00137885,-0.00544421,-0.00855714,-0.05055861,0.00139601,0.00
 097081,-0.00029339,0.00011346,-0.00003748,-0.00127482,0.00000017,0.000
 00004,0.00000006,-0.00000049,0.00000069,-0.00000039,0.00000027,0.00000
 004,0.00000022,0.00000001,-0.00000015,-0.00000033,0.00000067,0.0000000
 9,0.00000154,-0.00000065,0.00000147,-0.00000032,0.00000064,-0.00000010
 ,0.00000017,0.00000062,0.00000075,-0.00000028,-0.00000032,0.00000072,0
 .00000070,0.00000007,0.00000087,-0.00000034,-0.00000123,0.00000371,0.0
 0000661,0.00000146,0.00000134,-0.00000256,-0.00000375,0.00000333,-0.00
 000074,-0.00001339,-0.00001773,0.00001375,0.00000507,-0.00000075,0.000
 00453,0.00001929,-0.00003363,0.00000493,-0.00003026,-0.00000443,-0.000
 00164,0.00004950,0.00005608,0.00009517,0.00007885,-0.00003538,0.000001
 98,-0.00045919,0.00013840,-0.00003312,-0.00020062,0.00022165,-0.000005
 68,-0.00000308,-0.00010150,0.00003275,-0.00003898,0.00003153,0.0000090
 9,0.00000019,-0.00000531,0.00001380,-0.00000233,-0.00000729,0.00001565
 ,0.00000009,0.00000370,-0.00000387,-0.00000198,0.00000410,0.00000082,-
 0.00000132,0.00000112,-0.00000019,-0.00000020,0.00000329,-0.00000035,-
 0.00000307,-0.00000139,0.00000221,-0.00106587,-0.00145356,-0.00023292,
 -0.00027350,-0.00003035,0.00006706,0.00076990,-0.00042846,0.00117134,0
 .00038595,0.00042877,0.00083808,0.01617090,0.02008401,0.00191289,0.009
 12524,0.00878124,0.05329215\\0.00000707,-0.00000704,0.00000418,-0.0000
 1013,-0.00000525,-0.00000916,0.00001655,0.00000681,0.00002271,-0.00000
 235,-0.00003039,0.00000803,0.00001108,0.00000499,0.00000517,-0.0000273
 4,-0.00002391,-0.00000100,-0.00000595,0.00001700,-0.00002684,-0.000007
 70,0.00006070,0.00001849,-0.00002488,0.00000184,-0.00002965,-0.0000185
 6,0.00001145,0.00000316,0.00004747,-0.00001205,0.00000923,0.00001373,-
 0.00004467,-0.00001879,0.00000091,-0.00001004,0.00001100,0.00001214,-0
 .00002086,-0.00000118,-0.00000266,0.00003242,0.00001383,0.00002547,-0.
 00000578,-0.00001981,0.00001210,-0.00003485,-0.00001905,0.00002027,-0.
 00000144,-0.00000171,-0.00003816,-0.00002287,0.00000308,0.00002102,0.0
 0000555,-0.00000184,-0.00000301,0.00004004,-0.00000122,-0.00003876,-0.
 00000619,-0.00000007,0.00004352,0.00006543,-0.00000794,-0.00001042,0.0
 0000723,0.00000769,-0.00000513,-0.00000195,0.00000301,-0.00001099,0.00
 001194,0.00000226,0.00000847,-0.00000080,0.00000197,-0.00000829,-0.000
 01297,0.00000212,-0.00000826,-0.00000144,-0.00000706,-0.00001179,-0.00
 000362,0.00000388,-0.00001936,0.00000151,0.00000961,-0.00000678,0.0000
 0063,-0.00000444,0.00000064,0.00000452,-0.00000639,0.00000717,0.000002
 58,0.00000660,0.00000914,-0.00000507,0.00000296,0.00001020,-0.00002408
 ,-0.00000276,-0.00001862,0.00001767,0.00002026,-0.00000605,0.00000840,
 0.00000331,0.00001041,-0.00000942,0.00000516,0.00000403,-0.00000113,-0
 .00000262,0.00000762,-0.00000198,0.00000286,0.00000051,-0.00000434,0.0
 0000287,0.00001432,-0.00001759,-0.00002630,0.00000023,0.00000531,-0.00
 000016,0.00000004,0.00000171,0.00000071,-0.00001344,0.00002196,-0.0000
 0009,-0.00001676,-0.00000073,-0.00000589,-0.00000089,-0.00003104,-0.00
 000797,-0.00000980,0.00000878,-0.00000537,0.00000565,0.00000736,0.0000
 0063,-0.00000161,-0.00000186,-0.00000587,0.00000749,-0.00000139,-0.000
 00908,0.00000346,-0.00000201,0.00001800,0.00000402,-0.00000079,0.00000
 304,0.00000258,0.00000671,0.00001492,0.00000039,-0.00000099,0.00000674
 ,0.00000265,-0.00000404,0.00000667,0.00000337,-0.00000548,-0.00000740,
 -0.00000605,0.00000552,0.00000549\\\@


 THE REAL VOYAGE OF DISCOVERY CONSISTS NOT IN SEEKING NEW LANDSCAPES 
 BUT IN HAVING NEW EYES.
                                                    -- MARCEL PROUST
 Job cpu time:       0 days  0 hours 18 minutes 26.7 seconds.
 Elapsed time:       0 days  0 hours 20 minutes 53.2 seconds.
 File lengths (MBytes):  RWF=   1168 Int=      0 D2E=      0 Chk=     16 Scr=      1
 Normal termination of Gaussian 16 at Fri Feb 23 20:05:43 2024.
