 Entering Gaussian System, Link 0=g16
 Input=/Volumes/SSD-PMU3/b3lyp_6-31gd_freq/QEFQFXJSYXZRFH-YNFQOJQRSA-N_calculating/gaussianinput0.gjf
 Output=/Volumes/SSD-PMU3/b3lyp_6-31gd_freq/QEFQFXJSYXZRFH-YNFQOJQRSA-N_calculating/gaussianinput0.log
 Initial command:
 /Applications/g16/l1.exe "/Users/macmini_m1_2022/PycharmProjects/sphere_model/sphere_model_lib/Gau-62966.inp" -scrdir="/Users/macmini_m1_2022/PycharmProjects/sphere_model/sphere_model_lib/"
 Entering Link 1 = /Applications/g16/l1.exe PID=     62967.
  
 Copyright (c) 1988,1990,1992,1993,1995,1998,2003,2009,2016,
            Gaussian, Inc.  All Rights Reserved.
  
 This is part of the Gaussian(R) 16 program.  It is based on
 the Gaussian(R) 09 system (copyright 2009, Gaussian, Inc.),
 the Gaussian(R) 03 system (copyright 2003, Gaussian, Inc.),
 the Gaussian(R) 98 system (copyright 1998, Gaussian, Inc.),
 the Gaussian(R) 94 system (copyright 1995, Gaussian, Inc.),
 the Gaussian 92(TM) system (copyright 1992, Gaussian, Inc.),
 the Gaussian 90(TM) system (copyright 1990, Gaussian, Inc.),
 the Gaussian 88(TM) system (copyright 1988, Gaussian, Inc.),
 the Gaussian 86(TM) system (copyright 1986, Carnegie Mellon
 University), and the Gaussian 82(TM) system (copyright 1983,
 Carnegie Mellon University). Gaussian is a federally registered
 trademark of Gaussian, Inc.
  
 This software contains proprietary and confidential information,
 including trade secrets, belonging to Gaussian, Inc.
  
 This software is provided under written license and may be
 used, copied, transmitted, or stored only in accord with that
 written license.
  
 The following legend is applicable only to US Government
 contracts under FAR:
  
                    RESTRICTED RIGHTS LEGEND
  
 Use, reproduction and disclosure by the US Government is
 subject to restrictions as set forth in subparagraphs (a)
 and (c) of the Commercial Computer Software - Restricted
 Rights clause in FAR 52.227-19.
  
 Gaussian, Inc.
 340 Quinnipiac St., Bldg. 40, Wallingford CT 06492
  
  
 ---------------------------------------------------------------
 Warning -- This program may not be used in any manner that
 competes with the business of Gaussian, Inc. or will provide
 assistance to any competitor of Gaussian, Inc.  The licensee
 of this program is prohibited from giving any competitor of
 Gaussian, Inc. access to this program.  By using this program,
 the user acknowledges that Gaussian, Inc. is engaged in the
 business of creating and licensing software in the field of
 computational chemistry and represents and warrants to the
 licensee that it is not a competitor of Gaussian, Inc. and that
 it will not use this program in any manner prohibited above.
 ---------------------------------------------------------------
  

 Cite this work as:
 Gaussian 16, Revision A.03,
 M. J. Frisch, G. W. Trucks, H. B. Schlegel, G. E. Scuseria, 
 M. A. Robb, J. R. Cheeseman, G. Scalmani, V. Barone, 
 G. A. Petersson, H. Nakatsuji, X. Li, M. Caricato, A. V. Marenich, 
 J. Bloino, B. G. Janesko, R. Gomperts, B. Mennucci, H. P. Hratchian, 
 J. V. Ortiz, A. F. Izmaylov, J. L. Sonnenberg, D. Williams-Young, 
 F. Ding, F. Lipparini, F. Egidi, J. Goings, B. Peng, A. Petrone, 
 T. Henderson, D. Ranasinghe, V. G. Zakrzewski, J. Gao, N. Rega, 
 G. Zheng, W. Liang, M. Hada, M. Ehara, K. Toyota, R. Fukuda, 
 J. Hasegawa, M. Ishida, T. Nakajima, Y. Honda, O. Kitao, H. Nakai, 
 T. Vreven, K. Throssell, J. A. Montgomery, Jr., J. E. Peralta, 
 F. Ogliaro, M. J. Bearpark, J. J. Heyd, E. N. Brothers, K. N. Kudin, 
 V. N. Staroverov, T. A. Keith, R. Kobayashi, J. Normand, 
 K. Raghavachari, A. P. Rendell, J. C. Burant, S. S. Iyengar, 
 J. Tomasi, M. Cossi, J. M. Millam, M. Klene, C. Adamo, R. Cammi, 
 J. W. Ochterski, R. L. Martin, K. Morokuma, O. Farkas, 
 J. B. Foresman, and D. J. Fox, Gaussian, Inc., Wallingford CT, 2016.
 
 ******************************************
 Gaussian 16:  EM64M-G16RevA.03 25-Dec-2016
                22-Feb-2024 
 ******************************************
 %nprocshared=8
 Will use up to    8 processors via shared memory.
 %mem=8GB
 %chk= 0.chk
 ---------------------
 # freq b3lyp/6-31g(d)
 ---------------------
 1/10=4,30=1,38=1/1,3;
 2/12=2,17=6,18=5,40=1/2;
 3/5=1,6=6,7=1,11=2,25=1,30=1,71=2,74=-5,140=1/1,2,3;
 4//1;
 5/5=2,38=5,98=1/2;
 8/6=4,10=90,11=11/1;
 11/6=1,8=1,9=11,15=111,16=1/1,2,10;
 10/6=1/2;
 6/7=2,8=2,9=2,10=2,28=1/1;
 7/8=1,10=1,25=1/1,2,3,16;
 1/10=4,30=1/3;
 99//99;
 ---------
 good luck
 ---------
 Symbolic Z-matrix:
 Charge =  0 Multiplicity = 1
 O                     1.2079    0.        0. 
 C                     0.        0.        0. 
 C                    -1.00602  -1.15626  -0.01439 
 C                    -1.76979  -0.79913  -1.32685 
 C                    -3.12651  -1.49549  -1.51779 
 C                    -3.02209  -3.02528  -1.54442 
 C                    -1.76979   0.79913  -1.32685 
 C                    -3.1265    1.49549  -1.51779 
 C                    -3.02208   3.02528  -1.54442 
 C                    -1.00602   1.15626  -0.01439 
 C                    -1.84513   0.78608   1.23213 
 C                    -1.84513  -0.78608   1.23213 
 H                    -0.56342  -2.15303   0.00183 
 H                    -1.13436  -1.12637  -2.16129 
 H                    -3.837    -1.19359  -0.73867 
 H                    -3.56164  -1.15467  -2.46599 
 H                    -2.67161  -3.4251   -0.58615 
 H                    -2.32113  -3.36101  -2.3187 
 H                    -3.99585  -3.48081  -1.75672 
 H                    -1.13435   1.12637  -2.16129 
 H                    -3.837     1.1936   -0.73868 
 H                    -3.56163   1.15467  -2.466 
 H                    -3.99584   3.48081  -1.75673 
 H                    -2.67161   3.4251   -0.58616 
 H                    -2.32113   3.36101  -2.31871 
 H                    -0.56342   2.15303   0.00183 
 H                    -2.8556    1.20269   1.19687 
 H                    -1.36873   1.17716   2.13735 
 H                    -2.8556   -1.20269   1.19687 
 H                    -1.36873  -1.17716   2.13735 
 

 GradGradGradGradGradGradGradGradGradGradGradGradGradGradGradGradGradGrad
 Berny optimization.
 Initialization pass.
 Trust Radius=3.00D-01 FncErr=1.00D-07 GrdErr=1.00D-07 EigMax=2.50D+02 EigMin=1.00D-04
 Number of steps in this run=      2 maximum allowed number of steps=      2.
 GradGradGradGradGradGradGradGradGradGradGradGradGradGradGradGradGradGrad

                          Input orientation:                          
 ---------------------------------------------------------------------
 Center     Atomic      Atomic             Coordinates (Angstroms)
 Number     Number       Type             X           Y           Z
 ---------------------------------------------------------------------
      1          8           0        1.207901    0.000000    0.000000
      2          6           0        0.000000    0.000000    0.000000
      3          6           0       -1.006020   -1.156256   -0.014388
      4          6           0       -1.769787   -0.799129   -1.326852
      5          6           0       -3.126507   -1.495492   -1.517789
      6          6           0       -3.022087   -3.025282   -1.544418
      7          6           0       -1.769786    0.799129   -1.326853
      8          6           0       -3.126504    1.495494   -1.517792
      9          6           0       -3.022081    3.025284   -1.544422
     10          6           0       -1.006020    1.156256   -0.014388
     11          6           0       -1.845132    0.786075    1.232127
     12          6           0       -1.845132   -0.786075    1.232127
     13          1           0       -0.563415   -2.153034    0.001828
     14          1           0       -1.134355   -1.126372   -2.161292
     15          1           0       -3.837004   -1.193591   -0.738674
     16          1           0       -3.561636   -1.154666   -2.465992
     17          1           0       -2.671612   -3.425097   -0.586154
     18          1           0       -2.321135   -3.361007   -2.318704
     19          1           0       -3.995850   -3.480807   -1.756724
     20          1           0       -1.134352    1.126370   -2.161292
     21          1           0       -3.837003    1.193595   -0.738677
     22          1           0       -3.561633    1.154668   -2.465995
     23          1           0       -3.995843    3.480810   -1.756730
     24          1           0       -2.671607    3.425098   -0.586157
     25          1           0       -2.321127    3.361007   -2.318707
     26          1           0       -0.563415    2.153034    0.001828
     27          1           0       -2.855599    1.202686    1.196868
     28          1           0       -1.368727    1.177161    2.137347
     29          1           0       -2.855598   -1.202687    1.196870
     30          1           0       -1.368726   -1.177160    2.137348
 ---------------------------------------------------------------------
                    Distance matrix (angstroms):
                    1          2          3          4          5
     1  O    0.000000
     2  C    1.207901   0.000000
     3  C    2.497715   1.532714   0.000000
     4  C    3.356452   2.351869   1.559949   0.000000
     5  C    4.829832   3.783547   2.621404   1.536902   0.000000
     6  C    5.424975   4.546490   3.146232   2.563464   1.533581
     7  C    3.356451   2.351869   2.475769   1.598258   2.672533
     8  C    4.829830   3.783546   3.713281   2.672533   2.990986
     9  C    5.424973   4.546488   4.887820   4.030101   4.522060
    10  C    2.497715   1.532714   2.312512   2.475769   3.713280
    11  C    3.384828   2.353840   2.455720   3.011133   3.795986
    12  C    3.384828   2.353840   1.547560   2.560121   3.115643
    13  H    2.788031   2.225533   1.090747   2.248062   3.051399
    14  H    3.380246   2.688244   2.150944   1.098705   2.125798
    15  H    5.236541   4.085694   2.922406   2.185164   1.096800
    16  H    5.492072   4.483260   3.541403   2.152851   1.097537
    17  H    5.208213   4.383193   2.872064   2.873609   2.190491
    18  H    5.396930   4.696853   3.449685   2.801959   2.184087
    19  H    6.502393   5.582913   4.168735   3.511630   2.180441
    20  H    3.380243   2.688242   3.136247   2.192627   3.355136
    21  H    5.236542   4.085695   3.749781   2.930918   2.888427
    22  H    5.492071   4.483260   4.228700   2.885426   2.848118
    23  H    6.502391   5.582911   5.785947   4.843346   5.057313
    24  H    5.208211   4.383191   4.908147   4.382465   5.028626
    25  H    5.396926   4.696850   5.238803   4.312132   4.987553
    26  H    2.788031   2.225533   3.338797   3.454850   4.710671
    27  H    4.403519   3.321655   3.233062   3.399325   3.837046
    28  H    3.548658   2.797744   3.194739   4.008397   4.857251
    29  H    4.403519   3.321655   2.211389   2.776872   2.743811
    30  H    3.548657   2.797744   2.182192   3.507768   4.068311
                    6          7          8          9         10
     6  C    0.000000
     7  C    4.030101   0.000000
     8  C    4.522060   1.536901   0.000000
     9  C    6.050566   2.563464   1.533581   0.000000
    10  C    4.887819   1.559950   2.621404   3.146231   0.000000
    11  C    4.860130   2.560122   3.115645   3.756127   1.547560
    12  C    3.756125   3.011134   3.795988   4.860133   2.455720
    13  H    3.032616   3.454850   4.710672   5.937247   3.338797
    14  H    2.747713   2.192627   3.355135   4.602204   3.136249
    15  H    2.160649   2.930918   2.888427   4.371754   3.749779
    16  H    2.153977   2.885425   2.848117   4.314208   4.228699
    17  H    1.095881   4.382466   5.028627   6.530584   4.908147
    18  H    1.097071   4.312132   4.987553   6.471132   5.238804
    19  H    1.095806   4.843346   5.057314   6.581984   5.785946
    20  H    4.602205   1.098704   2.125797   2.747712   2.150944
    21  H    4.371754   2.185164   1.096801   2.160650   2.922405
    22  H    4.314209   2.152851   1.097537   2.153977   3.541403
    23  H    6.581984   3.511629   2.180441   1.095806   4.168735
    24  H    6.530582   2.873608   2.190490   1.095881   2.872063
    25  H    6.471132   2.801958   2.184087   1.097071   3.449684
    26  H    5.937247   2.248062   3.051398   3.032614   1.090747
    27  H    5.041635   2.776872   2.743812   3.296096   2.211389
    28  H    5.826622   3.507768   4.068311   4.438982   2.182191
    29  H    3.296093   3.399328   3.837051   5.041640   3.233063
    30  H    4.438982   4.008398   4.857253   5.826624   3.194738
                   11         12         13         14         15
    11  C    0.000000
    12  C    1.572150   0.000000
    13  H    3.434355   2.241654   0.000000
    14  H    3.959539   3.483719   2.461523   0.000000
    15  H    3.430844   2.831551   3.490739   3.054942   0.000000
    16  H    4.515412   4.093694   4.009514   2.446495   1.749563
    17  H    4.660814   3.309630   2.531474   3.182508   2.522106
    18  H    5.480262   4.411945   3.151769   2.535117   3.080916
    19  H    5.636054   4.562938   4.078860   3.727626   2.508588
    20  H    3.483719   3.959539   3.969830   2.252742   3.835412
    21  H    2.831553   3.430847   4.739689   3.835412   2.387186
    22  H    4.093695   4.515414   5.101015   3.344797   2.928103
    23  H    4.562940   5.636056   6.827466   5.438558   4.786616
    24  H    3.309631   4.660815   5.992141   5.055697   4.765889
    25  H    4.411946   5.480263   6.235309   4.644327   5.053588
    26  H    2.241654   3.434355   4.306068   3.969832   4.739686
    27  H    1.093550   2.231022   4.235928   4.434459   3.232897
    28  H    1.095141   2.213748   4.037223   4.882570   4.470386
    29  H    2.231022   1.093549   2.754158   3.774355   2.170155
    30  H    2.213748   1.095142   2.482197   4.305324   3.790009
                   16         17         18         19         20
    16  H    0.000000
    17  H    3.079089   0.000000
    18  H    2.535444   1.768805   0.000000
    19  H    2.470331   1.768317   1.770549   0.000000
    20  H    3.344798   5.055698   4.644328   5.438559   0.000000
    21  H    2.928101   4.765891   5.053587   4.786615   3.054943
    22  H    2.309334   5.029929   4.685280   4.709484   2.446495
    23  H    4.709483   7.128491   7.066182   6.961617   3.727625
    24  H    5.029927   6.850195   7.012544   7.128490   3.182507
    25  H    4.685281   7.012545   6.722014   7.066183   2.535117
    26  H    5.101014   5.992142   6.235310   6.827465   2.461523
    27  H    4.412725   4.962801   5.785516   5.653228   3.774355
    28  H    5.606871   5.504157   6.431053   6.615303   4.305323
    29  H    3.730597   2.855194   4.159718   3.900477   4.434461
    30  H    5.099029   3.764066   5.052986   5.231861   4.882570
                   21         22         23         24         25
    21  H    0.000000
    22  H    1.749563   0.000000
    23  H    2.508588   2.470330   0.000000
    24  H    2.522105   3.079089   1.768317   0.000000
    25  H    3.080917   2.535445   1.770549   1.768806   0.000000
    26  H    3.490738   4.009513   4.078857   2.531471   3.151767
    27  H    2.170155   3.730597   3.900480   2.855196   4.159721
    28  H    3.790009   5.099029   5.231861   3.764066   5.052986
    29  H    3.232904   4.412730   5.653234   4.962805   5.785520
    30  H    4.470390   5.606873   6.615306   5.504158   6.431054
                   26         27         28         29         30
    26  H    0.000000
    27  H    2.754159   0.000000
    28  H    2.482196   1.759529   0.000000
    29  H    4.235929   2.405373   2.959554   0.000000
    30  H    4.037222   2.959554   2.354321   1.759528   0.000000
 Stoichiometry    C11H18O
 Framework group  C1[X(C11H18O)]
 Deg. of freedom    84
 Full point group                 C1      NOp   1
 Largest Abelian subgroup         C1      NOp   1
 Largest concise Abelian subgroup C1      NOp   1
                         Standard orientation:                         
 ---------------------------------------------------------------------
 Center     Atomic      Atomic             Coordinates (Angstroms)
 Number     Number       Type             X           Y           Z
 ---------------------------------------------------------------------
      1          8           0       -0.000003    2.790083   -1.218006
      2          6           0       -0.000002    1.790654   -0.539650
      3          6           0        1.156256    0.950184    0.013424
      4          6           0        0.799129   -0.418842   -0.643590
      5          6           0        1.495494   -1.648635   -0.039642
      6          6           0        3.025283   -1.577191   -0.120319
      7          6           0       -0.799129   -0.418843   -0.643589
      8          6           0       -1.495492   -1.648636   -0.039642
      9          6           0       -3.025283   -1.577192   -0.120318
     10          6           0       -1.156256    0.950183    0.013427
     11          6           0       -0.786073    0.955935    1.516049
     12          6           0        0.786077    0.955936    1.516047
     13          1           0        2.153033    1.325508   -0.221727
     14          1           0        1.126370   -0.361700   -1.690872
     15          1           0        1.193594   -1.798957    1.004020
     16          1           0        1.154667   -2.541175   -0.579825
     17          1           0        3.425099   -0.749044    0.475731
     18          1           0        3.361007   -1.432054   -1.154625
     19          1           0        3.480810   -2.502122    0.250881
     20          1           0       -1.126372   -0.361699   -1.690871
     21          1           0       -1.193592   -1.798960    1.004020
     22          1           0       -1.154667   -2.541176   -0.579827
     23          1           0       -3.480807   -2.502125    0.250881
     24          1           0       -3.425096   -0.749046    0.475735
     25          1           0       -3.361007   -1.432054   -1.154623
     26          1           0       -2.153035    1.325505   -0.221721
     27          1           0       -1.202683    0.100064    2.054353
     28          1           0       -1.177159    1.858488    1.997489
     29          1           0        1.202690    0.100067    2.054351
     30          1           0        1.177162    1.858491    1.997486
 ---------------------------------------------------------------------
 Rotational constants (GHZ):           1.0026108           0.9183899           0.6216709
 Standard basis: 6-31G(d) (6D, 7F)
 There are   216 symmetry adapted cartesian basis functions of A   symmetry.
 There are   216 symmetry adapted basis functions of A   symmetry.
   216 basis functions,   408 primitive gaussians,   216 cartesian basis functions
    46 alpha electrons       46 beta electrons
       nuclear repulsion energy       761.2026938110 Hartrees.
 NAtoms=   30 NActive=   30 NUniq=   30 SFac= 1.00D+00 NAtFMM=   60 NAOKFM=F Big=F
 Integral buffers will be    131072 words long.
 Raffenetti 2 integral format.
 Two-electron integral symmetry is turned on.
 One-electron integrals computed using PRISM.
 NBasis=   216 RedAO= T EigKep=  1.22D-03  NBF=   216
 NBsUse=   216 1.00D-06 EigRej= -1.00D+00 NBFU=   216
 ExpMin= 1.61D-01 ExpMax= 5.48D+03 ExpMxC= 8.25D+02 IAcc=3 IRadAn=         5 AccDes= 0.00D+00
 Harris functional with IExCor=  402 and IRadAn=       5 diagonalized for initial guess.
 HarFok:  IExCor=  402 AccDes= 0.00D+00 IRadAn=         5 IDoV= 1 UseB2=F ITyADJ=14
 ICtDFT=  3500011 ScaDFX=  1.000000  1.000000  1.000000  1.000000
 FoFCou: FMM=F IPFlag=           0 FMFlag=      100000 FMFlg1=           0
         NFxFlg=           0 DoJE=T BraDBF=F KetDBF=T FulRan=T
         wScrn=  0.000000 ICntrl=       500 IOpCl=  0 I1Cent=   200000004 NGrid=           0
         NMat0=    1 NMatS0=      1 NMatT0=    0 NMatD0=    1 NMtDS0=    0 NMtDT0=    0
 Petite list used in FoFCou.
 Requested convergence on RMS density matrix=1.00D-08 within 128 cycles.
 Requested convergence on MAX density matrix=1.00D-06.
 Requested convergence on             energy=1.00D-06.
 No special actions if energy rises.
 Integral accuracy reduced to 1.0D-05 until final iterations.
 Initial convergence to 1.0D-05 achieved.  Increase integral accuracy.
 SCF Done:  E(RB3LYP) =  -505.223005369     A.U. after   13 cycles
            NFock= 13  Conv=0.88D-08     -V/T= 2.0097
 DoSCS=F DFT=T ScalE2(SS,OS)=  1.000000  1.000000
 Range of M.O.s used for correlation:     1   216
 NBasis=   216 NAE=    46 NBE=    46 NFC=     0 NFV=     0
 NROrb=    216 NOA=    46 NOB=    46 NVA=   170 NVB=   170
 Symmetrizing basis deriv contribution to polar:
 IMax=3 JMax=2 DiffMx= 0.00D+00
 G2DrvN: will do    31 centers at a time, making    1 passes.
 Calling FoFCou, ICntrl=  3107 FMM=F I1Cent=   0 AccDes= 0.00D+00.
 End of G2Drv F.D. properties file   721 does not exist.
 End of G2Drv F.D. properties file   722 does not exist.
 End of G2Drv F.D. properties file   788 does not exist.
          IDoAtm=111111111111111111111111111111
          Differentiating once with respect to electric field.
                with respect to dipole field.
          Differentiating once with respect to nuclear coordinates.
 Keep R1 ints in memory in canonical form, NReq=283015007.
          There are    93 degrees of freedom in the 1st order CPHF.  IDoFFX=6 NUNeed=     3.
     90 vectors produced by pass  0 Test12= 8.41D-15 1.08D-09 XBig12= 7.84D+01 3.15D+00.
 AX will form    90 AO Fock derivatives at one time.
     90 vectors produced by pass  1 Test12= 8.41D-15 1.08D-09 XBig12= 9.00D+00 7.61D-01.
     90 vectors produced by pass  2 Test12= 8.41D-15 1.08D-09 XBig12= 1.14D-01 3.42D-02.
     90 vectors produced by pass  3 Test12= 8.41D-15 1.08D-09 XBig12= 6.50D-04 3.35D-03.
     90 vectors produced by pass  4 Test12= 8.41D-15 1.08D-09 XBig12= 7.08D-07 9.39D-05.
     46 vectors produced by pass  5 Test12= 8.41D-15 1.08D-09 XBig12= 4.46D-10 1.79D-06.
      4 vectors produced by pass  6 Test12= 8.41D-15 1.08D-09 XBig12= 2.50D-13 4.49D-08.
      1 vectors produced by pass  7 Test12= 8.41D-15 1.08D-09 XBig12= 1.50D-16 1.32D-09.
 InvSVY:  IOpt=1 It=  1 EMax= 7.11D-15
 Solved reduced A of dimension   501 with    93 vectors.
 Isotropic polarizability for W=    0.000000      109.75 Bohr**3.
 End of Minotr F.D. properties file   721 does not exist.
 End of Minotr F.D. properties file   722 does not exist.
 End of Minotr F.D. properties file   788 does not exist.

 **********************************************************************

            Population analysis using the SCF density.

 **********************************************************************

 Orbital symmetries:
       Occupied  (A) (A) (A) (A) (A) (A) (A) (A) (A) (A) (A) (A)
                 (A) (A) (A) (A) (A) (A) (A) (A) (A) (A) (A) (A)
                 (A) (A) (A) (A) (A) (A) (A) (A) (A) (A) (A) (A)
                 (A) (A) (A) (A) (A) (A) (A) (A) (A) (A)
       Virtual   (A) (A) (A) (A) (A) (A) (A) (A) (A) (A) (A) (A)
                 (A) (A) (A) (A) (A) (A) (A) (A) (A) (A) (A) (A)
                 (A) (A) (A) (A) (A) (A) (A) (A) (A) (A) (A) (A)
                 (A) (A) (A) (A) (A) (A) (A) (A) (A) (A) (A) (A)
                 (A) (A) (A) (A) (A) (A) (A) (A) (A) (A) (A) (A)
                 (A) (A) (A) (A) (A) (A) (A) (A) (A) (A) (A) (A)
                 (A) (A) (A) (A) (A) (A) (A) (A) (A) (A) (A) (A)
                 (A) (A) (A) (A) (A) (A) (A) (A) (A) (A) (A) (A)
                 (A) (A) (A) (A) (A) (A) (A) (A) (A) (A) (A) (A)
                 (A) (A) (A) (A) (A) (A) (A) (A) (A) (A) (A) (A)
                 (A) (A) (A) (A) (A) (A) (A) (A) (A) (A) (A) (A)
                 (A) (A) (A) (A) (A) (A) (A) (A) (A) (A) (A) (A)
                 (A) (A) (A) (A) (A) (A) (A) (A) (A) (A) (A) (A)
                 (A) (A) (A) (A) (A) (A) (A) (A) (A) (A) (A) (A)
                 (A) (A)
 The electronic state is 1-A.
 Alpha  occ. eigenvalues --  -19.13791 -10.26409 -10.19679 -10.19665 -10.19148
 Alpha  occ. eigenvalues --  -10.19131 -10.18944 -10.18941 -10.18642 -10.18641
 Alpha  occ. eigenvalues --  -10.17834 -10.17833  -1.03579  -0.87463  -0.78694
 Alpha  occ. eigenvalues --   -0.77929  -0.72651  -0.71914  -0.66835  -0.63502
 Alpha  occ. eigenvalues --   -0.59514  -0.58991  -0.52974  -0.52231  -0.50741
 Alpha  occ. eigenvalues --   -0.46709  -0.45494  -0.44493  -0.43512  -0.42223
 Alpha  occ. eigenvalues --   -0.40861  -0.40089  -0.39603  -0.38466  -0.38329
 Alpha  occ. eigenvalues --   -0.36182  -0.36123  -0.35851  -0.35010  -0.34105
 Alpha  occ. eigenvalues --   -0.33910  -0.33542  -0.32086  -0.30402  -0.29243
 Alpha  occ. eigenvalues --   -0.22566
 Alpha virt. eigenvalues --   -0.00625   0.06938   0.09187   0.09894   0.10724
 Alpha virt. eigenvalues --    0.11772   0.13566   0.13752   0.14221   0.14665
 Alpha virt. eigenvalues --    0.16082   0.16488   0.16762   0.18042   0.18538
 Alpha virt. eigenvalues --    0.18825   0.19189   0.20242   0.20804   0.21871
 Alpha virt. eigenvalues --    0.22930   0.23694   0.24245   0.24585   0.24773
 Alpha virt. eigenvalues --    0.25334   0.26295   0.28883   0.31148   0.32763
 Alpha virt. eigenvalues --    0.34916   0.36981   0.47253   0.49004   0.52373
 Alpha virt. eigenvalues --    0.53563   0.54148   0.54409   0.57142   0.57715
 Alpha virt. eigenvalues --    0.58620   0.60409   0.60586   0.62292   0.63754
 Alpha virt. eigenvalues --    0.64749   0.66039   0.66270   0.66794   0.67518
 Alpha virt. eigenvalues --    0.69161   0.71718   0.72097   0.76269   0.76617
 Alpha virt. eigenvalues --    0.78104   0.81474   0.82879   0.83149   0.83447
 Alpha virt. eigenvalues --    0.84178   0.84920   0.85616   0.87332   0.87948
 Alpha virt. eigenvalues --    0.88579   0.90152   0.90796   0.91540   0.92952
 Alpha virt. eigenvalues --    0.93065   0.93504   0.94434   0.94495   0.96231
 Alpha virt. eigenvalues --    0.96557   0.98306   0.99484   1.01335   1.02348
 Alpha virt. eigenvalues --    1.04393   1.05302   1.09107   1.09155   1.10522
 Alpha virt. eigenvalues --    1.17278   1.24449   1.24660   1.29758   1.30770
 Alpha virt. eigenvalues --    1.36524   1.39532   1.43444   1.46183   1.47581
 Alpha virt. eigenvalues --    1.49845   1.58548   1.61484   1.61633   1.64089
 Alpha virt. eigenvalues --    1.65198   1.69293   1.72173   1.72883   1.73299
 Alpha virt. eigenvalues --    1.75257   1.76919   1.79683   1.81004   1.83472
 Alpha virt. eigenvalues --    1.84889   1.88989   1.88992   1.90596   1.94242
 Alpha virt. eigenvalues --    1.95176   1.97122   1.98250   1.99216   2.01738
 Alpha virt. eigenvalues --    2.03194   2.04754   2.05328   2.07452   2.08291
 Alpha virt. eigenvalues --    2.13522   2.14830   2.17022   2.17639   2.18194
 Alpha virt. eigenvalues --    2.22509   2.27119   2.29772   2.31513   2.32566
 Alpha virt. eigenvalues --    2.33838   2.35139   2.36645   2.38862   2.41046
 Alpha virt. eigenvalues --    2.43490   2.49773   2.52472   2.57774   2.59330
 Alpha virt. eigenvalues --    2.63178   2.63951   2.66756   2.67548   2.69751
 Alpha virt. eigenvalues --    2.71623   2.73679   2.73818   2.74989   2.85388
 Alpha virt. eigenvalues --    2.89421   3.01954   3.07860   4.07871   4.14152
 Alpha virt. eigenvalues --    4.20359   4.21589   4.33881   4.35219   4.45156
 Alpha virt. eigenvalues --    4.48900   4.57123   4.70334   4.77671   4.98969
          Condensed to atoms (all electrons):
               1          2          3          4          5          6
     1  O    7.965850   0.597332  -0.063416   0.000423  -0.000039  -0.000001
     2  C    0.597332   4.633335   0.306391  -0.055559   0.003635   0.000056
     3  C   -0.063416   0.306391   5.241657   0.367331  -0.040204  -0.002296
     4  C    0.000423  -0.055559   0.367331   5.020125   0.382705  -0.041885
     5  C   -0.000039   0.003635  -0.040204   0.382705   4.991679   0.366307
     6  C   -0.000001   0.000056  -0.002296  -0.041885   0.366307   5.082443
     7  C    0.000423  -0.055558  -0.053768   0.344035  -0.032246   0.003944
     8  C   -0.000039   0.003635   0.000128  -0.032246  -0.009620   0.000256
     9  C   -0.000001   0.000056  -0.000087   0.003944   0.000256  -0.000005
    10  C   -0.063416   0.306391  -0.150305  -0.053768   0.000128  -0.000087
    11  C    0.001499  -0.058495  -0.053021  -0.014200   0.000167   0.000072
    12  C    0.001499  -0.058495   0.359972  -0.033907  -0.009325  -0.001524
    13  H    0.001292  -0.028220   0.355656  -0.030021  -0.002135   0.001787
    14  H    0.000743   0.001043  -0.048206   0.365174  -0.048154  -0.005282
    15  H   -0.000001   0.000049  -0.008495  -0.036584   0.372326  -0.040142
    16  H    0.000001  -0.000073   0.004996  -0.033180   0.372099  -0.039100
    17  H    0.000001   0.000043   0.004109  -0.006157  -0.032720   0.377426
    18  H    0.000000  -0.000021  -0.000829  -0.003931  -0.035514   0.376625
    19  H    0.000000  -0.000001   0.000064   0.004188  -0.028036   0.371917
    20  H    0.000743   0.001043   0.003462  -0.034105   0.003399  -0.000104
    21  H   -0.000001   0.000049   0.000134  -0.003726   0.001758  -0.000032
    22  H    0.000001  -0.000073   0.000079  -0.004489   0.000510  -0.000038
    23  H    0.000000  -0.000001   0.000002  -0.000107   0.000005  -0.000000
    24  H    0.000001   0.000043   0.000011  -0.000041   0.000001   0.000000
    25  H    0.000000  -0.000021  -0.000002   0.000013   0.000008   0.000000
    26  H    0.001292  -0.028220   0.006796   0.005494  -0.000048   0.000002
    27  H   -0.000063   0.004111   0.000716   0.000963  -0.000017  -0.000002
    28  H    0.000391   0.000504   0.002286  -0.000055  -0.000010  -0.000000
    29  H   -0.000063   0.004111  -0.028930  -0.012152   0.004269   0.000240
    30  H    0.000391   0.000504  -0.034302   0.004782   0.000192  -0.000032
               7          8          9         10         11         12
     1  O    0.000423  -0.000039  -0.000001  -0.063416   0.001499   0.001499
     2  C   -0.055558   0.003635   0.000056   0.306391  -0.058495  -0.058495
     3  C   -0.053768   0.000128  -0.000087  -0.150305  -0.053021   0.359972
     4  C    0.344035  -0.032246   0.003944  -0.053768  -0.014200  -0.033907
     5  C   -0.032246  -0.009620   0.000256   0.000128   0.000167  -0.009325
     6  C    0.003944   0.000256  -0.000005  -0.000087   0.000072  -0.001524
     7  C    5.020125   0.382705  -0.041885   0.367331  -0.033907  -0.014200
     8  C    0.382705   4.991679   0.366306  -0.040204  -0.009325   0.000167
     9  C   -0.041885   0.366306   5.082443  -0.002296  -0.001524   0.000072
    10  C    0.367331  -0.040204  -0.002296   5.241657   0.359972  -0.053021
    11  C   -0.033907  -0.009325  -0.001524   0.359972   5.096262   0.343229
    12  C   -0.014200   0.000167   0.000072  -0.053021   0.343229   5.096262
    13  H    0.005494  -0.000048   0.000002   0.006796   0.005484  -0.034542
    14  H   -0.034105   0.003399  -0.000104   0.003462  -0.000064   0.005897
    15  H   -0.003726   0.001758  -0.000032   0.000134  -0.000223   0.002769
    16  H   -0.004489   0.000510  -0.000038   0.000079  -0.000026   0.000198
    17  H   -0.000041   0.000001   0.000000   0.000011  -0.000001   0.000702
    18  H    0.000013   0.000008   0.000000  -0.000002  -0.000003   0.000099
    19  H   -0.000107   0.000005  -0.000000   0.000002   0.000000  -0.000002
    20  H    0.365174  -0.048154  -0.005282  -0.048206   0.005897  -0.000064
    21  H   -0.036584   0.372326  -0.040142  -0.008495   0.002769  -0.000223
    22  H   -0.033180   0.372099  -0.039100   0.004996   0.000198  -0.000026
    23  H    0.004188  -0.028036   0.371917   0.000064  -0.000002   0.000000
    24  H   -0.006157  -0.032720   0.377426   0.004109   0.000702  -0.000001
    25  H   -0.003931  -0.035514   0.376625  -0.000829   0.000099  -0.000003
    26  H   -0.030021  -0.002135   0.001787   0.355656  -0.034542   0.005484
    27  H   -0.012152   0.004269   0.000240  -0.028930   0.368717  -0.029928
    28  H    0.004782   0.000192  -0.000032  -0.034302   0.370058  -0.029356
    29  H    0.000963  -0.000017  -0.000002   0.000716  -0.029928   0.368718
    30  H   -0.000055  -0.000010  -0.000000   0.002286  -0.029356   0.370058
              13         14         15         16         17         18
     1  O    0.001292   0.000743  -0.000001   0.000001   0.000001   0.000000
     2  C   -0.028220   0.001043   0.000049  -0.000073   0.000043  -0.000021
     3  C    0.355656  -0.048206  -0.008495   0.004996   0.004109  -0.000829
     4  C   -0.030021   0.365174  -0.036584  -0.033180  -0.006157  -0.003931
     5  C   -0.002135  -0.048154   0.372326   0.372099  -0.032720  -0.035514
     6  C    0.001787  -0.005282  -0.040142  -0.039100   0.377426   0.376625
     7  C    0.005494  -0.034105  -0.003726  -0.004489  -0.000041   0.000013
     8  C   -0.000048   0.003399   0.001758   0.000510   0.000001   0.000008
     9  C    0.000002  -0.000104  -0.000032  -0.000038   0.000000   0.000000
    10  C    0.006796   0.003462   0.000134   0.000079   0.000011  -0.000002
    11  C    0.005484  -0.000064  -0.000223  -0.000026  -0.000001  -0.000003
    12  C   -0.034542   0.005897   0.002769   0.000198   0.000702   0.000099
    13  H    0.583836  -0.003658  -0.000105  -0.000061   0.001209   0.000267
    14  H   -0.003658   0.629956   0.006273  -0.004408  -0.000230   0.006069
    15  H   -0.000105   0.006273   0.605884  -0.039377  -0.004940   0.005247
    16  H   -0.000061  -0.004408  -0.039377   0.604133   0.005025  -0.003995
    17  H    0.001209  -0.000230  -0.004940   0.005025   0.567966  -0.032046
    18  H    0.000267   0.006069   0.005247  -0.003995  -0.032046   0.573109
    19  H   -0.000032  -0.000035  -0.002056  -0.003207  -0.030674  -0.030562
    20  H   -0.000243  -0.012347  -0.000150   0.000319  -0.000001  -0.000013
    21  H   -0.000011  -0.000150   0.001263   0.000163  -0.000000  -0.000001
    22  H   -0.000001   0.000319   0.000163   0.002932   0.000000   0.000001
    23  H   -0.000000   0.000002   0.000003   0.000003   0.000000   0.000000
    24  H   -0.000000  -0.000001  -0.000000   0.000000  -0.000000   0.000000
    25  H   -0.000000  -0.000013  -0.000001   0.000001   0.000000  -0.000000
    26  H   -0.000158  -0.000243  -0.000011  -0.000001  -0.000000  -0.000000
    27  H   -0.000075   0.000000  -0.000010  -0.000012  -0.000001   0.000000
    28  H   -0.000178   0.000011   0.000016   0.000000   0.000000   0.000000
    29  H    0.000572   0.000080   0.004769  -0.000176   0.000609  -0.000007
    30  H   -0.003065  -0.000175  -0.000125  -0.000000  -0.000051   0.000001
              19         20         21         22         23         24
     1  O    0.000000   0.000743  -0.000001   0.000001   0.000000   0.000001
     2  C   -0.000001   0.001043   0.000049  -0.000073  -0.000001   0.000043
     3  C    0.000064   0.003462   0.000134   0.000079   0.000002   0.000011
     4  C    0.004188  -0.034105  -0.003726  -0.004489  -0.000107  -0.000041
     5  C   -0.028036   0.003399   0.001758   0.000510   0.000005   0.000001
     6  C    0.371917  -0.000104  -0.000032  -0.000038  -0.000000   0.000000
     7  C   -0.000107   0.365174  -0.036584  -0.033180   0.004188  -0.006157
     8  C    0.000005  -0.048154   0.372326   0.372099  -0.028036  -0.032720
     9  C   -0.000000  -0.005282  -0.040142  -0.039100   0.371917   0.377426
    10  C    0.000002  -0.048206  -0.008495   0.004996   0.000064   0.004109
    11  C    0.000000   0.005897   0.002769   0.000198  -0.000002   0.000702
    12  C   -0.000002  -0.000064  -0.000223  -0.000026   0.000000  -0.000001
    13  H   -0.000032  -0.000243  -0.000011  -0.000001  -0.000000  -0.000000
    14  H   -0.000035  -0.012347  -0.000150   0.000319   0.000002  -0.000001
    15  H   -0.002056  -0.000150   0.001263   0.000163   0.000003  -0.000000
    16  H   -0.003207   0.000319   0.000163   0.002932   0.000003   0.000000
    17  H   -0.030674  -0.000001  -0.000000   0.000000   0.000000  -0.000000
    18  H   -0.030562  -0.000013  -0.000001   0.000001   0.000000   0.000000
    19  H    0.573854   0.000002   0.000003   0.000003   0.000000   0.000000
    20  H    0.000002   0.629956   0.006273  -0.004408  -0.000035  -0.000230
    21  H    0.000003   0.006273   0.605884  -0.039377  -0.002056  -0.004940
    22  H    0.000003  -0.004408  -0.039377   0.604133  -0.003207   0.005025
    23  H    0.000000  -0.000035  -0.002056  -0.003207   0.573854  -0.030674
    24  H    0.000000  -0.000230  -0.004940   0.005025  -0.030674   0.567966
    25  H    0.000000   0.006069   0.005247  -0.003995  -0.030562  -0.032046
    26  H   -0.000000  -0.003658  -0.000105  -0.000061  -0.000032   0.001209
    27  H    0.000000   0.000080   0.004769  -0.000176  -0.000026   0.000609
    28  H   -0.000000  -0.000175  -0.000125  -0.000000   0.000001  -0.000051
    29  H   -0.000026   0.000000  -0.000010  -0.000012   0.000000  -0.000001
    30  H    0.000001   0.000011   0.000016   0.000000  -0.000000   0.000000
              25         26         27         28         29         30
     1  O    0.000000   0.001292  -0.000063   0.000391  -0.000063   0.000391
     2  C   -0.000021  -0.028220   0.004111   0.000504   0.004111   0.000504
     3  C   -0.000002   0.006796   0.000716   0.002286  -0.028930  -0.034302
     4  C    0.000013   0.005494   0.000963  -0.000055  -0.012152   0.004782
     5  C    0.000008  -0.000048  -0.000017  -0.000010   0.004269   0.000192
     6  C    0.000000   0.000002  -0.000002  -0.000000   0.000240  -0.000032
     7  C   -0.003931  -0.030021  -0.012152   0.004782   0.000963  -0.000055
     8  C   -0.035514  -0.002135   0.004269   0.000192  -0.000017  -0.000010
     9  C    0.376625   0.001787   0.000240  -0.000032  -0.000002  -0.000000
    10  C   -0.000829   0.355656  -0.028930  -0.034302   0.000716   0.002286
    11  C    0.000099  -0.034542   0.368717   0.370058  -0.029928  -0.029356
    12  C   -0.000003   0.005484  -0.029928  -0.029356   0.368718   0.370058
    13  H   -0.000000  -0.000158  -0.000075  -0.000178   0.000572  -0.003065
    14  H   -0.000013  -0.000243   0.000000   0.000011   0.000080  -0.000175
    15  H   -0.000001  -0.000011  -0.000010   0.000016   0.004769  -0.000125
    16  H    0.000001  -0.000001  -0.000012   0.000000  -0.000176  -0.000000
    17  H    0.000000  -0.000000  -0.000001   0.000000   0.000609  -0.000051
    18  H   -0.000000  -0.000000   0.000000   0.000000  -0.000007   0.000001
    19  H    0.000000  -0.000000   0.000000  -0.000000  -0.000026   0.000001
    20  H    0.006069  -0.003658   0.000080  -0.000175   0.000000   0.000011
    21  H    0.005247  -0.000105   0.004769  -0.000125  -0.000010   0.000016
    22  H   -0.003995  -0.000061  -0.000176  -0.000000  -0.000012   0.000000
    23  H   -0.030562  -0.000032  -0.000026   0.000001   0.000000  -0.000000
    24  H   -0.032046   0.001209   0.000609  -0.000051  -0.000001   0.000000
    25  H    0.573109   0.000267  -0.000007   0.000001   0.000000   0.000000
    26  H    0.000267   0.583836   0.000572  -0.003065  -0.000075  -0.000178
    27  H   -0.000007   0.000572   0.579796  -0.036226  -0.008212   0.003582
    28  H    0.000001  -0.003065  -0.036226   0.580344   0.003582  -0.009971
    29  H    0.000000  -0.000075  -0.008212   0.003582   0.579795  -0.036226
    30  H    0.000000  -0.000178   0.003582  -0.009971  -0.036226   0.580345
 Mulliken charges:
               1
     1  O   -0.444843
     2  C    0.422407
     3  C   -0.169928
     4  C   -0.103067
     5  C   -0.261377
     6  C   -0.450545
     7  C   -0.103067
     8  C   -0.261377
     9  C   -0.450544
    10  C   -0.169928
    11  C   -0.290507
    12  C   -0.290507
    13  H    0.140157
    14  H    0.134746
    15  H    0.135324
    16  H    0.137685
    17  H    0.149758
    18  H    0.145486
    19  H    0.144699
    20  H    0.134746
    21  H    0.135324
    22  H    0.137685
    23  H    0.144699
    24  H    0.149758
    25  H    0.145486
    26  H    0.140157
    27  H    0.147412
    28  H    0.151376
    29  H    0.147412
    30  H    0.151376
 Sum of Mulliken charges =  -0.00000
 Mulliken charges with hydrogens summed into heavy atoms:
               1
     1  O   -0.444843
     2  C    0.422407
     3  C   -0.029771
     4  C    0.031679
     5  C    0.011632
     6  C   -0.010602
     7  C    0.031679
     8  C    0.011631
     9  C   -0.010602
    10  C   -0.029772
    11  C    0.008281
    12  C    0.008280
 APT charges:
               1
     1  O   -0.660750
     2  C    0.767162
     3  C   -0.101403
     4  C    0.108753
     5  C    0.095528
     6  C    0.088154
     7  C    0.108753
     8  C    0.095528
     9  C    0.088153
    10  C   -0.101403
    11  C    0.093362
    12  C    0.093362
    13  H   -0.029879
    14  H   -0.070777
    15  H   -0.039049
    16  H   -0.051061
    17  H   -0.019395
    18  H   -0.024569
    19  H   -0.038986
    20  H   -0.070777
    21  H   -0.039049
    22  H   -0.051061
    23  H   -0.038986
    24  H   -0.019395
    25  H   -0.024569
    26  H   -0.029879
    27  H   -0.025739
    28  H   -0.038145
    29  H   -0.025739
    30  H   -0.038145
 Sum of APT charges =   0.00000
 APT charges with hydrogens summed into heavy atoms:
               1
     1  O   -0.660750
     2  C    0.767162
     3  C   -0.131282
     4  C    0.037976
     5  C    0.005418
     6  C    0.005204
     7  C    0.037976
     8  C    0.005418
     9  C    0.005204
    10  C   -0.131282
    11  C    0.029478
    12  C    0.029478
 Electronic spatial extent (au):  <R**2>=           2141.0194
 Charge=             -0.0000 electrons
 Dipole moment (field-independent basis, Debye):
    X=              0.0000    Y=             -2.6940    Z=              1.5482  Tot=              3.1072
 Quadrupole moment (field-independent basis, Debye-Ang):
   XX=            -73.3327   YY=            -83.0661   ZZ=            -75.2504
   XY=              0.0000   XZ=             -0.0000   YZ=              5.9424
 Traceless Quadrupole moment (field-independent basis, Debye-Ang):
   XX=              3.8837   YY=             -5.8497   ZZ=              1.9660
   XY=              0.0000   XZ=             -0.0000   YZ=              5.9424
 Octapole moment (field-independent basis, Debye-Ang**2):
  XXX=              0.0000  YYY=            -22.0882  ZZZ=             -3.1023  XYY=              0.0000
  XXY=              5.3509  XXZ=             -1.8088  XZZ=              0.0000  YZZ=             -3.5399
  YYZ=             17.0469  XYZ=             -0.0000
 Hexadecapole moment (field-independent basis, Debye-Ang**3):
 XXXX=          -1375.3974 YYYY=          -1164.0443 ZZZZ=           -425.1791 XXXY=             -0.0001
 XXXZ=              0.0000 YYYX=              0.0001 YYYZ=             43.1884 ZZZX=              0.0000
 ZZZY=             -2.7337 XXYY=           -398.8945 XXZZ=           -294.0627 YYZZ=           -267.3320
 XXYZ=             -4.3759 YYXZ=             -0.0001 ZZXY=             -0.0000
 N-N= 7.612026938110D+02 E-N=-2.693463629698D+03  KE= 5.003562422430D+02
  Exact polarizability: 117.057   0.000 114.067   0.000  -1.224  98.111
 Approx polarizability: 150.061  -0.000 164.566   0.000  -8.906 153.146
 Calling FoFJK, ICntrl=    100127 FMM=F ISym2X=0 I1Cent= 0 IOpClX= 0 NMat=1 NMatS=1 NMatT=0.
 Full mass-weighted force constant matrix:
 Low frequencies ---   -1.3341    0.0003    0.0005    0.0010    1.8884    6.9071
 Low frequencies ---   47.0127   94.8290  105.9376
 Diagonal vibrational polarizability:
        9.5618203       4.8733429       5.1811714
 Harmonic frequencies (cm**-1), IR intensities (KM/Mole), Raman scattering
 activities (A**4/AMU), depolarization ratios for plane and unpolarized
 incident light, reduced masses (AMU), force constants (mDyne/A),
 and normal coordinates:
                      1                      2                      3
                      A                      A                      A
 Frequencies --     46.9901                94.8290               105.9362
 Red. masses --      3.1980                 2.3958                 1.9240
 Frc consts  --      0.0042                 0.0127                 0.0127
 IR Inten    --      0.4738                 0.2969                 0.0013
  Atom  AN      X      Y      Z        X      Y      Z        X      Y      Z
     1   8    -0.13  -0.00   0.00     0.00   0.04   0.05     0.03  -0.00  -0.00
     2   6    -0.05   0.00   0.00     0.00  -0.00  -0.01     0.02  -0.00   0.00
     3   6     0.02   0.02  -0.11    -0.00  -0.02  -0.05     0.01  -0.03  -0.03
     4   6    -0.01  -0.02  -0.01     0.00  -0.01  -0.07    -0.04  -0.01  -0.04
     5   6    -0.04   0.02   0.10    -0.01  -0.01  -0.06    -0.02  -0.03  -0.11
     6   6    -0.04  -0.01   0.14    -0.00   0.09   0.18    -0.02   0.10   0.08
     7   6    -0.01   0.02   0.01    -0.00  -0.01  -0.07    -0.04   0.01   0.04
     8   6    -0.04  -0.02  -0.10     0.01  -0.01  -0.06    -0.02   0.03   0.11
     9   6    -0.04   0.01  -0.14     0.00   0.09   0.18    -0.02  -0.10  -0.08
    10   6     0.02  -0.02   0.11     0.00  -0.02  -0.05     0.01   0.03   0.03
    11   6     0.17  -0.08   0.07    -0.00  -0.07  -0.05     0.05   0.06   0.02
    12   6     0.17   0.08  -0.07     0.00  -0.07  -0.05     0.05  -0.06  -0.02
    13   1    -0.00   0.03  -0.22    -0.00  -0.02  -0.04     0.01  -0.05  -0.05
    14   1    -0.02  -0.11  -0.01     0.01   0.00  -0.07    -0.09   0.02  -0.06
    15   1    -0.08   0.10   0.10    -0.15  -0.11  -0.12    -0.13  -0.17  -0.16
    16   1    -0.04  -0.02   0.15     0.12   0.01  -0.18     0.10   0.01  -0.25
    17   1    -0.05   0.03   0.09    -0.15   0.04   0.35    -0.15   0.01   0.29
    18   1    -0.01  -0.09   0.14     0.16   0.23   0.26     0.10   0.32   0.15
    19   1    -0.06   0.01   0.22    -0.01   0.07   0.15     0.01   0.06  -0.04
    20   1    -0.02   0.11   0.01    -0.01   0.00  -0.07    -0.09  -0.02   0.06
    21   1    -0.08  -0.10  -0.10     0.15  -0.11  -0.12    -0.13   0.17   0.16
    22   1    -0.04   0.02  -0.15    -0.12   0.01  -0.18     0.10  -0.01   0.25
    23   1    -0.06  -0.01  -0.22     0.01   0.07   0.15     0.01  -0.06   0.04
    24   1    -0.05  -0.03  -0.09     0.15   0.04   0.35    -0.15  -0.01  -0.29
    25   1    -0.01   0.09  -0.14    -0.16   0.23   0.26     0.10  -0.32  -0.15
    26   1    -0.00  -0.03   0.22     0.00  -0.02  -0.04     0.01   0.05   0.05
    27   1     0.31  -0.17   0.05     0.00  -0.09  -0.07    -0.02   0.13   0.08
    28   1     0.12  -0.16   0.18     0.00  -0.08  -0.02     0.13   0.12  -0.02
    29   1     0.31   0.17  -0.05    -0.00  -0.09  -0.07    -0.02  -0.13  -0.08
    30   1     0.12   0.16  -0.18    -0.00  -0.08  -0.02     0.13  -0.12   0.02
                      4                      5                      6
                      A                      A                      A
 Frequencies --    121.6247               163.8760               199.9105
 Red. masses --      4.9619                 3.0505                 2.8108
 Frc consts  --      0.0432                 0.0483                 0.0662
 IR Inten    --      2.1154                 0.3691                 0.4642
  Atom  AN      X      Y      Z        X      Y      Z        X      Y      Z
     1   8     0.00   0.27   0.30     0.00   0.02   0.10     0.19  -0.00  -0.00
     2   6     0.00   0.04  -0.04     0.00  -0.06  -0.02     0.07   0.00   0.00
     3   6     0.00  -0.02  -0.12    -0.00  -0.07  -0.04     0.00  -0.05  -0.00
     4   6    -0.00  -0.05  -0.03    -0.00  -0.10   0.03    -0.08  -0.04   0.01
     5   6    -0.04  -0.03   0.07     0.12  -0.02   0.06    -0.04   0.03   0.09
     6   6    -0.04  -0.15   0.03     0.11   0.17  -0.06    -0.05   0.17  -0.05
     7   6     0.00  -0.05  -0.03     0.00  -0.10   0.03    -0.08   0.04  -0.01
     8   6     0.04  -0.03   0.07    -0.12  -0.02   0.06    -0.04  -0.03  -0.09
     9   6     0.04  -0.15   0.03    -0.11   0.17  -0.06    -0.05  -0.17   0.05
    10   6    -0.00  -0.02  -0.12     0.00  -0.07  -0.04     0.00   0.05   0.00
    11   6    -0.00   0.07  -0.11    -0.00  -0.01  -0.04     0.02  -0.00   0.00
    12   6     0.00   0.07  -0.11     0.00  -0.01  -0.04     0.02   0.00  -0.00
    13   1     0.00  -0.02  -0.13    -0.01  -0.08  -0.06     0.02  -0.11  -0.03
    14   1     0.01  -0.13  -0.04    -0.03  -0.14   0.02    -0.06  -0.09   0.02
    15   1    -0.03   0.09   0.09     0.20   0.02   0.10     0.05   0.13   0.13
    16   1    -0.10  -0.06   0.17     0.17  -0.08   0.14    -0.02  -0.05   0.21
    17   1     0.03  -0.08  -0.11     0.05   0.25  -0.13    -0.09   0.32  -0.24
    18   1    -0.05  -0.34  -0.00    -0.00   0.18  -0.10    -0.17   0.02  -0.10
    19   1    -0.10  -0.12   0.17     0.27   0.25  -0.07     0.09   0.29   0.08
    20   1    -0.01  -0.13  -0.04     0.03  -0.14   0.02    -0.06   0.09  -0.02
    21   1     0.03   0.09   0.09    -0.20   0.02   0.10     0.05  -0.13  -0.13
    22   1     0.10  -0.06   0.17    -0.17  -0.08   0.14    -0.02   0.05  -0.21
    23   1     0.10  -0.12   0.17    -0.27   0.25  -0.07     0.09  -0.29  -0.08
    24   1    -0.03  -0.08  -0.11    -0.05   0.25  -0.13    -0.09  -0.32   0.24
    25   1     0.05  -0.34  -0.00     0.00   0.18  -0.10    -0.17  -0.02   0.10
    26   1    -0.00  -0.02  -0.13     0.01  -0.08  -0.06     0.02   0.11   0.03
    27   1    -0.00   0.11  -0.06    -0.00   0.01  -0.00     0.03  -0.04  -0.05
    28   1    -0.00   0.11  -0.18     0.00   0.01  -0.08     0.01  -0.04   0.06
    29   1     0.00   0.11  -0.06     0.00   0.01  -0.00     0.03   0.04   0.05
    30   1     0.00   0.11  -0.18    -0.00   0.01  -0.08     0.01   0.04  -0.06
                      7                      8                      9
                      A                      A                      A
 Frequencies --    224.4342               236.1556               282.1073
 Red. masses --      1.1799                 1.2056                 1.7276
 Frc consts  --      0.0350                 0.0396                 0.0810
 IR Inten    --      0.0495                 0.0101                 0.3403
  Atom  AN      X      Y      Z        X      Y      Z        X      Y      Z
     1   8    -0.00  -0.01  -0.02     0.03  -0.00  -0.00     0.07   0.00  -0.00
     2   6    -0.00   0.01   0.02     0.01   0.00   0.00     0.02   0.00  -0.00
     3   6    -0.00   0.00   0.00     0.00   0.00   0.01    -0.00   0.01   0.02
     4   6     0.00   0.02  -0.03    -0.00  -0.00   0.03    -0.01   0.02  -0.02
     5   6    -0.01   0.03   0.00    -0.01  -0.00   0.03    -0.01  -0.02  -0.11
     6   6    -0.01   0.02   0.01    -0.01   0.01  -0.02    -0.00  -0.01   0.01
     7   6    -0.00   0.02  -0.03    -0.00   0.00  -0.03    -0.01  -0.02   0.02
     8   6     0.01   0.03   0.00    -0.01   0.00  -0.03    -0.01   0.02   0.11
     9   6     0.01   0.02   0.01    -0.01  -0.01   0.02    -0.00   0.01  -0.01
    10   6     0.00   0.00   0.00     0.00  -0.00  -0.01    -0.00  -0.01  -0.02
    11   6     0.00  -0.07   0.00    -0.00  -0.08  -0.01    -0.02  -0.12  -0.01
    12   6    -0.00  -0.07   0.00    -0.00   0.08   0.01    -0.02   0.12   0.01
    13   1    -0.00   0.01   0.02     0.01  -0.01   0.00    -0.01   0.01   0.01
    14   1     0.01   0.02  -0.03     0.02  -0.01   0.03    -0.04   0.09  -0.02
    15   1    -0.01   0.08   0.01     0.01  -0.01   0.03    -0.07  -0.11  -0.14
    16   1    -0.01   0.00   0.05    -0.03   0.00   0.03     0.04   0.02  -0.21
    17   1    -0.03   0.25  -0.29     0.02  -0.20   0.25    -0.08   0.11  -0.10
    18   1     0.02  -0.37  -0.03    -0.07   0.37   0.01     0.10  -0.19   0.02
    19   1    -0.01   0.17   0.38     0.00  -0.13  -0.38    -0.03   0.07   0.23
    20   1    -0.01   0.02  -0.03     0.02   0.01  -0.03    -0.04  -0.09   0.02
    21   1     0.01   0.08   0.01     0.01   0.01  -0.03    -0.07   0.11   0.14
    22   1     0.01   0.00   0.05    -0.03  -0.00  -0.03     0.04  -0.02   0.21
    23   1     0.01   0.17   0.38     0.00   0.13   0.38    -0.03  -0.07  -0.23
    24   1     0.03   0.25  -0.29     0.02   0.20  -0.25    -0.08  -0.11   0.10
    25   1    -0.02  -0.37  -0.03    -0.07  -0.37  -0.01     0.10   0.19  -0.02
    26   1     0.00   0.01   0.02     0.01   0.01  -0.00    -0.01  -0.01  -0.01
    27   1    -0.00  -0.09  -0.03     0.09  -0.17  -0.08     0.13  -0.28  -0.14
    28   1     0.00  -0.09   0.05    -0.10  -0.16   0.08    -0.18  -0.27   0.14
    29   1     0.00  -0.09  -0.03     0.09   0.17   0.08     0.13   0.28   0.14
    30   1    -0.00  -0.09   0.05    -0.10   0.16  -0.08    -0.18   0.27  -0.14
                     10                     11                     12
                      A                      A                      A
 Frequencies --    302.3205               325.0057               408.9575
 Red. masses --      2.2960                 3.0522                 3.3204
 Frc consts  --      0.1236                 0.1900                 0.3272
 IR Inten    --      0.0577                 0.6344                 2.5442
  Atom  AN      X      Y      Z        X      Y      Z        X      Y      Z
     1   8     0.00  -0.02   0.03    -0.00   0.05  -0.05     0.20  -0.00  -0.00
     2   6     0.00  -0.03   0.01    -0.00   0.07  -0.01    -0.06  -0.00   0.00
     3   6     0.00  -0.01   0.03     0.00   0.06  -0.02    -0.11  -0.00  -0.09
     4   6     0.02  -0.01   0.02     0.04   0.04  -0.00    -0.06   0.04  -0.09
     5   6     0.07  -0.06  -0.12     0.14   0.08   0.03     0.04   0.15  -0.01
     6   6     0.09  -0.04   0.02     0.18  -0.10   0.04     0.07  -0.05   0.03
     7   6    -0.02  -0.01   0.02    -0.04   0.04  -0.00    -0.06  -0.04   0.09
     8   6    -0.07  -0.06  -0.12    -0.14   0.08   0.03     0.04  -0.15   0.01
     9   6    -0.09  -0.04   0.02    -0.18  -0.10   0.04     0.07   0.05  -0.03
    10   6    -0.00  -0.01   0.03    -0.00   0.06  -0.02    -0.11   0.00   0.09
    11   6    -0.00   0.14   0.04     0.00  -0.09  -0.02    -0.04   0.02   0.07
    12   6     0.00   0.14   0.04    -0.00  -0.09  -0.02    -0.04  -0.02  -0.07
    13   1    -0.00  -0.00   0.01     0.01   0.06   0.01    -0.14   0.06  -0.12
    14   1    -0.02   0.08   0.01    -0.00   0.02  -0.02    -0.16   0.03  -0.13
    15   1     0.01  -0.21  -0.16     0.16   0.11   0.04     0.05   0.30   0.01
    16   1     0.13  -0.00  -0.26     0.10   0.06   0.09     0.00   0.07   0.14
    17   1     0.01   0.07  -0.08     0.31  -0.22   0.12     0.21  -0.18   0.12
    18   1     0.22  -0.23   0.04     0.23  -0.08   0.06     0.16  -0.06   0.06
    19   1     0.05   0.03   0.25     0.01  -0.21  -0.02    -0.15  -0.18  -0.01
    20   1     0.02   0.08   0.01     0.00   0.02  -0.02    -0.16  -0.03   0.13
    21   1    -0.01  -0.21  -0.16    -0.16   0.11   0.04     0.05  -0.30  -0.01
    22   1    -0.13  -0.00  -0.26    -0.10   0.06   0.09     0.00  -0.07  -0.14
    23   1    -0.05   0.03   0.25    -0.01  -0.21  -0.02    -0.15   0.18   0.01
    24   1    -0.01   0.07  -0.08    -0.31  -0.22   0.12     0.21   0.18  -0.12
    25   1    -0.22  -0.23   0.04    -0.23  -0.08   0.06     0.16   0.06  -0.06
    26   1     0.00  -0.00   0.01    -0.01   0.06   0.01    -0.14  -0.06   0.12
    27   1     0.00   0.19   0.13     0.00  -0.16  -0.13    -0.00   0.00   0.09
    28   1    -0.01   0.19  -0.07     0.00  -0.16   0.09     0.01   0.01   0.12
    29   1    -0.00   0.19   0.13    -0.00  -0.16  -0.13    -0.00  -0.00  -0.09
    30   1     0.01   0.19  -0.07    -0.00  -0.16   0.09     0.01  -0.01  -0.12
                     13                     14                     15
                      A                      A                      A
 Frequencies --    420.0767               458.0201               531.9254
 Red. masses --      3.7691                 2.8759                 2.7712
 Frc consts  --      0.3919                 0.3555                 0.4620
 IR Inten    --      0.1424                 0.7450                 5.5438
  Atom  AN      X      Y      Z        X      Y      Z        X      Y      Z
     1   8     0.03  -0.00   0.00     0.00   0.15  -0.10     0.15  -0.00   0.00
     2   6     0.05  -0.00   0.00    -0.00   0.13  -0.09    -0.17  -0.00   0.00
     3   6     0.07   0.14   0.09    -0.00   0.08  -0.01    -0.12   0.11  -0.01
     4   6     0.04   0.15  -0.00    -0.01  -0.02   0.16     0.04   0.02   0.10
     5   6    -0.09   0.18  -0.04    -0.00  -0.13   0.01     0.00  -0.09   0.03
     6   6    -0.11   0.03  -0.01    -0.02   0.00  -0.01    -0.01  -0.01  -0.01
     7   6     0.04  -0.15   0.00     0.01  -0.02   0.16     0.04  -0.02  -0.10
     8   6    -0.09  -0.18   0.04     0.00  -0.13   0.01     0.00   0.09  -0.03
     9   6    -0.11  -0.03   0.01     0.02   0.00  -0.01    -0.01   0.01   0.01
    10   6     0.07  -0.14  -0.09     0.00   0.08  -0.01    -0.12  -0.11   0.01
    11   6     0.08   0.00  -0.07     0.00  -0.05  -0.02     0.06  -0.01   0.02
    12   6     0.08  -0.00   0.07    -0.00  -0.05  -0.02     0.06   0.01  -0.02
    13   1     0.06   0.15   0.05     0.02   0.02   0.01    -0.22   0.30  -0.15
    14   1     0.04   0.25   0.00    -0.07  -0.09   0.14     0.14  -0.00   0.13
    15   1    -0.14   0.21  -0.05    -0.01  -0.40  -0.03    -0.02  -0.30  -0.00
    16   1    -0.18   0.21  -0.04     0.04  -0.00  -0.23     0.02   0.02  -0.16
    17   1    -0.04  -0.02   0.00    -0.11   0.10  -0.09    -0.06   0.05  -0.06
    18   1    -0.09  -0.00  -0.00    -0.07  -0.02  -0.03    -0.09   0.01  -0.03
    19   1    -0.21  -0.02  -0.01     0.12   0.09   0.04     0.11   0.05  -0.02
    20   1     0.04  -0.25  -0.00     0.07  -0.09   0.14     0.14   0.00  -0.13
    21   1    -0.14  -0.21   0.05     0.01  -0.40  -0.03    -0.02   0.30   0.00
    22   1    -0.18  -0.21   0.04    -0.04  -0.00  -0.23     0.02  -0.02   0.16
    23   1    -0.21   0.02   0.01    -0.12   0.09   0.04     0.11  -0.05   0.02
    24   1    -0.04   0.02  -0.00     0.11   0.10  -0.09    -0.06  -0.05   0.06
    25   1    -0.09   0.00   0.00     0.07  -0.02  -0.03    -0.09  -0.01   0.03
    26   1     0.06  -0.15  -0.05    -0.02   0.02   0.01    -0.22  -0.30   0.15
    27   1     0.03   0.10   0.04     0.03  -0.16  -0.19     0.07   0.10   0.19
    28   1     0.08   0.09  -0.24    -0.02  -0.15   0.16     0.10   0.08  -0.11
    29   1     0.03  -0.10  -0.04    -0.03  -0.16  -0.19     0.07  -0.10  -0.19
    30   1     0.08  -0.09   0.24     0.02  -0.15   0.16     0.10  -0.08   0.11
                     16                     17                     18
                      A                      A                      A
 Frequencies --    593.2785               622.9680               720.6763
 Red. masses --      4.1360                 4.0104                 2.8116
 Frc consts  --      0.8577                 0.9170                 0.8604
 IR Inten    --      0.2470                 1.1945                 0.4621
  Atom  AN      X      Y      Z        X      Y      Z        X      Y      Z
     1   8     0.04   0.00  -0.00    -0.00   0.18  -0.14     0.00  -0.08   0.02
     2   6     0.02   0.00  -0.00    -0.00   0.20  -0.04    -0.00   0.03   0.16
     3   6     0.06   0.04  -0.14    -0.06  -0.06   0.06     0.04   0.14  -0.02
     4   6     0.23  -0.00  -0.13    -0.02  -0.10  -0.16     0.08  -0.00  -0.11
     5   6    -0.03  -0.04  -0.01     0.00  -0.06  -0.00     0.01  -0.14   0.04
     6   6    -0.10   0.02  -0.01     0.01  -0.00   0.00     0.02  -0.02   0.01
     7   6     0.23   0.00   0.13     0.02  -0.10  -0.16    -0.08  -0.00  -0.11
     8   6    -0.03   0.04   0.01    -0.00  -0.06  -0.00    -0.01  -0.14   0.04
     9   6    -0.10  -0.02   0.01    -0.01  -0.00   0.00    -0.02  -0.02   0.01
    10   6     0.06  -0.04   0.14     0.06  -0.06   0.06    -0.04   0.14  -0.02
    11   6    -0.14   0.01   0.12     0.03   0.01   0.16    -0.03   0.04  -0.01
    12   6    -0.14  -0.01  -0.12    -0.03   0.01   0.16     0.03   0.04  -0.01
    13   1     0.02   0.25   0.04     0.04  -0.22   0.20    -0.06   0.37  -0.08
    14   1     0.18  -0.12  -0.15     0.10  -0.03  -0.12     0.14  -0.03  -0.09
    15   1    -0.12   0.12  -0.01     0.04   0.23   0.05     0.02   0.04   0.06
    16   1    -0.12  -0.04   0.05     0.00  -0.22   0.25    -0.05  -0.19   0.16
    17   1    -0.22   0.08  -0.02    -0.06   0.01   0.04    -0.17   0.07  -0.00
    18   1    -0.17   0.11  -0.02     0.02   0.06   0.02    -0.06   0.11  -0.00
    19   1     0.07   0.09  -0.05     0.08   0.02  -0.02     0.27   0.08  -0.04
    20   1     0.18   0.12   0.15    -0.10  -0.03  -0.12    -0.14  -0.03  -0.09
    21   1    -0.12  -0.12   0.01    -0.04   0.23   0.05    -0.02   0.04   0.06
    22   1    -0.12   0.04  -0.05    -0.00  -0.22   0.25     0.05  -0.19   0.16
    23   1     0.07  -0.09   0.05    -0.08   0.02  -0.02    -0.27   0.08  -0.04
    24   1    -0.22  -0.08   0.02     0.06   0.01   0.04     0.17   0.07  -0.00
    25   1    -0.17  -0.11   0.02    -0.02   0.06   0.02     0.06   0.11  -0.00
    26   1     0.02  -0.25  -0.04    -0.04  -0.22   0.20     0.06   0.37  -0.08
    27   1    -0.10  -0.02   0.12    -0.03   0.09   0.25     0.04  -0.06  -0.11
    28   1    -0.12   0.01   0.14    -0.00   0.07   0.02    -0.05  -0.05   0.13
    29   1    -0.10   0.02  -0.12     0.03   0.09   0.25    -0.04  -0.06  -0.11
    30   1    -0.12  -0.01  -0.14     0.00   0.07   0.02     0.05  -0.05   0.13
                     19                     20                     21
                      A                      A                      A
 Frequencies --    736.3306               767.8536               778.7662
 Red. masses --      2.0829                 2.1738                 2.3229
 Frc consts  --      0.6654                 0.7551                 0.8300
 IR Inten    --      9.5780                 0.9242                 1.1938
  Atom  AN      X      Y      Z        X      Y      Z        X      Y      Z
     1   8    -0.01  -0.00  -0.00     0.01   0.00  -0.00    -0.00  -0.02  -0.05
     2   6     0.14   0.00   0.00     0.07   0.00  -0.00    -0.00   0.17   0.23
     3   6     0.05   0.06  -0.08     0.05   0.15  -0.03     0.02  -0.03   0.01
     4   6    -0.07   0.02   0.07    -0.10  -0.03  -0.04    -0.02   0.01   0.01
     5   6    -0.00   0.04   0.04    -0.00  -0.08  -0.02    -0.00  -0.01   0.03
     6   6     0.01   0.01   0.01     0.04  -0.02  -0.01     0.01   0.00   0.01
     7   6    -0.07  -0.02  -0.07    -0.10   0.03   0.04     0.02   0.01   0.01
     8   6    -0.00  -0.04  -0.04    -0.00   0.08   0.02     0.00  -0.01   0.03
     9   6     0.01  -0.01  -0.01     0.04   0.02   0.01    -0.01   0.00   0.01
    10   6     0.05  -0.06   0.08     0.05  -0.15   0.03    -0.02  -0.03   0.01
    11   6    -0.07  -0.03   0.08    -0.03  -0.05  -0.03    -0.02  -0.06  -0.10
    12   6    -0.07   0.03  -0.08    -0.03   0.05   0.03     0.02  -0.06  -0.10
    13   1     0.13  -0.09  -0.00     0.04   0.15  -0.07     0.04  -0.08   0.02
    14   1    -0.03  -0.10   0.08    -0.20  -0.05  -0.07    -0.03  -0.04   0.01
    15   1    -0.10  -0.33  -0.04     0.17   0.14   0.06    -0.06  -0.13  -0.01
    16   1     0.15   0.18  -0.28    -0.10  -0.19   0.24     0.06   0.04  -0.10
    17   1     0.22  -0.03  -0.08    -0.17   0.02   0.08     0.07   0.00  -0.04
    18   1    -0.11  -0.09  -0.05     0.18   0.07   0.05    -0.07  -0.02  -0.02
    19   1    -0.07  -0.05  -0.04     0.10   0.04   0.06     0.03  -0.01  -0.03
    20   1    -0.03   0.10  -0.08    -0.20   0.05   0.07     0.03  -0.04   0.01
    21   1    -0.10   0.33   0.04     0.17  -0.14  -0.06     0.06  -0.13  -0.01
    22   1     0.15  -0.18   0.28    -0.10   0.19  -0.24    -0.06   0.04  -0.10
    23   1    -0.07   0.05   0.04     0.10  -0.04  -0.06    -0.03  -0.01  -0.03
    24   1     0.22   0.03   0.08    -0.17  -0.02  -0.08    -0.07   0.00  -0.04
    25   1    -0.11   0.09   0.05     0.18  -0.07  -0.05     0.07  -0.02  -0.02
    26   1     0.13   0.09   0.00     0.04  -0.15   0.07    -0.04  -0.08   0.02
    27   1    -0.03   0.05   0.24    -0.05   0.07   0.15    -0.25   0.23   0.18
    28   1    -0.05   0.05  -0.03    -0.07   0.06  -0.29     0.25   0.20  -0.36
    29   1    -0.03  -0.05  -0.24    -0.05  -0.07  -0.15     0.25   0.23   0.18
    30   1    -0.05  -0.05   0.03    -0.07  -0.06   0.29    -0.25   0.20  -0.36
                     22                     23                     24
                      A                      A                      A
 Frequencies --    822.2854               828.0864               858.4992
 Red. masses --      1.3282                 2.2553                 1.6164
 Frc consts  --      0.5291                 0.9112                 0.7019
 IR Inten    --      3.7226                 7.2170                 1.3345
  Atom  AN      X      Y      Z        X      Y      Z        X      Y      Z
     1   8    -0.00  -0.01  -0.01     0.00  -0.04  -0.01     0.01   0.00  -0.00
     2   6     0.00   0.03   0.05     0.00   0.08   0.16    -0.04   0.00   0.00
     3   6     0.01  -0.00   0.01    -0.08   0.01  -0.05     0.01   0.02  -0.01
     4   6    -0.04  -0.01   0.06    -0.12  -0.08  -0.02    -0.01  -0.03  -0.11
     5   6     0.00  -0.01  -0.06     0.00   0.04  -0.00    -0.00  -0.01   0.04
     6   6    -0.01  -0.01  -0.03    -0.00   0.02   0.00     0.02   0.00   0.04
     7   6     0.04  -0.01   0.06     0.12  -0.08  -0.02    -0.01   0.03   0.11
     8   6    -0.00  -0.01  -0.06    -0.00   0.04  -0.00    -0.00   0.01  -0.04
     9   6     0.01  -0.01  -0.03     0.00   0.02   0.00     0.02  -0.00  -0.04
    10   6    -0.01  -0.00   0.01     0.08   0.01  -0.05     0.01  -0.02   0.01
    11   6    -0.01   0.00  -0.04    -0.04   0.07   0.02     0.02  -0.00  -0.10
    12   6     0.01   0.00  -0.04     0.04   0.07   0.02     0.02   0.00   0.10
    13   1     0.02  -0.05  -0.02    -0.09  -0.09  -0.21    -0.04   0.14  -0.09
    14   1    -0.13   0.03   0.04    -0.10  -0.12  -0.01    -0.11  -0.09  -0.14
    15   1     0.26   0.23   0.05    -0.03  -0.08  -0.03    -0.27  -0.08  -0.05
    16   1    -0.21  -0.10   0.23     0.13   0.02  -0.07     0.24  -0.02  -0.10
    17   1    -0.27  -0.00   0.14     0.17  -0.05  -0.01     0.26   0.00  -0.13
    18   1     0.32   0.06   0.09    -0.02  -0.08  -0.02    -0.30  -0.05  -0.08
    19   1    -0.06   0.04   0.14    -0.16  -0.07  -0.01     0.07  -0.04  -0.14
    20   1     0.13   0.03   0.04     0.10  -0.12  -0.01    -0.11   0.09   0.14
    21   1    -0.26   0.23   0.05     0.03  -0.08  -0.03    -0.27   0.08   0.05
    22   1     0.21  -0.10   0.23    -0.13   0.02  -0.07     0.24   0.02   0.10
    23   1     0.06   0.04   0.14     0.16  -0.07  -0.01     0.07   0.04   0.14
    24   1     0.27  -0.00   0.14    -0.17  -0.05  -0.01     0.26  -0.00   0.13
    25   1    -0.32   0.06   0.09     0.02  -0.08  -0.02    -0.30   0.05   0.08
    26   1    -0.02  -0.05  -0.02     0.09  -0.09  -0.21    -0.04  -0.14   0.09
    27   1     0.03  -0.02  -0.04     0.20  -0.17  -0.17    -0.04  -0.01  -0.17
    28   1    -0.01  -0.02  -0.01    -0.33  -0.14   0.17    -0.06  -0.03  -0.12
    29   1    -0.03  -0.02  -0.04    -0.20  -0.17  -0.17    -0.04   0.01   0.17
    30   1     0.01  -0.02  -0.01     0.33  -0.14   0.17    -0.06   0.03   0.12
                     25                     26                     27
                      A                      A                      A
 Frequencies --    878.0885               891.4308               932.0384
 Red. masses --      2.0442                 3.7998                 1.7550
 Frc consts  --      0.9287                 1.7790                 0.8982
 IR Inten    --      0.4912                 3.4121                 0.7729
  Atom  AN      X      Y      Z        X      Y      Z        X      Y      Z
     1   8    -0.00  -0.01  -0.00    -0.00   0.04  -0.04    -0.01  -0.00   0.00
     2   6     0.00   0.04   0.04     0.00   0.06   0.00     0.05   0.00  -0.00
     3   6     0.00  -0.06   0.08     0.26  -0.11  -0.00    -0.03   0.02   0.08
     4   6     0.03   0.03  -0.02     0.07   0.03   0.00    -0.03   0.06  -0.04
     5   6    -0.00  -0.01   0.01    -0.00   0.01   0.00    -0.04  -0.04   0.02
     6   6     0.01  -0.00   0.01    -0.00   0.01   0.01     0.07  -0.04   0.03
     7   6    -0.03   0.03  -0.02    -0.07   0.03   0.00    -0.03  -0.06   0.04
     8   6     0.00  -0.01   0.01     0.00   0.01   0.00    -0.04   0.04  -0.02
     9   6    -0.01  -0.00   0.01     0.00   0.01   0.01     0.07   0.04  -0.03
    10   6    -0.00  -0.06   0.08    -0.26  -0.11  -0.00    -0.03  -0.02  -0.08
    11   6     0.13   0.05  -0.12    -0.19   0.03   0.02     0.01   0.01   0.08
    12   6    -0.13   0.05  -0.12     0.19   0.03   0.02     0.01  -0.01  -0.08
    13   1     0.09  -0.17   0.29     0.29  -0.23  -0.13     0.04  -0.07   0.25
    14   1     0.09   0.12   0.01     0.01   0.00  -0.02    -0.07   0.23  -0.05
    15   1    -0.05  -0.00   0.00    -0.05   0.02  -0.01    -0.22   0.08  -0.02
    16   1     0.01  -0.01   0.00     0.02   0.02  -0.02    -0.07  -0.04   0.04
    17   1     0.03   0.02  -0.03     0.05   0.01  -0.03     0.02   0.08  -0.09
    18   1    -0.07   0.01  -0.02    -0.06  -0.01  -0.02    -0.18   0.07  -0.04
    19   1     0.07   0.01  -0.03     0.01   0.00  -0.02     0.38   0.07  -0.09
    20   1    -0.09   0.12   0.01    -0.01   0.00  -0.02    -0.07  -0.23   0.05
    21   1     0.05  -0.00   0.00     0.05   0.02  -0.01    -0.22  -0.08   0.02
    22   1    -0.01  -0.01   0.00    -0.02   0.02  -0.02    -0.07   0.04  -0.04
    23   1    -0.07   0.01  -0.03    -0.01   0.00  -0.02     0.38  -0.07   0.09
    24   1    -0.03   0.02  -0.03    -0.05   0.01  -0.03     0.02  -0.08   0.09
    25   1     0.07   0.01  -0.02     0.06  -0.01  -0.02    -0.18  -0.07   0.04
    26   1    -0.09  -0.17   0.29    -0.29  -0.23  -0.13     0.04   0.07  -0.25
    27   1     0.48  -0.12  -0.13     0.16  -0.11   0.08     0.12  -0.01   0.14
    28   1    -0.13  -0.12   0.00    -0.38  -0.09   0.10     0.08   0.00   0.15
    29   1    -0.48  -0.12  -0.13    -0.16  -0.11   0.08     0.12   0.01  -0.14
    30   1     0.13  -0.12   0.00     0.38  -0.09   0.10     0.08  -0.00  -0.15
                     28                     29                     30
                      A                      A                      A
 Frequencies --    961.0360               985.0221              1009.5138
 Red. masses --      2.1438                 1.8134                 2.9573
 Frc consts  --      1.1666                 1.0366                 1.7757
 IR Inten    --      2.5054                 2.8492                 0.1613
  Atom  AN      X      Y      Z        X      Y      Z        X      Y      Z
     1   8     0.00   0.00  -0.00     0.00   0.00   0.00    -0.00   0.02  -0.02
     2   6     0.00   0.01   0.02    -0.01  -0.00  -0.00    -0.00   0.03   0.02
     3   6     0.10   0.05   0.01     0.02  -0.04  -0.10    -0.14  -0.06   0.02
     4   6     0.05  -0.11  -0.01     0.00   0.07   0.04     0.16   0.01   0.02
     5   6     0.08   0.03  -0.02    -0.07   0.02   0.01     0.12   0.02   0.01
     6   6    -0.10   0.05  -0.01     0.08  -0.04  -0.01    -0.11  -0.01  -0.01
     7   6    -0.05  -0.11  -0.01     0.00  -0.07  -0.04    -0.16   0.01   0.02
     8   6    -0.08   0.03  -0.02    -0.07  -0.02  -0.01    -0.12   0.02   0.01
     9   6     0.10   0.05  -0.01     0.08   0.04   0.01     0.11  -0.01  -0.01
    10   6    -0.10   0.05   0.01     0.02   0.04   0.10     0.14  -0.06   0.02
    11   6     0.07  -0.00  -0.00    -0.01   0.01  -0.07    -0.09   0.01  -0.02
    12   6    -0.07  -0.00  -0.00    -0.01  -0.01   0.07     0.09   0.01  -0.02
    13   1     0.08   0.18   0.12    -0.00  -0.10  -0.30    -0.18   0.05   0.04
    14   1    -0.00  -0.20  -0.03     0.02   0.00   0.04     0.27   0.09   0.05
    15   1     0.14  -0.03  -0.01    -0.10  -0.01   0.00     0.18  -0.06   0.02
    16   1     0.22  -0.04  -0.01    -0.30   0.18  -0.09     0.02   0.11  -0.06
    17   1     0.07  -0.09   0.05    -0.14   0.08  -0.02    -0.23   0.00   0.04
    18   1     0.02  -0.11   0.01     0.06   0.11   0.01    -0.04   0.03   0.02
    19   1    -0.43  -0.10   0.04     0.34   0.09   0.01    -0.12   0.01   0.05
    20   1     0.00  -0.20  -0.03     0.02  -0.00  -0.04    -0.27   0.09   0.05
    21   1    -0.14  -0.03  -0.01    -0.10   0.01  -0.00    -0.18  -0.06   0.02
    22   1    -0.22  -0.04  -0.01    -0.30  -0.18   0.09    -0.02   0.11  -0.06
    23   1     0.43  -0.10   0.04     0.34  -0.09  -0.01     0.12   0.01   0.05
    24   1    -0.07  -0.09   0.05    -0.14  -0.08   0.02     0.23   0.00   0.04
    25   1    -0.02  -0.11   0.01     0.06  -0.11  -0.01     0.04   0.03   0.02
    26   1    -0.08   0.18   0.12    -0.00   0.10   0.30     0.18   0.05   0.04
    27   1     0.08   0.03   0.06    -0.12  -0.01  -0.18    -0.10  -0.04  -0.10
    28   1     0.19   0.01   0.07    -0.08  -0.02  -0.06    -0.33  -0.01  -0.18
    29   1    -0.08   0.03   0.06    -0.12   0.01   0.18     0.10  -0.04  -0.10
    30   1    -0.19   0.01   0.07    -0.08   0.02   0.06     0.33  -0.01  -0.18
                     31                     32                     33
                      A                      A                      A
 Frequencies --   1022.2311              1034.5374              1062.8181
 Red. masses --      2.2588                 1.5649                 2.5457
 Frc consts  --      1.3907                 0.9868                 1.6942
 IR Inten    --      1.5360                 1.5006                 0.0626
  Atom  AN      X      Y      Z        X      Y      Z        X      Y      Z
     1   8    -0.00   0.01   0.01     0.01   0.00   0.00    -0.00   0.00   0.00
     2   6     0.00  -0.05  -0.07    -0.03  -0.00  -0.00     0.03  -0.00  -0.00
     3   6    -0.01   0.05   0.14     0.05   0.07   0.03     0.00   0.02  -0.03
     4   6    -0.06  -0.03  -0.02    -0.03  -0.00  -0.00    -0.05   0.10   0.00
     5   6    -0.00  -0.04  -0.03    -0.04   0.01   0.03     0.18  -0.01   0.02
     6   6    -0.00   0.03   0.02     0.03   0.01  -0.03    -0.12  -0.07   0.03
     7   6     0.06  -0.03  -0.02    -0.03   0.00   0.00    -0.05  -0.10  -0.00
     8   6     0.00  -0.04  -0.03    -0.04  -0.01  -0.03     0.18   0.01  -0.02
     9   6     0.00   0.03   0.02     0.03  -0.01   0.03    -0.12   0.07  -0.03
    10   6     0.01   0.05   0.14     0.05  -0.07  -0.03     0.00  -0.02   0.03
    11   6    -0.11   0.01  -0.09     0.00   0.11   0.02    -0.00   0.06  -0.01
    12   6     0.11   0.01  -0.09     0.00  -0.11  -0.02    -0.00  -0.06   0.01
    13   1     0.03  -0.02   0.22    -0.00   0.29   0.17     0.02  -0.05  -0.09
    14   1     0.01   0.22   0.02    -0.08  -0.23  -0.03    -0.18   0.14  -0.04
    15   1    -0.05   0.11  -0.02     0.05  -0.14   0.03     0.24  -0.09   0.03
    16   1     0.18  -0.21   0.14    -0.07   0.08  -0.07     0.15   0.03  -0.02
    17   1     0.22  -0.04  -0.03    -0.01  -0.02   0.04    -0.31   0.06  -0.03
    18   1    -0.09  -0.08  -0.02     0.17   0.00   0.02    -0.27   0.08   0.00
    19   1    -0.12  -0.06  -0.06    -0.03   0.00   0.05     0.15   0.05  -0.01
    20   1    -0.01   0.22   0.02    -0.08   0.23   0.03    -0.18  -0.14   0.04
    21   1     0.05   0.11  -0.02     0.05   0.14  -0.03     0.24   0.09  -0.03
    22   1    -0.18  -0.21   0.14    -0.07  -0.08   0.07     0.15  -0.03   0.02
    23   1     0.12  -0.06  -0.06    -0.03  -0.00  -0.05     0.15  -0.05   0.01
    24   1    -0.22  -0.04  -0.03    -0.01   0.02  -0.04    -0.31  -0.06   0.03
    25   1     0.09  -0.08  -0.02     0.17  -0.00  -0.02    -0.27  -0.08  -0.00
    26   1    -0.03  -0.02   0.22    -0.00  -0.29  -0.17     0.02   0.05   0.09
    27   1    -0.29  -0.01  -0.25     0.06  -0.11  -0.29    -0.00  -0.06  -0.20
    28   1    -0.04   0.01  -0.02    -0.05  -0.08   0.34    -0.05  -0.05   0.15
    29   1     0.29  -0.01  -0.25     0.06   0.11   0.29    -0.00   0.06   0.20
    30   1     0.04   0.01  -0.02    -0.05   0.08  -0.34    -0.05   0.05  -0.15
                     34                     35                     36
                      A                      A                      A
 Frequencies --   1074.2219              1105.5861              1111.5847
 Red. masses --      1.6764                 2.0653                 1.9350
 Frc consts  --      1.1397                 1.4874                 1.4087
 IR Inten    --      1.0429                 0.4419                10.7629
  Atom  AN      X      Y      Z        X      Y      Z        X      Y      Z
     1   8     0.00   0.00   0.00     0.00  -0.02   0.01    -0.02  -0.00   0.00
     2   6    -0.00  -0.00  -0.01    -0.00  -0.01  -0.01     0.12  -0.00  -0.00
     3   6    -0.01   0.00   0.03     0.00  -0.01  -0.04    -0.10  -0.00   0.02
     4   6     0.03  -0.02  -0.03    -0.07   0.14  -0.05     0.02  -0.05  -0.08
     5   6    -0.11  -0.00   0.06     0.05  -0.10   0.06     0.02   0.06   0.05
     6   6     0.07   0.05  -0.07    -0.04   0.04  -0.02    -0.01  -0.04  -0.03
     7   6    -0.03  -0.02  -0.03     0.07   0.14  -0.05     0.02   0.05   0.08
     8   6     0.11  -0.00   0.06    -0.05  -0.10   0.06     0.02  -0.06  -0.05
     9   6    -0.07   0.05  -0.07     0.04   0.04  -0.02    -0.01   0.04   0.03
    10   6     0.01   0.00   0.03    -0.00  -0.01  -0.04    -0.10   0.00  -0.02
    11   6    -0.02   0.00  -0.01     0.02  -0.00   0.02     0.02  -0.04  -0.06
    12   6     0.02   0.00  -0.01    -0.02  -0.00   0.02     0.02   0.04   0.06
    13   1    -0.00   0.06   0.15     0.05  -0.23  -0.16    -0.05  -0.03   0.22
    14   1     0.27  -0.20   0.04     0.16   0.21   0.02     0.03  -0.31  -0.09
    15   1     0.03  -0.23   0.07     0.27  -0.22   0.11     0.03  -0.19   0.02
    16   1    -0.13   0.10  -0.10     0.20  -0.16   0.07    -0.11   0.25  -0.18
    17   1     0.07  -0.07   0.10     0.06  -0.08   0.07    -0.26   0.03   0.04
    18   1     0.39  -0.04   0.03     0.10  -0.09   0.01     0.11   0.09   0.03
    19   1    -0.18  -0.01   0.11    -0.24  -0.04   0.04     0.11   0.06   0.08
    20   1    -0.27  -0.20   0.04    -0.16   0.21   0.02     0.03   0.31   0.09
    21   1    -0.03  -0.23   0.07    -0.27  -0.22   0.11     0.03   0.19  -0.02
    22   1     0.13   0.10  -0.10    -0.20  -0.16   0.07    -0.11  -0.25   0.18
    23   1     0.18  -0.01   0.11     0.24  -0.04   0.04     0.11  -0.06  -0.08
    24   1    -0.07  -0.07   0.10    -0.06  -0.08   0.07    -0.26  -0.03  -0.04
    25   1    -0.39  -0.04   0.03    -0.10  -0.09   0.01     0.11  -0.09  -0.03
    26   1     0.00   0.06   0.15    -0.05  -0.23  -0.16    -0.05   0.03  -0.22
    27   1    -0.04  -0.00  -0.03     0.02   0.00   0.03     0.12   0.03   0.13
    28   1    -0.09   0.00  -0.06     0.07   0.01   0.04     0.10   0.00  -0.07
    29   1     0.04  -0.00  -0.03    -0.02   0.00   0.03     0.12  -0.03  -0.13
    30   1     0.09   0.00  -0.06    -0.07   0.01   0.04     0.10  -0.00   0.07
                     37                     38                     39
                      A                      A                      A
 Frequencies --   1133.4058              1153.7935              1165.9061
 Red. masses --      1.5001                 1.2759                 2.8836
 Frc consts  --      1.1354                 1.0008                 2.3095
 IR Inten    --      1.6626                 2.3160                30.0905
  Atom  AN      X      Y      Z        X      Y      Z        X      Y      Z
     1   8    -0.00   0.03  -0.02     0.00   0.01   0.00    -0.03   0.00  -0.00
     2   6     0.00   0.02   0.01    -0.00  -0.02  -0.04     0.22   0.00  -0.00
     3   6    -0.02  -0.04  -0.01     0.01   0.01   0.02    -0.12   0.05  -0.06
     4   6     0.05   0.02   0.05    -0.07   0.03  -0.03     0.03   0.09  -0.03
     5   6    -0.05  -0.06  -0.04     0.03  -0.00   0.02    -0.04  -0.10   0.03
     6   6     0.03   0.06   0.02    -0.01  -0.02  -0.00     0.01   0.07  -0.02
     7   6    -0.05   0.02   0.05     0.07   0.03  -0.03     0.03  -0.09   0.03
     8   6     0.05  -0.06  -0.04    -0.03  -0.00   0.02    -0.04   0.10  -0.03
[...]
 0.00010642,-0.00007110,0.00015081,-0.00005624,0.00013435,0.00000259,0.
 00004808,-0.00002627,0.00004263,0.00000259,0.00001852,0.00002697,-0.00
 001691,-0.00039938,-0.00022570,-0.00018842,0.00112164,0.00025270,0.002
 48998,-0.07312692,-0.08104709,-0.25318197,-0.00094519,-0.00049815,-0.0
 0001606,0.00002100,0.00016130,0.00013963,0.00000318,-0.00000141,0.0000
 0089,0.00006228,0.00004569,0.00004304,0.00001332,-0.00002278,0.0000080
 7,0.00000968,0.00001725,-0.00003054,0.00002121,0.00000577,0.00004106,0
 .00000759,-0.00001770,0.00001679,0.00000060,-0.00001008,-0.00000264,0.
 00000019,-0.00000208,0.00000182,-0.00005241,-0.00001872,0.00000725,-0.
 00001124,-0.00052937,0.00076523,0.00011069,0.00075234,0.00159561,-0.00
 132323,-0.00111863,-0.00493623,0.08224105,0.08896364,0.27330743,0.0001
 2416,-0.00003145,-0.00001395,-0.00017697,0.00009901,0.00003398,0.00002
 935,-0.00000451,-0.00002423,0.00006406,-0.00004553,-0.00014753,-0.0000
 3452,0.00003684,0.00008276,0.00000937,0.00001875,0.00000923,0.00074607
 ,0.00076042,-0.00096484,-0.00192113,-0.00111183,0.00114378,-0.15641971
 ,-0.04836564,0.11777794,0.00020535,-0.00014576,0.00002940,-0.00001779,
 0.00009735,0.00003162,-0.00002476,0.00000031,-0.00002154,0.00000312,-0
 .00002096,0.00001481,0.00002057,-0.00005595,0.00000620,0.00000053,-0.0
 0001216,-0.00006089,-0.00001298,0.00000504,0.00002244,0.00000364,-0.00
 000802,0.00000060,0.00001438,-0.00001146,-0.00000466,-0.00000871,-0.00
 000801,0.00000207,0.00052103,-0.00028580,0.00016912,0.00099098,-0.0003
 0320,-0.00061052,-0.00015249,-0.00017262,-0.00009492,-0.01815324,-0.00
 906004,0.02184650,0.00788258,0.00438273,-0.00839273,0.16630516,0.00005
 804,0.00002342,-0.00003277,0.00004568,-0.00004797,0.00007671,0.0000039
 6,0.00021145,0.00001705,-0.00010214,0.00006451,-0.00043392,-0.00022489
 ,-0.00007117,0.00016768,0.00015954,0.00003662,-0.00006931,-0.00193038,
 0.00169486,0.00091076,-0.02221607,-0.01082374,0.02580966,-0.04818673,-
 0.07086517,0.05354922,0.00020381,-0.00008202,-0.00002563,-0.00019520,0
 .00008558,0.00001590,-0.00006836,0.00004048,0.00001347,-0.00001362,0.0
 0001695,-0.00004620,0.00007577,-0.00004865,0.00000212,0.00017703,0.000
 07189,-0.00021040,-0.00001169,0.00002404,0.00006181,0.00000085,-0.0000
 2823,0.00001008,0.00001146,-0.00007749,-0.00001145,-0.00000316,0.00001
 919,0.00000380,0.00112840,-0.00004139,-0.00068356,-0.00021007,-0.00707
 146,-0.00026137,0.00005598,0.00142776,-0.00043424,0.00787337,0.0039211
 4,-0.01082486,0.00874521,0.00327387,-0.00777205,0.05433928,0.07829400,
 -0.00015524,-0.00002646,0.00002332,0.00008454,0.00000191,0.00000022,-0
 .00001141,-0.00005508,-0.00000582,-0.00020328,0.00001760,0.00013559,0.
 00007196,-0.00009177,0.00000136,-0.00004024,-0.00001900,-0.00001752,0.
 00037541,-0.00030147,0.00012739,-0.00061284,0.00028580,0.00015157,0.11
 761974,0.05377676,-0.18142031,0.00011358,0.00028951,-0.00010439,0.0002
 1644,-0.00003727,0.00004230,-0.00007721,-0.00006228,-0.00002560,-0.000
 01133,-0.00000630,0.00002310,-0.00001496,0.00004058,0.00000649,-0.0000
 2441,-0.00000142,0.00002812,-0.00001643,-0.00001635,-0.00003457,-0.000
 00016,0.00001181,-0.00000264,-0.00000466,0.00001145,0.00000527,0.00000
 179,-0.00000964,-0.00000064,-0.00049822,0.00039042,0.00016216,-0.00007
 574,-0.00015076,0.00141611,-0.00032157,0.00043710,0.00070250,-0.004929
 32,-0.00323702,0.00561151,0.01966795,0.00864121,-0.02013743,-0.1308801
 3,-0.05973422,0.19333617,0.00132749,-0.00396485,-0.00007550,0.01309428
 ,0.02076097,0.00056029,-0.00210833,0.00489825,-0.00003726,-0.00107360,
 0.00095722,-0.00285307,0.00033313,-0.00051586,0.00005867,-0.00018987,0
 .00002790,-0.00005028,-0.00520208,-0.01397198,0.00161030,0.00019256,-0
 .00076573,0.00013408,-0.00007386,-0.00014987,-0.00044472,-0.09523034,-
 0.10619336,-0.00134181,-0.00532885,-0.01549868,-0.00185284,-0.00136251
 ,0.00086178,0.00293640,0.00101056,0.00081273,-0.00001045,-0.00002610,-
 0.00044077,0.00000442,0.00000357,-0.00000009,0.00004232,0.00006856,0.0
 0003392,-0.00002770,-0.00001438,-0.00004266,0.00006228,0.00000312,0.00
 001362,-0.00001133,0.00001005,-0.00010006,0.00004304,0.00082714,0.0007
 0409,0.00018529,0.00003185,0.00004739,-0.00003552,-0.00005546,0.000271
 06,-0.00010665,0.00020947,0.00020353,0.00024999,-0.00065407,0.00072185
 ,0.00016529,-0.00001469,0.00007244,-0.00009483,0.09376516,0.00123605,0
 .00381484,0.00007822,-0.01468886,-0.01699572,-0.00042578,0.00165331,-0
 .00417972,0.00012132,0.00055322,-0.00003074,0.00046550,0.00016421,0.00
 004956,-0.00003253,-0.00014600,-0.00002107,0.00001431,0.00047203,-0.00
 153669,0.00043529,-0.00001707,-0.00009199,-0.00028409,0.00040643,-0.00
 064679,-0.00033002,-0.10178262,-0.27851948,-0.00373530,0.00069983,-0.0
 0104506,-0.00070137,0.00035604,-0.00024947,-0.00048988,-0.00081273,-0.
 00067669,-0.00002718,-0.00006574,-0.00023579,-0.00012846,-0.00002724,-
 0.00001969,0.00002602,-0.00008305,-0.00002676,-0.00005826,0.00002389,0
 .00007632,-0.00004569,0.00002096,0.00001695,0.00000630,-0.00004147,-0.
 00002799,-0.00004478,0.00003061,0.00036241,-0.00055871,0.00004988,0.00
 001430,0.00000380,-0.00008558,0.00004861,0.00001856,0.00010762,0.00018
 371,0.00021401,0.00054385,0.00004618,0.00075212,-0.00003509,0.00000621
 ,-0.00005869,0.11165391,0.29946826,0.00006940,-0.00005974,-0.00073663,
 0.00009950,0.00041834,-0.00157083,0.00011863,0.00005876,-0.00076585,-0
 .00301865,-0.00109522,-0.00360762,0.00091800,-0.00116487,-0.00004783,-
 0.00058811,-0.00005859,-0.00011711,-0.00749956,-0.02391330,0.00161454,
 0.00056356,-0.00037106,0.00011551,-0.00025391,0.00021597,0.00028174,-0
 .00137722,-0.00412577,-0.04874179,0.00686383,0.02313974,0.00181535,0.0
 0295545,0.00156896,-0.00316839,-0.00001045,0.00002718,0.00040050,0.000
 04280,-0.00077392,-0.00015150,-0.00014812,0.00004352,0.00005392,0.0000
 2204,0.00006578,0.00001876,0.00003079,-0.00005680,0.00004304,0.0000148
 1,0.00004620,0.00002310,-0.00003184,-0.00022609,0.00001730,0.00076943,
 0.00022775,0.00111010,-0.00008252,0.00003334,0.00000346,-0.00006129,0.
 00011782,-0.00006691,0.00012436,0.00010984,-0.00000917,-0.00027701,0.0
 0027527,0.00002777,0.00000454,0.00010399,-0.00022348,0.00123169,0.0038
 0213,0.05278868,-0.00078374,0.00140957,-0.00041855,-0.00128681,-0.0041
 7077,0.00272464,0.00055690,-0.00032923,-0.00097369,-0.00012634,-0.0000
 1749,-0.00013365,-0.00007279,0.00000663,0.00006787,0.00005172,0.000015
 42,-0.00002783,-0.00002464,-0.00034441,-0.00212062,-0.00029413,0.00022
 055,-0.00052535,0.00029166,-0.00004741,0.00016607,-0.01414351,0.006795
 76,0.00235064,-0.27767464,0.09367301,-0.01221238,0.00403122,-0.0021836
 0,-0.00003147,0.00007009,-0.00002239,-0.00007468,0.00001463,-0.0000344
 4,0.00001325,0.00004128,0.00006510,-0.00001389,0.00003617,0.00001828,0
 .00004572,-0.00000433,-0.00003743,0.00001420,-0.00000089,-0.00002063,-
 0.00000302,0.00001718,0.00001594,0.00001094,0.00004924,-0.00001011,0.0
 0002811,0.00051940,0.00031554,-0.00136543,0.00045836,-0.00015918,-0.00
 022949,-0.00002083,-0.00005887,-0.00008184,-0.00017075,-0.00034658,0.0
 0002209,-0.00000410,0.00003890,-0.00013801,-0.00049555,-0.00010574,0.0
 0036377,0.30049480,-0.00085021,0.00100109,-0.00031890,0.00018295,-0.00
 302800,0.00165032,0.00017603,-0.00335544,0.00086386,0.00032414,-0.0002
 6998,0.00003355,0.00020302,0.00004534,-0.00022165,-0.00004083,-0.00004
 010,0.00012072,0.00118590,0.00011019,-0.00066369,0.00076243,0.00053879
 ,0.00014484,-0.00001849,0.00014712,0.00031493,-0.01045049,0.00539733,-
 0.00055323,0.09173700,-0.08372721,0.00306704,0.02753068,-0.01154534,0.
 00220552,0.00061723,0.00009819,-0.00111773,-0.00012059,0.00007668,-0.0
 0012754,-0.00014675,-0.00011040,0.00004681,-0.00008005,-0.00000078,-0.
 00000377,0.00002314,0.00006086,-0.00003348,-0.00000871,0.00005315,0.00
 000984,-0.00001895,0.00000714,-0.00002589,-0.00020071,-0.00008897,-0.0
 0023691,-0.00037974,0.00016307,0.00038472,-0.00007354,-0.00012911,0.00
 009893,-0.00000105,-0.00000961,-0.00002036,-0.00009289,-0.00024695,0.0
 0001553,-0.00006007,-0.00009387,-0.00011949,0.00006684,-0.00006612,-0.
 00021371,-0.09956066,0.09170359,0.00189775,-0.00201713,0.00126813,0.00
 194172,0.00489159,-0.00499608,-0.00056427,-0.00085307,0.00047667,0.000
 25767,-0.00030182,0.00005217,0.00014079,-0.00002841,-0.00015381,-0.000
 05903,-0.00003717,0.00004295,-0.00031888,-0.00024917,0.00207372,0.0001
 9193,0.00028893,-0.00153821,-0.00020460,0.00015143,0.00000706,0.025772
 14,-0.01224438,-0.00057767,-0.01329888,0.00363256,-0.04887546,-0.00052
 381,-0.00029381,-0.00162717,-0.00004961,-0.00009919,-0.00012827,-0.000
 02059,0.00007437,-0.00000856,-0.00012186,-0.00008435,0.00008141,-0.000
 06376,-0.00002304,-0.00002609,0.00000279,0.00003299,-0.00002254,-0.000
 00655,0.00003900,0.00001162,-0.00000047,0.00000668,-0.00000323,-0.0000
 7968,0.00025580,0.00059755,-0.00160152,0.00000825,-0.00171215,-0.00023
 996,-0.00019289,0.00048522,0.00002410,-0.00001733,0.00002729,0.0000761
 6,0.00019020,-0.00002625,0.00001759,-0.00014562,0.00016158,0.00002148,
 0.00024096,0.00000848,0.01314929,-0.00468355,0.05332522,-0.00014567,-0
 .00030191,-0.00024922,0.00139666,-0.00018740,0.00051677,-0.00016175,0.
 00073272,0.00006136,-0.00008445,-0.00021875,-0.00011993,-0.00014350,0.
 00008476,0.00009556,0.00006933,0.00001856,-0.00003353,-0.00306660,-0.0
 0059968,0.00249595,-0.00069688,-0.00025120,-0.00002585,0.00015672,-0.0
 0009654,-0.00011887,0.00887990,0.00720082,0.01672532,-0.10454234,-0.04
 013669,-0.09803621,-0.00071338,0.00129653,0.00075715,-0.00006598,0.000
 07633,0.00009129,-0.00001170,-0.00002592,-0.00007901,0.00011863,0.0000
 5076,-0.00001220,0.00000014,-0.00001599,-0.00002437,-0.00000548,0.0000
 0336,0.00000282,0.00000504,-0.00003027,-0.00001195,-0.00000555,0.00000
 643,-0.00000201,0.00063989,0.00020844,0.00110619,0.00066485,0.00009586
 ,-0.00022183,0.00022108,0.00006036,-0.00021700,-0.00000495,-0.00001537
 ,0.00000123,-0.00003016,-0.00004016,0.00001246,0.00001661,0.00012167,-
 0.00002646,0.00094862,-0.00002671,-0.00086053,-0.01357718,-0.01120420,
 -0.02656202,0.10813053,0.00076789,0.00027036,0.00026936,-0.00101734,-0
 .00091856,-0.00066553,-0.00010980,-0.00337192,0.00083640,0.00010080,-0
 .00010682,0.00049217,-0.00006439,0.00012654,0.00005389,0.00007723,-0.0
 0001003,0.00006217,-0.00154250,0.00014945,0.00204521,-0.00008528,0.000
 18011,-0.00005037,-0.00001729,0.00009076,0.00005391,0.00519359,0.00354
 903,0.00858562,-0.03991400,-0.07865926,-0.07776655,-0.01360685,-0.0127
 2490,-0.02419805,0.00054465,-0.00016737,-0.00089672,-0.00000611,0.0000
 9302,-0.00006822,0.00010536,-0.00005890,0.00006391,-0.00001533,-0.0000
 2929,-0.00009732,-0.00001061,0.00011464,-0.00001472,-0.00000272,0.0000
 0147,-0.00003054,-0.00002351,0.00001891,-0.00002809,0.00018197,0.00023
 692,0.00068910,-0.00018230,-0.00009031,-0.00005555,-0.00006640,-0.0000
 4516,0.00009184,0.00000136,-0.00001335,-0.00001041,0.00001445,0.000013
 09,-0.00001831,-0.00001304,-0.00001543,0.00000238,0.00069829,0.0003516
 1,-0.00020999,0.00516587,0.00497338,0.01060914,0.04361355,0.08818527,0
 .00117309,-0.00001516,0.00038216,-0.00232734,0.00080588,-0.00044485,-0
 .00004086,-0.00027585,0.00011246,-0.00015057,0.00051483,0.00047400,0.0
 0012031,-0.00009603,0.00000547,-0.00008094,0.00001322,-0.00000747,0.00
 473516,0.00187854,-0.00315890,0.00069646,-0.00014060,0.00037852,-0.000
 09905,-0.00013110,-0.00010569,-0.01132130,-0.00918338,-0.02147609,-0.0
 9728818,-0.07737700,-0.22760989,0.00196568,0.00204990,0.00316446,-0.00
 006623,-0.00007293,-0.00009366,0.00005483,-0.00002119,0.00007200,-0.00
 003101,0.00000658,-0.00001530,0.00000321,0.00001339,0.00001351,0.00001
 863,-0.00002292,0.00000756,0.00001097,0.00000147,0.00000383,-0.0000145
 9,-0.00004259,-0.00000333,-0.00090951,-0.00052316,-0.00161244,-0.00004
 101,-0.00000795,0.00018979,-0.00007496,0.00002612,-0.00001758,-0.00002
 458,0.00008221,0.00000954,0.00001450,0.00001525,0.00003386,0.00001894,
 -0.00001620,0.00002222,-0.00024770,0.00057009,0.00110678,-0.00121914,0
 .00006636,-0.00026683,0.10421876,0.08115171,0.24693545,-0.00078374,-0.
 00140957,-0.00041855,-0.00128681,0.00417076,0.00272463,-0.01414346,-0.
 00679576,0.00235062,-0.00002464,0.00034441,-0.00212061,-0.00029413,-0.
 00022055,-0.00052535,0.00029166,0.00004740,0.00016607,-0.00012633,0.00
 001750,-0.00013365,-0.00007279,-0.00000663,0.00006786,0.00005172,-0.00
 001542,-0.00002783,0.00055690,0.00032924,-0.00097368,0.00403126,0.0021
 8364,-0.00003147,-0.27767557,-0.09367377,-0.01221194,-0.00049555,0.000
 10574,0.00036377,0.00004924,0.00001011,0.00002811,0.00051940,-0.000315
 54,-0.00136544,0.00045836,0.00015918,-0.00022950,-0.00017075,0.0003465
 8,0.00002209,-0.00000411,-0.00003890,-0.00013801,-0.00002083,0.0000588
 7,-0.00008184,0.00001463,0.00003444,0.00001325,0.00004128,-0.00006510,
 -0.00001389,0.00003617,-0.00001828,0.00004572,0.00001718,-0.00001594,0
 .00001094,-0.00000433,0.00003743,0.00001420,-0.00000089,0.00002063,-0.
 00000302,0.00007009,0.00002239,-0.00007468,0.00165981,-0.00010413,0.00
 000537,0.00038776,0.00039577,0.00060707,0.30049568,0.00085021,0.001001
 09,0.00031890,-0.00018295,-0.00302801,-0.00165033,0.01045051,0.0053973
 4,0.00055322,-0.00118590,0.00011019,0.00066370,-0.00076244,0.00053879,
 -0.00014484,0.00001849,0.00014712,-0.00031493,-0.00032414,-0.00026998,
 -0.00003355,-0.00020301,0.00004534,0.00022165,0.00004083,-0.00004010,-
 0.00012072,-0.00017603,-0.00335545,-0.00086386,-0.02753065,-0.01154531
 ,-0.00220548,-0.09173774,-0.08372751,-0.00306695,-0.00006685,-0.000066
 12,0.00021371,0.00020071,-0.00008897,0.00023691,0.00037974,0.00016307,
 -0.00038472,0.00007355,-0.00012911,-0.00009893,0.00009289,-0.00024695,
 -0.00001553,0.00006007,-0.00009387,0.00011949,0.00000105,-0.00000961,0
 .00002036,0.00012059,0.00007668,0.00012754,0.00014675,-0.00011040,-0.0
 0004681,0.00008004,-0.00000078,0.00000377,0.00001895,0.00000714,0.0000
 2589,-0.00002314,0.00006086,0.00003348,0.00000871,0.00005315,-0.000009
 84,-0.00061723,0.00009819,0.00111773,0.00010412,0.00227720,0.00000687,
 -0.00060267,-0.00394123,0.00067621,0.09956139,0.09170384,0.00189775,0.
 00201713,0.00126813,0.00194171,-0.00489160,-0.00499608,0.02577212,0.01
 224440,-0.00057768,-0.00031888,0.00024918,0.00207373,0.00019192,-0.000
 28893,-0.00153820,-0.00020460,-0.00015143,0.00000706,0.00025766,0.0003
 0182,0.00005217,0.00014079,0.00002841,-0.00015381,-0.00005903,0.000037
 17,0.00004295,-0.00056427,0.00085308,0.00047667,-0.00052380,0.00029382
 ,-0.00162719,-0.01329846,-0.00363247,-0.04887524,0.00002148,-0.0002409
 7,0.00000848,-0.00007968,-0.00025580,0.00059755,-0.00160152,-0.0000082
 5,-0.00171216,-0.00023996,0.00019288,0.00048522,0.00007616,-0.00019021
 ,-0.00002625,0.00001759,0.00014562,0.00016158,0.00002410,0.00001733,0.
 00002729,-0.00002059,-0.00007437,-0.00000855,-0.00012186,0.00008435,0.
 00008141,-0.00006376,0.00002304,-0.00002609,-0.00000047,-0.00000668,-0
 .00000323,0.00000279,-0.00003299,-0.00002254,-0.00000655,-0.00003900,0
 .00001162,-0.00004961,0.00009919,-0.00012827,0.00000537,-0.00000687,0.
 00127667,0.00021674,-0.00084214,0.00006659,0.01314891,0.00468342,0.053
 32504,-0.00014567,0.00030191,-0.00024922,0.00139665,0.00018740,0.00051
 677,0.00887991,-0.00720080,0.01672528,-0.00306659,0.00059968,0.0024959
 6,-0.00069688,0.00025121,-0.00002585,0.00015672,0.00009654,-0.00011887
 ,-0.00008445,0.00021875,-0.00011992,-0.00014350,-0.00008476,0.00009556
 ,0.00006933,-0.00001856,-0.00003353,-0.00016176,-0.00073271,0.00006136
 ,-0.00071339,-0.00129651,0.00075712,-0.10454231,0.04013627,-0.09803556
 ,0.00094862,0.00002670,-0.00086053,0.00063989,-0.00020844,0.00110619,0
 .00066485,-0.00009586,-0.00022183,0.00022108,-0.00006036,-0.00021700,-
 0.00003016,0.00004016,0.00001246,0.00001661,-0.00012167,-0.00002646,-0
 .00000495,0.00001537,0.00000123,-0.00001170,0.00002592,-0.00007901,0.0
 0011863,-0.00005076,-0.00001220,0.00000014,0.00001599,-0.00002437,-0.0
 0000555,-0.00000643,-0.00000201,-0.00000548,-0.00000336,0.00000282,0.0
 0000504,0.00003027,-0.00001195,-0.00006597,-0.00007633,0.00009129,0.00
 038776,0.00060268,0.00021674,0.00161983,-0.00018333,0.00029937,-0.0135
 7723,0.01120417,-0.02656204,0.10813053,-0.00076789,0.00027036,-0.00026
 936,0.00101733,-0.00091856,0.00066553,-0.00519360,0.00354902,-0.008585
 61,0.00154250,0.00014945,-0.00204520,0.00008528,0.00018011,0.00005037,
 0.00001729,0.00009076,-0.00005391,-0.00010081,-0.00010682,-0.00049217,
 0.00006440,0.00012654,-0.00005389,-0.00007723,-0.00001003,-0.00006217,
 0.00010981,-0.00337192,-0.00083640,0.01360689,-0.01272493,0.02419806,0
 .03991359,-0.07865896,0.07776567,-0.00069829,0.00035161,0.00020999,-0.
 00018197,0.00023692,-0.00068909,0.00018230,-0.00009031,0.00005555,0.00
 006640,-0.00004516,-0.00009184,-0.00001445,0.00001309,0.00001831,0.000
 01304,-0.00001543,-0.00000238,-0.00000136,-0.00001335,0.00001041,0.000
 00611,0.00009302,0.00006822,-0.00010536,-0.00005890,-0.00006391,0.0000
 1533,-0.00002929,0.00009732,0.00002351,0.00001891,0.00002809,0.0000106
 1,0.00011464,0.00001472,0.00000272,0.00000147,0.00003054,-0.00054465,-
 0.00016737,0.00089672,-0.00039577,-0.00394123,0.00084214,0.00018333,0.
 00179798,0.00005432,-0.00516589,0.00497338,-0.01060914,-0.04361315,0.0
 8818501,0.00117310,0.00001516,0.00038216,-0.00232735,-0.00080588,-0.00
 044485,-0.01132132,0.00918336,-0.02147607,0.00473516,-0.00187854,-0.00
 315891,0.00069647,0.00014060,0.00037852,-0.00009905,0.00013111,-0.0001
 0569,-0.00015057,-0.00051483,0.00047400,0.00012031,0.00009603,0.000005
 47,-0.00008094,-0.00001322,-0.00000747,-0.00004086,0.00027586,0.000112
 46,0.00196565,-0.00204987,0.00316443,-0.09728756,0.07737613,-0.2276087
 1,-0.00024770,-0.00057009,0.00110678,-0.00090951,0.00052316,-0.0016124
 4,-0.00004101,0.00000795,0.00018979,-0.00007496,-0.00002612,-0.0000175
 8,0.00001450,-0.00001525,0.00003386,0.00001894,0.00001620,0.00002222,-
 0.00002458,-0.00008221,0.00000954,0.00005483,0.00002119,0.00007200,-0.
 00003101,-0.00000658,-0.00001530,0.00000321,-0.00001339,0.00001351,-0.
 00001459,0.00004259,-0.00000333,0.00001863,0.00002292,0.00000756,0.000
 01097,-0.00000147,0.00000383,-0.00006623,0.00007293,-0.00009366,0.0006
 0707,-0.00067620,0.00006659,0.00029937,-0.00005432,0.00183384,-0.00121
 916,-0.00006636,-0.00026683,0.10421821,-0.08115087,0.24693430\\-0.0000
 1255,0.,-0.00002524,-0.00003321,-0.00000002,0.00003843,-0.00001209,-0.
 00001563,0.00003550,0.00001445,0.00001230,-0.00002770,-0.00002251,0.00
 002221,-0.00000793,0.00003288,-0.00001234,-0.00000291,0.00001424,-0.00
 001213,-0.00002816,-0.00002202,-0.00002224,-0.00000815,0.00003290,0.00
 001257,-0.00000308,-0.00001220,0.00001566,0.00003564,0.00000049,0.0000
 0451,0.00001787,-0.00000036,-0.00000447,0.00001707,0.00000547,0.000010
 42,0.00000041,-0.00001058,0.00000057,-0.00002408,-0.00000410,0.0000137
 9,0.00000270,0.00000886,0.00000738,-0.00000071,-0.00000040,-0.00000559
 ,-0.00000198,-0.00000350,-0.00000532,0.00000392,0.00000547,0.00000231,
 0.00000401,-0.00001062,-0.00000063,-0.00002398,-0.00000441,-0.00001392
 ,0.00000301,0.00000885,-0.00000739,-0.00000069,0.00000547,-0.00000241,
 0.00000399,-0.00000035,0.00000553,-0.00000180,-0.00000351,0.00000528,0
 .00000390,0.00000546,-0.00001041,0.00000039,0.00000924,0.00000522,-0.0
 0000017,-0.00000058,0.00000943,-0.00000536,0.00000961,-0.00000517,-0.0
 0000003,-0.00000041,-0.00000956,-0.00000487\\\@


 THERE IS AN OLD, OLD RECIPE IN MAINE FOR STEWING COOT. PLACE THE
 BIRD IN A KETTLE OF WATER WITH A RED BUILDING BRICK FREE OF MORTAR AND
 BLEMISHES. PARBOIL THE COOT AND BRICK TOGETHER FOR THREE HOURS.
 POUR OFF THE WATER, REFILL THE KETTLE, AND AGAIN PARBOIL FOR THREE HOURS.
 ONCE AGAIN POUR OFF THE WATER, FOR THE LAST TIME ADD FRESH WATER,
 AND LET THE COOT AND BRICK SIMMER TOGETHER OVERNIGHT. IN THE MORNING,
 THROW AWAY THE COOT AND EAT THE BRICK.
 Job cpu time:       0 days  0 hours  3 minutes 29.7 seconds.
 Elapsed time:       0 days  0 hours  3 minutes 37.3 seconds.
 File lengths (MBytes):  RWF=    166 Int=      0 D2E=      0 Chk=      6 Scr=      1
 Normal termination of Gaussian 16 at Thu Feb 22 11:23:28 2024.
