 Entering Gaussian System, Link 0=g16
 Input=/Volumes/SSD-PMU3/b3lyp_6-31gd_freq/SDJUYPUXVFDUFF-QMMMGPOBSA-N_calculating/gaussianinput2.gjf
 Output=/Volumes/SSD-PMU3/b3lyp_6-31gd_freq/SDJUYPUXVFDUFF-QMMMGPOBSA-N_calculating/gaussianinput2.log
 Initial command:
 /Applications/g16/l1.exe "/Users/macmini_m1_2022/PycharmProjects/sphere_model/sphere_model_lib/Gau-54676.inp" -scrdir="/Users/macmini_m1_2022/PycharmProjects/sphere_model/sphere_model_lib/"
 Entering Link 1 = /Applications/g16/l1.exe PID=     54677.
  
 Copyright (c) 1988,1990,1992,1993,1995,1998,2003,2009,2016,
            Gaussian, Inc.  All Rights Reserved.
  
 This is part of the Gaussian(R) 16 program.  It is based on
 the Gaussian(R) 09 system (copyright 2009, Gaussian, Inc.),
 the Gaussian(R) 03 system (copyright 2003, Gaussian, Inc.),
 the Gaussian(R) 98 system (copyright 1998, Gaussian, Inc.),
 the Gaussian(R) 94 system (copyright 1995, Gaussian, Inc.),
 the Gaussian 92(TM) system (copyright 1992, Gaussian, Inc.),
 the Gaussian 90(TM) system (copyright 1990, Gaussian, Inc.),
 the Gaussian 88(TM) system (copyright 1988, Gaussian, Inc.),
 the Gaussian 86(TM) system (copyright 1986, Carnegie Mellon
 University), and the Gaussian 82(TM) system (copyright 1983,
 Carnegie Mellon University). Gaussian is a federally registered
 trademark of Gaussian, Inc.
  
 This software contains proprietary and confidential information,
 including trade secrets, belonging to Gaussian, Inc.
  
 This software is provided under written license and may be
 used, copied, transmitted, or stored only in accord with that
 written license.
  
 The following legend is applicable only to US Government
 contracts under FAR:
  
                    RESTRICTED RIGHTS LEGEND
  
 Use, reproduction and disclosure by the US Government is
 subject to restrictions as set forth in subparagraphs (a)
 and (c) of the Commercial Computer Software - Restricted
 Rights clause in FAR 52.227-19.
  
 Gaussian, Inc.
 340 Quinnipiac St., Bldg. 40, Wallingford CT 06492
  
  
 ---------------------------------------------------------------
 Warning -- This program may not be used in any manner that
 competes with the business of Gaussian, Inc. or will provide
 assistance to any competitor of Gaussian, Inc.  The licensee
 of this program is prohibited from giving any competitor of
 Gaussian, Inc. access to this program.  By using this program,
 the user acknowledges that Gaussian, Inc. is engaged in the
 business of creating and licensing software in the field of
 computational chemistry and represents and warrants to the
 licensee that it is not a competitor of Gaussian, Inc. and that
 it will not use this program in any manner prohibited above.
 ---------------------------------------------------------------
  

 Cite this work as:
 Gaussian 16, Revision A.03,
 M. J. Frisch, G. W. Trucks, H. B. Schlegel, G. E. Scuseria, 
 M. A. Robb, J. R. Cheeseman, G. Scalmani, V. Barone, 
 G. A. Petersson, H. Nakatsuji, X. Li, M. Caricato, A. V. Marenich, 
 J. Bloino, B. G. Janesko, R. Gomperts, B. Mennucci, H. P. Hratchian, 
 J. V. Ortiz, A. F. Izmaylov, J. L. Sonnenberg, D. Williams-Young, 
 F. Ding, F. Lipparini, F. Egidi, J. Goings, B. Peng, A. Petrone, 
 T. Henderson, D. Ranasinghe, V. G. Zakrzewski, J. Gao, N. Rega, 
 G. Zheng, W. Liang, M. Hada, M. Ehara, K. Toyota, R. Fukuda, 
 J. Hasegawa, M. Ishida, T. Nakajima, Y. Honda, O. Kitao, H. Nakai, 
 T. Vreven, K. Throssell, J. A. Montgomery, Jr., J. E. Peralta, 
 F. Ogliaro, M. J. Bearpark, J. J. Heyd, E. N. Brothers, K. N. Kudin, 
 V. N. Staroverov, T. A. Keith, R. Kobayashi, J. Normand, 
 K. Raghavachari, A. P. Rendell, J. C. Burant, S. S. Iyengar, 
 J. Tomasi, M. Cossi, J. M. Millam, M. Klene, C. Adamo, R. Cammi, 
 J. W. Ochterski, R. L. Martin, K. Morokuma, O. Farkas, 
 J. B. Foresman, and D. J. Fox, Gaussian, Inc., Wallingford CT, 2016.
 
 ******************************************
 Gaussian 16:  EM64M-G16RevA.03 25-Dec-2016
                21-Feb-2024 
 ******************************************
 %nprocshared=8
 Will use up to    8 processors via shared memory.
 %mem=4GB
 %chk= 2.chk
 ---------------------
 # freq b3lyp/6-31g(d)
 ---------------------
 1/10=4,30=1,38=1/1,3;
 2/12=2,17=6,18=5,40=1/2;
 3/5=1,6=6,7=1,11=2,25=1,30=1,71=2,74=-5,140=1/1,2,3;
 4//1;
 5/5=2,38=5,98=1/2;
 8/6=4,10=90,11=11/1;
 11/6=1,8=1,9=11,15=111,16=1/1,2,10;
 10/6=1/2;
 6/7=2,8=2,9=2,10=2,28=1/1;
 7/8=1,10=1,25=1/1,2,3,16;
 1/10=4,30=1/3;
 99//99;
 ---------
 good luck
 ---------
 Symbolic Z-matrix:
 Charge =  0 Multiplicity = 1
 O                     1.21796   0.        0. 
 C                     0.        0.        0. 
 C                    -0.84106  -1.2842   -0.04418 
 C                     0.02024  -2.56113   0.09606 
 C                    -0.75324  -3.84676  -0.2383 
 C                     0.61452  -2.66519   1.51127 
 C                    -1.71439  -1.21385  -1.32907 
 C                    -2.55646   0.06961  -1.39712 
 C                    -1.68853   1.3304   -1.30487 
 C                    -0.79835   1.29656  -0.04418 
 H                    -1.53836  -1.23609   0.80988 
 H                     0.85579  -2.46609  -0.60991 
 H                    -1.65008  -3.94917   0.38769 
 H                    -1.06802  -3.88924  -1.28595 
 H                    -0.12302  -4.72391  -0.05157 
 H                     1.21061  -1.78419   1.76059 
 H                     1.26408  -3.54451   1.59324 
 H                    -0.18069  -2.7725    2.26181 
 H                    -1.05977  -1.27402  -2.21101 
 H                    -2.3751   -2.08565  -1.3691 
 H                    -3.28421   0.06743  -0.57227 
 H                    -3.1398    0.08069  -2.32638 
 H                    -1.04521   1.3988   -2.19294 
 H                    -2.31142   2.23299  -1.29745 
 H                    -1.43749   1.34979   0.84937 
 H                    -0.09881   2.13692  -0.01576 
 

 GradGradGradGradGradGradGradGradGradGradGradGradGradGradGradGradGradGrad
 Berny optimization.
 Initialization pass.
 Trust Radius=3.00D-01 FncErr=1.00D-07 GrdErr=1.00D-07 EigMax=2.50D+02 EigMin=1.00D-04
 Number of steps in this run=      2 maximum allowed number of steps=      2.
 GradGradGradGradGradGradGradGradGradGradGradGradGradGradGradGradGradGrad

                          Input orientation:                          
 ---------------------------------------------------------------------
 Center     Atomic      Atomic             Coordinates (Angstroms)
 Number     Number       Type             X           Y           Z
 ---------------------------------------------------------------------
      1          8           0        1.217956    0.000000    0.000000
      2          6           0        0.000000    0.000000    0.000000
      3          6           0       -0.841055   -1.284204   -0.044180
      4          6           0        0.020239   -2.561130    0.096056
      5          6           0       -0.753241   -3.846756   -0.238301
      6          6           0        0.614517   -2.665193    1.511267
      7          6           0       -1.714391   -1.213848   -1.329067
      8          6           0       -2.556456    0.069606   -1.397118
      9          6           0       -1.688531    1.330404   -1.304874
     10          6           0       -0.798352    1.296561   -0.044180
     11          1           0       -1.538360   -1.236087    0.809877
     12          1           0        0.855785   -2.466086   -0.609908
     13          1           0       -1.650078   -3.949170    0.387689
     14          1           0       -1.068020   -3.889237   -1.285946
     15          1           0       -0.123018   -4.723911   -0.051570
     16          1           0        1.210605   -1.784192    1.760589
     17          1           0        1.264084   -3.544507    1.593241
     18          1           0       -0.180687   -2.772495    2.261814
     19          1           0       -1.059771   -1.274023   -2.211012
     20          1           0       -2.375097   -2.085653   -1.369104
     21          1           0       -3.284206    0.067427   -0.572267
     22          1           0       -3.139798    0.080692   -2.326377
     23          1           0       -1.045208    1.398798   -2.192939
     24          1           0       -2.311416    2.232986   -1.297454
     25          1           0       -1.437492    1.349788    0.849366
     26          1           0       -0.098814    2.136915   -0.015758
 ---------------------------------------------------------------------
                    Distance matrix (angstroms):
                    1          2          3          4          5
     1  O    0.000000
     2  C    1.217956   0.000000
     3  C    2.427068   1.535743   0.000000
     4  C    2.828982   2.563011   1.546620   0.000000
     5  C    4.328965   3.927046   2.571394   1.537173   0.000000
     6  C    3.122710   3.124870   2.538747   1.538446   2.515520
     7  C    3.440713   2.485756   1.555185   2.618222   3.007621
     8  C    4.025291   2.914147   2.570184   3.973625   4.464564
     9  C    3.452584   2.514718   3.023862   4.475102   5.367991
    10  C    2.397607   1.523282   2.581118   3.946079   5.147177
    11  H    3.127473   2.133158   1.103614   2.166682   2.920733
    12  H    2.566074   2.680660   2.143865   1.097978   2.152512
    13  H    4.896107   4.297558   2.818346   2.191270   1.098485
    14  H    4.691003   4.233260   2.894770   2.204111   1.094738
    15  H    4.910825   4.725794   3.513861   2.172542   1.096107
    16  H    2.506605   2.783627   2.777857   2.188898   3.479428
    17  H    3.886396   4.086546   3.495959   2.180767   2.741441
    18  H    3.841710   3.582622   2.822889   2.185304   2.780725
    19  H    3.420490   2.763118   2.177866   2.854055   3.256456
    20  H    4.374291   3.444631   2.179686   2.847878   2.647757
    21  H    4.538887   3.334373   2.841614   4.274965   4.673130
    22  H    4.940502   3.908564   3.515051   4.778414   5.047828
    23  H    3.447830   2.803226   3.443449   4.696350   5.605505
    24  H    4.373337   3.465870   4.012890   5.510175   6.364981
    25  H    3.097540   2.147029   2.844657   4.241195   5.353063
    26  H    2.510087   2.139256   3.500826   4.700883   6.023464
                    6          7          8          9         10
     6  C    0.000000
     7  C    3.949394   0.000000
     8  C    5.098323   1.536541   0.000000
     9  C    5.403654   2.544498   1.533432   0.000000
    10  C    4.484541   2.965167   2.535111   1.543669   0.000000
    11  H    2.677531   2.146291   2.759018   3.328904   2.773325
    12  H    2.144117   2.948066   4.323520   4.622754   4.148943
    13  H    2.835386   3.230073   4.489724   5.544380   5.331945
    14  H    3.486204   2.752701   4.230867   5.256429   5.339214
    15  H    2.687887   4.060174   5.541654   6.377800   6.058235
    16  H    1.092541   4.292653   5.253421   5.244308   4.096845
    17  H    1.096289   4.779453   6.049842   6.393885   5.510964
    18  H    1.098719   4.204290   5.206688   5.641687   4.717662
    19  H    4.312071   1.099989   2.169753   2.828333   3.372151
    20  H    4.191682   1.094614   2.163057   3.484960   3.959914
    21  H    5.196957   2.163037   1.100002   2.162869   2.822962
    22  H    6.030114   2.168466   1.097239   2.170582   3.488428
    23  H    5.743853   2.831960   2.164244   1.098727   2.165307
    24  H    6.359415   3.498300   2.179493   1.096675   2.176454
    25  H    4.557294   3.375570   2.817381   2.168904   1.099890
    26  H    5.089291   3.944931   3.495987   2.199882   1.093781
                   11         12         13         14         15
    11  H    0.000000
    12  H    3.043126   0.000000
    13  H    2.748007   3.078001   0.000000
    14  H    3.413634   2.486647   1.772974   0.000000
    15  H    3.861373   2.523405   1.767791   1.764481   0.000000
    16  H    2.959912   2.492014   3.841288   4.347956   3.701948
    17  H    3.714317   2.486678   3.179536   3.721191   2.453660
    18  H    2.512359   3.068379   2.656317   3.823751   3.027061
    19  H    3.058800   2.766569   3.775993   2.774015   4.176413
    20  H    2.483918   3.340615   2.661704   2.228964   3.710547
    21  H    2.580203   4.853826   4.441277   4.590861   5.763780
    22  H    3.759601   5.039546   5.081851   4.597292   6.112276
    23  H    4.025260   4.588800   5.968775   5.365302   6.551600
    24  H    4.131940   5.708341   6.441749   6.247222   7.398630
    25  H    2.588143   4.685029   5.323279   5.669519   6.279279
    26  H    3.759137   4.738343   6.293617   6.234360   6.860962
                   16         17         18         19         20
    16  H    0.000000
    17  H    1.769060   0.000000
    18  H    1.778669   1.769281   0.000000
    19  H    4.603096   5.002773   4.798373   0.000000
    20  H    4.768974   4.913998   4.297761   1.760010   0.000000
    21  H    5.392034   6.198583   5.072376   3.071333   2.469247
    22  H    6.253566   6.920957   6.160236   2.484970   2.488813
    23  H    5.554323   6.641103   6.163757   2.672922   3.819517
    24  H    6.155808   7.383749   6.501018   3.834099   4.319703
    25  H    4.202925   5.639680   4.535172   4.048823   4.195589
    26  H    4.499452   6.060109   5.412610   4.168582   4.984284
                   21         22         23         24         25
    21  H    0.000000
    22  H    1.760094   0.000000
    23  H    3.067937   2.478410   0.000000
    24  H    2.482310   2.525325   1.760979   0.000000
    25  H    2.660046   3.820182   3.067883   2.480447   0.000000
    26  H    3.839167   4.337580   2.486080   2.558824   1.777658
                   26
    26  H    0.000000
 Stoichiometry    C9H16O
 Framework group  C1[X(C9H16O)]
 Deg. of freedom    72
 Full point group                 C1      NOp   1
 Largest Abelian subgroup         C1      NOp   1
 Largest concise Abelian subgroup C1      NOp   1
                         Standard orientation:                         
 ---------------------------------------------------------------------
 Center     Atomic      Atomic             Coordinates (Angstroms)
 Number     Number       Type             X           Y           Z
 ---------------------------------------------------------------------
      1          8           0        0.100384   -1.981302   -0.778610
      2          6           0        0.516268   -1.069375   -0.086622
      3          6           0       -0.314295    0.178037    0.248988
      4          6           0       -1.779824    0.060288   -0.231006
      5          6           0       -2.540153    1.394925   -0.171494
      6          6           0       -2.535671   -1.005251    0.581484
      7          6           0        0.464655    1.406578   -0.301034
      8          6           0        1.905849    1.472776    0.227677
      9          6           0        2.690940    0.193404   -0.085779
     10          6           0        1.946313   -1.053282    0.437880
     11          1           0       -0.312090    0.274077    1.348412
     12          1           0       -1.751283   -0.275789   -1.275895
     13          1           0       -2.528201    1.818120    0.842129
     14          1           0       -2.128716    2.145554   -0.853936
     15          1           0       -3.589495    1.242427   -0.449116
     16          1           0       -2.043774   -1.978835    0.519715
     17          1           0       -3.559385   -1.121713    0.206922
     18          1           0       -2.603323   -0.714756    1.638944
     19          1           0        0.475483    1.361284   -1.400036
     20          1           0       -0.065272    2.325346   -0.030436
     21          1           0        1.883627    1.628790    1.316332
     22          1           0        2.417635    2.343635   -0.200825
     23          1           0        2.820965    0.099711   -1.172755
     24          1           0        3.696924    0.236820    0.348738
     25          1           0        1.920293   -1.021833    1.537012
     26          1           0        2.439038   -1.981019    0.133112
 ---------------------------------------------------------------------
 Rotational constants (GHZ):           2.0450564           1.0044420           0.7436474
 Standard basis: 6-31G(d) (6D, 7F)
 There are   182 symmetry adapted cartesian basis functions of A   symmetry.
 There are   182 symmetry adapted basis functions of A   symmetry.
   182 basis functions,   344 primitive gaussians,   182 cartesian basis functions
    39 alpha electrons       39 beta electrons
       nuclear repulsion energy       566.0517555142 Hartrees.
 NAtoms=   26 NActive=   26 NUniq=   26 SFac= 1.00D+00 NAtFMM=   60 NAOKFM=F Big=F
 Integral buffers will be    131072 words long.
 Raffenetti 2 integral format.
 Two-electron integral symmetry is turned on.
 One-electron integrals computed using PRISM.
 NBasis=   182 RedAO= T EigKep=  2.39D-03  NBF=   182
 NBsUse=   182 1.00D-06 EigRej= -1.00D+00 NBFU=   182
 ExpMin= 1.61D-01 ExpMax= 5.48D+03 ExpMxC= 8.25D+02 IAcc=3 IRadAn=         5 AccDes= 0.00D+00
 Harris functional with IExCor=  402 and IRadAn=       5 diagonalized for initial guess.
 HarFok:  IExCor=  402 AccDes= 0.00D+00 IRadAn=         5 IDoV= 1 UseB2=F ITyADJ=14
 ICtDFT=  3500011 ScaDFX=  1.000000  1.000000  1.000000  1.000000
 FoFCou: FMM=F IPFlag=           0 FMFlag=      100000 FMFlg1=           0
         NFxFlg=           0 DoJE=T BraDBF=F KetDBF=T FulRan=T
         wScrn=  0.000000 ICntrl=       500 IOpCl=  0 I1Cent=   200000004 NGrid=           0
         NMat0=    1 NMatS0=      1 NMatT0=    0 NMatD0=    1 NMtDS0=    0 NMtDT0=    0
 Petite list used in FoFCou.
 Requested convergence on RMS density matrix=1.00D-08 within 128 cycles.
 Requested convergence on MAX density matrix=1.00D-06.
 Requested convergence on             energy=1.00D-06.
 No special actions if energy rises.
 Integral accuracy reduced to 1.0D-05 until final iterations.
 Initial convergence to 1.0D-05 achieved.  Increase integral accuracy.
 SCF Done:  E(RB3LYP) =  -427.831262359     A.U. after   13 cycles
            NFock= 13  Conv=0.71D-08     -V/T= 2.0098
 DoSCS=F DFT=T ScalE2(SS,OS)=  1.000000  1.000000
 Range of M.O.s used for correlation:     1   182
 NBasis=   182 NAE=    39 NBE=    39 NFC=     0 NFV=     0
 NROrb=    182 NOA=    39 NOB=    39 NVA=   143 NVB=   143
 Symmetrizing basis deriv contribution to polar:
 IMax=3 JMax=2 DiffMx= 0.00D+00
 G2DrvN: will do    27 centers at a time, making    1 passes.
 Calling FoFCou, ICntrl=  3107 FMM=F I1Cent=   0 AccDes= 0.00D+00.
 End of G2Drv F.D. properties file   721 does not exist.
 End of G2Drv F.D. properties file   722 does not exist.
 End of G2Drv F.D. properties file   788 does not exist.
          IDoAtm=11111111111111111111111111
          Differentiating once with respect to electric field.
                with respect to dipole field.
          Differentiating once with respect to nuclear coordinates.
 Keep R1 ints in memory in canonical form, NReq=146744182.
          There are    81 degrees of freedom in the 1st order CPHF.  IDoFFX=6 NUNeed=     3.
     78 vectors produced by pass  0 Test12= 6.89D-15 1.23D-09 XBig12= 6.36D+01 1.94D+00.
 AX will form    78 AO Fock derivatives at one time.
     78 vectors produced by pass  1 Test12= 6.89D-15 1.23D-09 XBig12= 4.82D+00 3.68D-01.
     78 vectors produced by pass  2 Test12= 6.89D-15 1.23D-09 XBig12= 2.69D-02 2.07D-02.
     78 vectors produced by pass  3 Test12= 6.89D-15 1.23D-09 XBig12= 5.39D-05 1.33D-03.
     78 vectors produced by pass  4 Test12= 6.89D-15 1.23D-09 XBig12= 4.77D-08 2.41D-05.
     34 vectors produced by pass  5 Test12= 6.89D-15 1.23D-09 XBig12= 2.52D-11 4.89D-07.
      3 vectors produced by pass  6 Test12= 6.89D-15 1.23D-09 XBig12= 1.43D-14 1.07D-08.
 InvSVY:  IOpt=1 It=  1 EMax= 7.99D-15
 Solved reduced A of dimension   427 with    81 vectors.
 Isotropic polarizability for W=    0.000000       93.33 Bohr**3.
 End of Minotr F.D. properties file   721 does not exist.
 End of Minotr F.D. properties file   722 does not exist.
 End of Minotr F.D. properties file   788 does not exist.

 **********************************************************************

            Population analysis using the SCF density.

 **********************************************************************

 Orbital symmetries:
       Occupied  (A) (A) (A) (A) (A) (A) (A) (A) (A) (A) (A) (A)
                 (A) (A) (A) (A) (A) (A) (A) (A) (A) (A) (A) (A)
                 (A) (A) (A) (A) (A) (A) (A) (A) (A) (A) (A) (A)
                 (A) (A) (A)
       Virtual   (A) (A) (A) (A) (A) (A) (A) (A) (A) (A) (A) (A)
                 (A) (A) (A) (A) (A) (A) (A) (A) (A) (A) (A) (A)
                 (A) (A) (A) (A) (A) (A) (A) (A) (A) (A) (A) (A)
                 (A) (A) (A) (A) (A) (A) (A) (A) (A) (A) (A) (A)
                 (A) (A) (A) (A) (A) (A) (A) (A) (A) (A) (A) (A)
                 (A) (A) (A) (A) (A) (A) (A) (A) (A) (A) (A) (A)
                 (A) (A) (A) (A) (A) (A) (A) (A) (A) (A) (A) (A)
                 (A) (A) (A) (A) (A) (A) (A) (A) (A) (A) (A) (A)
                 (A) (A) (A) (A) (A) (A) (A) (A) (A) (A) (A) (A)
                 (A) (A) (A) (A) (A) (A) (A) (A) (A) (A) (A) (A)
                 (A) (A) (A) (A) (A) (A) (A) (A) (A) (A) (A) (A)
                 (A) (A) (A) (A) (A) (A) (A) (A) (A) (A) (A)
 The electronic state is 1-A.
 Alpha  occ. eigenvalues --  -19.13429 -10.26728 -10.19419 -10.19380 -10.19169
 Alpha  occ. eigenvalues --  -10.19043 -10.18962 -10.18488 -10.17153 -10.16364
 Alpha  occ. eigenvalues --   -1.03291  -0.83591  -0.79454  -0.73998  -0.71659
 Alpha  occ. eigenvalues --   -0.67669  -0.62768  -0.59021  -0.56373  -0.52864
 Alpha  occ. eigenvalues --   -0.47728  -0.46656  -0.44499  -0.43339  -0.42953
 Alpha  occ. eigenvalues --   -0.42204  -0.41591  -0.39569  -0.38301  -0.37815
 Alpha  occ. eigenvalues --   -0.36275  -0.35359  -0.34894  -0.33733  -0.33171
 Alpha  occ. eigenvalues --   -0.32326  -0.31426  -0.30556  -0.23426
 Alpha virt. eigenvalues --   -0.01266   0.08892   0.09941   0.10570   0.13096
 Alpha virt. eigenvalues --    0.14123   0.14330   0.15062   0.15424   0.15757
 Alpha virt. eigenvalues --    0.16975   0.17389   0.18078   0.18605   0.19021
 Alpha virt. eigenvalues --    0.19658   0.20066   0.21519   0.23006   0.23634
 Alpha virt. eigenvalues --    0.24640   0.26111   0.26500   0.29053   0.29060
 Alpha virt. eigenvalues --    0.33715   0.37592   0.49680   0.50608   0.51534
 Alpha virt. eigenvalues --    0.53358   0.53941   0.54538   0.55871   0.57537
 Alpha virt. eigenvalues --    0.59030   0.61929   0.63506   0.64276   0.64903
 Alpha virt. eigenvalues --    0.68448   0.70141   0.71472   0.72608   0.73734
 Alpha virt. eigenvalues --    0.75243   0.77347   0.78961   0.81063   0.83272
 Alpha virt. eigenvalues --    0.83973   0.85041   0.86191   0.87245   0.87744
 Alpha virt. eigenvalues --    0.89452   0.90095   0.90828   0.91515   0.92306
 Alpha virt. eigenvalues --    0.92739   0.93823   0.94360   0.95256   0.95773
 Alpha virt. eigenvalues --    0.96125   0.99396   1.02238   1.04534   1.06517
 Alpha virt. eigenvalues --    1.10166   1.12404   1.15986   1.17419   1.21999
 Alpha virt. eigenvalues --    1.29254   1.32246   1.39432   1.42613   1.45555
 Alpha virt. eigenvalues --    1.47921   1.48561   1.53926   1.62312   1.63627
 Alpha virt. eigenvalues --    1.67974   1.70325   1.71612   1.72126   1.76569
 Alpha virt. eigenvalues --    1.78622   1.81710   1.82975   1.87123   1.87718
 Alpha virt. eigenvalues --    1.90149   1.92468   1.93577   1.94790   1.98454
 Alpha virt. eigenvalues --    1.99701   2.00479   2.02180   2.04045   2.04467
 Alpha virt. eigenvalues --    2.06599   2.10548   2.13285   2.14024   2.16768
 Alpha virt. eigenvalues --    2.22112   2.24790   2.27776   2.31777   2.33538
 Alpha virt. eigenvalues --    2.34506   2.38132   2.41099   2.41485   2.43696
 Alpha virt. eigenvalues --    2.48291   2.52736   2.54519   2.59376   2.61480
 Alpha virt. eigenvalues --    2.64194   2.64999   2.73317   2.77425   2.78649
 Alpha virt. eigenvalues --    2.85069   2.99415   3.03885   4.03217   4.12209
 Alpha virt. eigenvalues --    4.21011   4.25005   4.29621   4.31787   4.53313
 Alpha virt. eigenvalues --    4.53486   4.57878   4.67646
          Condensed to atoms (all electrons):
               1          2          3          4          5          6
     1  O    8.020474   0.566747  -0.091081   0.004609   0.000459  -0.007451
     2  C    0.566747   4.540504   0.291987  -0.026824   0.004090  -0.002651
     3  C   -0.091081   0.291987   5.278482   0.359392  -0.040921  -0.038065
     4  C    0.004609  -0.026824   0.359392   4.865392   0.361013   0.375551
     5  C    0.000459   0.004090  -0.040921   0.361013   5.135917  -0.056022
     6  C   -0.007451  -0.002651  -0.038065   0.375551  -0.056022   5.128550
     7  C   -0.000503  -0.025494   0.355755  -0.034091  -0.006059   0.003774
     8  C    0.000147  -0.013454  -0.034968   0.003515   0.000295  -0.000120
     9  C    0.000284  -0.027801  -0.004801  -0.000012  -0.000006  -0.000003
    10  C   -0.073486   0.343929  -0.124866   0.005741  -0.000113  -0.000305
    11  H    0.002044  -0.035124   0.342688  -0.040802  -0.003026  -0.006260
    12  H    0.010298  -0.006428  -0.050448   0.377711  -0.046247  -0.041062
    13  H   -0.000005  -0.000022  -0.005920  -0.031923   0.367375  -0.004521
    14  H    0.000003  -0.000056  -0.005622  -0.026321   0.368705   0.005113
    15  H    0.000001  -0.000060   0.004472  -0.030536   0.371454  -0.004675
    16  H    0.010098   0.004558  -0.007185  -0.027937   0.005157   0.369318
    17  H    0.000108   0.000008   0.004472  -0.029357  -0.003958   0.369155
    18  H    0.000185  -0.000045  -0.008001  -0.036374  -0.005328   0.367461
    19  H    0.000780  -0.004608  -0.043959  -0.001949  -0.001161  -0.000000
    20  H   -0.000067   0.003242  -0.030571  -0.006859   0.003550   0.000049
    21  H   -0.000007  -0.001987  -0.004475   0.000065  -0.000026  -0.000001
    22  H    0.000001   0.000315   0.004178  -0.000115   0.000002   0.000002
    23  H    0.000759  -0.003300   0.000051  -0.000024  -0.000001   0.000001
    24  H   -0.000063   0.003589  -0.000243   0.000009  -0.000000  -0.000000
    25  H    0.001818  -0.031293   0.003516  -0.000157  -0.000003   0.000063
    26  H    0.005582  -0.023816   0.006498  -0.000146   0.000001   0.000003
               7          8          9         10         11         12
     1  O   -0.000503   0.000147   0.000284  -0.073486   0.002044   0.010298
     2  C   -0.025494  -0.013454  -0.027801   0.343929  -0.035124  -0.006428
     3  C    0.355755  -0.034968  -0.004801  -0.124866   0.342688  -0.050448
     4  C   -0.034091   0.003515  -0.000012   0.005741  -0.040802   0.377711
     5  C   -0.006059   0.000295  -0.000006  -0.000113  -0.003026  -0.046247
     6  C    0.003774  -0.000120  -0.000003  -0.000305  -0.006260  -0.041062
     7  C    5.050256   0.367599  -0.043892  -0.008082  -0.044179  -0.003590
     8  C    0.367599   5.013591   0.379052  -0.046872  -0.002929  -0.000048
     9  C   -0.043892   0.379052   5.011300   0.346597  -0.001682  -0.000066
    10  C   -0.008082  -0.046872   0.346597   5.270614   0.001690   0.000613
    11  H   -0.044179  -0.002929  -0.001682   0.001690   0.632811   0.006807
    12  H   -0.003590  -0.000048  -0.000066   0.000613   0.006807   0.608938
    13  H   -0.001411  -0.000065  -0.000000   0.000001   0.004030   0.005479
    14  H    0.002177   0.000006  -0.000002   0.000000  -0.000088  -0.003472
    15  H    0.000301  -0.000003   0.000000   0.000002  -0.000128  -0.002480
    16  H    0.000113  -0.000001   0.000001   0.000183  -0.000414  -0.003255
    17  H   -0.000116   0.000001   0.000000   0.000004  -0.000012  -0.003356
    18  H    0.000041  -0.000002  -0.000000   0.000018   0.006466   0.005774
    19  H    0.369959  -0.039045  -0.004967   0.000241   0.006581   0.004079
    20  H    0.370070  -0.031092   0.004659  -0.000244  -0.005798  -0.000252
    21  H   -0.041259   0.373290  -0.042242  -0.003167   0.005364   0.000005
    22  H   -0.030743   0.366865  -0.031943   0.004765  -0.000000   0.000002
    23  H   -0.004443  -0.039307   0.376047  -0.043015   0.000114  -0.000008
    24  H    0.004709  -0.030505   0.369724  -0.029874  -0.000028   0.000001
    25  H   -0.000919  -0.003565  -0.035516   0.348901   0.001972  -0.000010
    26  H   -0.000075   0.004274  -0.024905   0.342740  -0.000138  -0.000008
              13         14         15         16         17         18
     1  O   -0.000005   0.000003   0.000001   0.010098   0.000108   0.000185
     2  C   -0.000022  -0.000056  -0.000060   0.004558   0.000008  -0.000045
     3  C   -0.005920  -0.005622   0.004472  -0.007185   0.004472  -0.008001
     4  C   -0.031923  -0.026321  -0.030536  -0.027937  -0.029357  -0.036374
     5  C    0.367375   0.368705   0.371454   0.005157  -0.003958  -0.005328
     6  C   -0.004521   0.005113  -0.004675   0.369318   0.369155   0.367461
     7  C   -0.001411   0.002177   0.000301   0.000113  -0.000116   0.000041
     8  C   -0.000065   0.000006  -0.000003  -0.000001   0.000001  -0.000002
     9  C   -0.000000  -0.000002   0.000000   0.000001   0.000000  -0.000000
    10  C    0.000001   0.000000   0.000002   0.000183   0.000004   0.000018
    11  H    0.004030  -0.000088  -0.000128  -0.000414  -0.000012   0.006466
    12  H    0.005479  -0.003472  -0.002480  -0.003255  -0.003356   0.005774
    13  H    0.591103  -0.033133  -0.031821  -0.000093  -0.000209   0.004651
    14  H   -0.033133   0.577039  -0.030182  -0.000180  -0.000017  -0.000025
    15  H   -0.031821  -0.030182   0.575595   0.000042   0.004683  -0.000186
    16  H   -0.000093  -0.000180   0.000042   0.537943  -0.026489  -0.029986
    17  H   -0.000209  -0.000017   0.004683  -0.026489   0.578188  -0.032254
    18  H    0.004651  -0.000025  -0.000186  -0.029986  -0.032254   0.599441
    19  H    0.000184   0.000898  -0.000051  -0.000005   0.000003   0.000009
    20  H    0.001368   0.001192  -0.000052  -0.000009  -0.000004  -0.000006
    21  H    0.000010   0.000007  -0.000000  -0.000000   0.000000  -0.000001
    22  H    0.000001   0.000005  -0.000000   0.000000  -0.000000   0.000000
    23  H    0.000000  -0.000000  -0.000000  -0.000001  -0.000000  -0.000000
    24  H   -0.000000  -0.000000  -0.000000   0.000000   0.000000   0.000000
    25  H   -0.000000  -0.000000  -0.000000  -0.000059  -0.000001  -0.000014
    26  H    0.000000   0.000000  -0.000000   0.000003  -0.000000  -0.000000
              19         20         21         22         23         24
     1  O    0.000780  -0.000067  -0.000007   0.000001   0.000759  -0.000063
     2  C   -0.004608   0.003242  -0.001987   0.000315  -0.003300   0.003589
     3  C   -0.043959  -0.030571  -0.004475   0.004178   0.000051  -0.000243
     4  C   -0.001949  -0.006859   0.000065  -0.000115  -0.000024   0.000009
     5  C   -0.001161   0.003550  -0.000026   0.000002  -0.000001  -0.000000
     6  C   -0.000000   0.000049  -0.000001   0.000002   0.000001  -0.000000
     7  C    0.369959   0.370070  -0.041259  -0.030743  -0.004443   0.004709
     8  C   -0.039045  -0.031092   0.373290   0.366865  -0.039307  -0.030505
     9  C   -0.004967   0.004659  -0.042242  -0.031943   0.376047   0.369724
    10  C    0.000241  -0.000244  -0.003167   0.004765  -0.043015  -0.029874
    11  H    0.006581  -0.005798   0.005364  -0.000000   0.000114  -0.000028
    12  H    0.004079  -0.000252   0.000005   0.000002  -0.000008   0.000001
    13  H    0.000184   0.001368   0.000010   0.000001   0.000000  -0.000000
    14  H    0.000898   0.001192   0.000007   0.000005  -0.000000  -0.000000
    15  H   -0.000051  -0.000052  -0.000000  -0.000000  -0.000000  -0.000000
    16  H   -0.000005  -0.000009  -0.000000   0.000000  -0.000001   0.000000
    17  H    0.000003  -0.000004   0.000000  -0.000000  -0.000000   0.000000
    18  H    0.000009  -0.000006  -0.000001   0.000000  -0.000000   0.000000
    19  H    0.601961  -0.036774   0.005781  -0.003941   0.004308  -0.000022
    20  H   -0.036774   0.585120  -0.004270  -0.002218  -0.000006  -0.000180
    21  H    0.005781  -0.004270   0.610169  -0.036101   0.005813  -0.004436
    22  H   -0.003941  -0.002218  -0.036101   0.595361  -0.004407  -0.002020
    23  H    0.004308  -0.000006   0.005813  -0.004407   0.594567  -0.036477
    24  H   -0.000022  -0.000180  -0.004436  -0.002020  -0.036477   0.591251
    25  H    0.000111  -0.000010   0.004587  -0.000040   0.005844  -0.006208
    26  H   -0.000042   0.000017  -0.000038  -0.000144  -0.003266  -0.002701
              25         26
     1  O    0.001818   0.005582
     2  C   -0.031293  -0.023816
     3  C    0.003516   0.006498
     4  C   -0.000157  -0.000146
     5  C   -0.000003   0.000001
     6  C    0.000063   0.000003
     7  C   -0.000919  -0.000075
     8  C   -0.003565   0.004274
     9  C   -0.035516  -0.024905
    10  C    0.348901   0.342740
    11  H    0.001972  -0.000138
    12  H   -0.000010  -0.000008
    13  H   -0.000000   0.000000
    14  H   -0.000000   0.000000
    15  H   -0.000000  -0.000000
    16  H   -0.000059   0.000003
    17  H   -0.000001  -0.000000
    18  H   -0.000014  -0.000000
    19  H    0.000111  -0.000042
    20  H   -0.000010   0.000017
    21  H    0.004587  -0.000038
    22  H   -0.000040  -0.000144
    23  H    0.005844  -0.003266
    24  H   -0.006208  -0.002701
    25  H    0.589741  -0.027554
    26  H   -0.027554   0.562561
 Mulliken charges:
               1
     1  O   -0.451734
     2  C    0.443994
     3  C   -0.160367
     4  C   -0.059574
     5  C   -0.455148
     6  C   -0.457904
     7  C   -0.279899
     8  C   -0.266659
     9  C   -0.269825
    10  C   -0.336014
    11  H    0.130040
    12  H    0.141023
    13  H    0.134922
    14  H    0.143955
    15  H    0.143623
    16  H    0.168198
    17  H    0.139148
    18  H    0.128176
    19  H    0.141632
    20  H    0.149146
    21  H    0.132919
    22  H    0.140174
    23  H    0.146750
    24  H    0.143474
    25  H    0.148796
    26  H    0.161153
 Sum of Mulliken charges =  -0.00000
 Mulliken charges with hydrogens summed into heavy atoms:
               1
     1  O   -0.451734
     2  C    0.443994
     3  C   -0.030326
     4  C    0.081449
     5  C   -0.032648
     6  C   -0.022382
     7  C    0.010879
     8  C    0.006434
     9  C    0.020400
    10  C   -0.026065
 APT charges:
               1
     1  O   -0.629997
     2  C    0.693397
     3  C   -0.065935
     4  C    0.127630
     5  C    0.062210
     6  C    0.052126
     7  C    0.108809
     8  C    0.113716
     9  C    0.145897
    10  C   -0.065247
    11  H   -0.037369
    12  H   -0.042445
    13  H   -0.027728
    14  H   -0.025396
    15  H   -0.032512
    16  H    0.011939
    17  H   -0.037489
    18  H   -0.031813
    19  H   -0.038432
    20  H   -0.037326
    21  H   -0.049256
    22  H   -0.056988
    23  H   -0.039943
    24  H   -0.053888
    25  H   -0.014598
    26  H   -0.029361
 Sum of APT charges =   0.00000
 APT charges with hydrogens summed into heavy atoms:
               1
     1  O   -0.629997
     2  C    0.693397
     3  C   -0.103304
     4  C    0.085185
     5  C   -0.023425
     6  C   -0.005237
     7  C    0.033051
     8  C    0.007472
     9  C    0.052065
    10  C   -0.109206
 Electronic spatial extent (au):  <R**2>=           1672.8132
 Charge=             -0.0000 electrons
 Dipole moment (field-independent basis, Debye):
    X=              1.1438    Y=              2.2147    Z=              1.2441  Tot=              2.7858
 Quadrupole moment (field-independent basis, Debye-Ang):
   XX=            -60.4659   YY=            -68.0945   ZZ=            -62.9426
   XY=             -0.3909   XZ=              0.5119   YZ=             -3.0457
 Traceless Quadrupole moment (field-independent basis, Debye-Ang):
   XX=              3.3684   YY=             -4.2601   ZZ=              0.8917
   XY=             -0.3909   XZ=              0.5119   YZ=             -3.0457
 Octapole moment (field-independent basis, Debye-Ang**2):
  XXX=              6.6042  YYY=              4.8475  ZZZ=             -1.9345  XYY=              3.2709
  XXY=             -4.7768  XXZ=             -2.8505  XZZ=              1.8483  YZZ=              0.3554
  YYZ=              4.8951  XYZ=             -1.0772
 Hexadecapole moment (field-independent basis, Debye-Ang**3):
 XXXX=          -1415.8262 YYYY=           -664.0070 ZZZZ=           -175.0327 XXXY=              0.4488
 XXXZ=             10.6664 YYYX=              1.5226 YYYZ=             -8.6693 ZZZX=              0.3059
 ZZZY=              4.7519 XXYY=           -347.4953 XXZZ=           -269.5363 YYZZ=           -142.1268
 XXYZ=              3.2508 YYXZ=             -0.0853 ZZXY=             -1.4219
 N-N= 5.660517555142D+02 E-N=-2.124250689939D+03  KE= 4.236715602117D+02
  Exact polarizability: 106.625   1.559  93.887   1.926   1.453  79.483
 Approx polarizability: 129.250   4.850 134.398   4.554   9.456 128.333
 Calling FoFJK, ICntrl=    100127 FMM=F ISym2X=0 I1Cent= 0 IOpClX= 0 NMat=1 NMatS=1 NMatT=0.
 Full mass-weighted force constant matrix:
 Low frequencies ---   -6.1622   -0.0009   -0.0007   -0.0004    1.2914    3.8929
 Low frequencies ---   70.2691   88.1271  133.9820
 Diagonal vibrational polarizability:
        7.9031212       4.3301049       6.7404706
 Harmonic frequencies (cm**-1), IR intensities (KM/Mole), Raman scattering
 activities (A**4/AMU), depolarization ratios for plane and unpolarized
 incident light, reduced masses (AMU), force constants (mDyne/A),
 and normal coordinates:
                      1                      2                      3
                      A                      A                      A
 Frequencies --     70.2665                88.1263               133.9813
 Red. masses --      2.6063                 3.8632                 2.6639
 Frc consts  --      0.0076                 0.0177                 0.0282
 IR Inten    --      0.1468                 1.7079                 0.7932
  Atom  AN      X      Y      Z        X      Y      Z        X      Y      Z
     1   8     0.04   0.03  -0.02    -0.06  -0.13   0.26     0.07   0.13  -0.09
     2   6    -0.01   0.02   0.04     0.01  -0.02   0.07     0.00   0.03   0.08
     3   6    -0.01   0.03  -0.03     0.00  -0.01   0.04    -0.02   0.00   0.12
     4   6    -0.01   0.04  -0.01     0.02   0.04  -0.05     0.02  -0.02   0.03
     5   6    -0.03   0.02   0.21     0.03   0.04   0.06    -0.02  -0.04  -0.08
     6   6     0.02  -0.08  -0.14    -0.06  -0.05  -0.24    -0.03  -0.02  -0.02
     7   6     0.02  -0.03  -0.13    -0.01   0.04   0.11    -0.03   0.02   0.14
     8   6     0.01  -0.00  -0.12     0.02   0.02   0.00     0.07  -0.04  -0.09
     9   6     0.00  -0.05   0.05    -0.00   0.05  -0.16    -0.04  -0.09  -0.14
    10   6    -0.05   0.02   0.14     0.07   0.04  -0.09    -0.02   0.01   0.12
    11   1    -0.00   0.11  -0.03    -0.05  -0.04   0.04    -0.05  -0.02   0.12
    12   1    -0.03   0.19  -0.06     0.09   0.16  -0.10     0.12  -0.04   0.04
    13   1     0.02  -0.12   0.27    -0.02  -0.09   0.11    -0.19  -0.03  -0.08
    14   1    -0.08   0.13   0.30     0.07   0.12   0.17     0.07  -0.03  -0.02
    15   1    -0.05   0.05   0.25     0.04   0.07  -0.02     0.03  -0.06  -0.25
    16   1     0.01  -0.07  -0.31    -0.09  -0.05  -0.34     0.02  -0.01   0.06
    17   1     0.00  -0.01  -0.10    -0.04   0.05  -0.33     0.02  -0.08  -0.14
    18   1     0.08  -0.24  -0.09    -0.12  -0.18  -0.21    -0.17   0.00  -0.04
    19   1     0.03  -0.14  -0.13    -0.08   0.13   0.10    -0.19   0.11   0.13
    20   1     0.03   0.01  -0.23    -0.00   0.01   0.22     0.04   0.02   0.28
    21   1    -0.00   0.13  -0.14     0.12  -0.06   0.01     0.26   0.01  -0.10
    22   1     0.04  -0.06  -0.22    -0.02   0.06   0.02     0.03  -0.08  -0.22
    23   1     0.05  -0.17   0.07    -0.15   0.09  -0.18    -0.25  -0.20  -0.16
    24   1    -0.02  -0.03   0.09     0.06   0.04  -0.29     0.04  -0.09  -0.33
    25   1    -0.11   0.13   0.14     0.18   0.04  -0.09     0.02   0.21   0.11
    26   1    -0.05  -0.02   0.26     0.05   0.04  -0.13    -0.05  -0.05   0.25
                      4                      5                      6
                      A                      A                      A
 Frequencies --    189.7432               228.7690               247.1587
 Red. masses --      2.8457                 1.1093                 1.5982
 Frc consts  --      0.0604                 0.0342                 0.0575
 IR Inten    --      2.6454                 0.2089                 0.1461
  Atom  AN      X      Y      Z        X      Y      Z        X      Y      Z
     1   8     0.15  -0.06  -0.07     0.03  -0.03  -0.01    -0.01  -0.03   0.02
     2   6     0.05  -0.06  -0.01     0.00  -0.01  -0.01    -0.02  -0.00  -0.02
     3   6    -0.02  -0.12   0.02    -0.01  -0.01  -0.03     0.00   0.02  -0.08
     4   6    -0.03  -0.01   0.02    -0.01  -0.00  -0.01     0.01   0.00  -0.06
     5   6     0.16   0.10   0.05     0.01   0.01  -0.03     0.03   0.01   0.01
     6   6    -0.17   0.08  -0.01     0.02   0.01   0.03     0.12  -0.03   0.00
     7   6    -0.08  -0.08   0.02    -0.01   0.02   0.02    -0.01   0.08   0.04
     8   6    -0.08   0.02  -0.04    -0.01  -0.00   0.01    -0.00  -0.01   0.04
     9   6    -0.03   0.06  -0.02    -0.02  -0.00  -0.02    -0.07  -0.03  -0.04
    10   6     0.04   0.04   0.04    -0.01   0.01   0.03    -0.06   0.00   0.06
    11   1    -0.02  -0.13   0.02    -0.02  -0.03  -0.02    -0.04  -0.01  -0.07
    12   1    -0.06  -0.00   0.01    -0.04  -0.01  -0.01    -0.03   0.00  -0.06
    13   1     0.49   0.23  -0.01    -0.08  -0.02  -0.01     0.45   0.19  -0.07
    14   1     0.07  -0.05  -0.16     0.09   0.03   0.04    -0.22  -0.12  -0.29
    15   1     0.06   0.21   0.36     0.03   0.04  -0.14    -0.09  -0.02   0.46
    16   1    -0.23   0.03   0.07    -0.24  -0.10  -0.41     0.23   0.02   0.06
    17   1    -0.15   0.14  -0.09    -0.16   0.37   0.42     0.13  -0.17   0.02
    18   1    -0.23   0.11  -0.02     0.52  -0.23   0.13     0.10   0.03  -0.02
    19   1    -0.12  -0.07   0.02    -0.03   0.08   0.02    -0.01   0.20   0.03
    20   1    -0.12  -0.11   0.03    -0.01  -0.00   0.08    -0.01   0.04   0.15
    21   1    -0.05   0.06  -0.04     0.01  -0.02   0.01     0.01  -0.08   0.05
    22   1    -0.15   0.04  -0.08    -0.01   0.00   0.02     0.03  -0.01   0.09
    23   1    -0.05   0.03  -0.02    -0.07  -0.01  -0.02    -0.20  -0.05  -0.05
    24   1    -0.02   0.11  -0.04    -0.00  -0.00  -0.06    -0.02  -0.06  -0.15
    25   1     0.01   0.10   0.04    -0.03   0.06   0.03    -0.10   0.11   0.05
    26   1     0.10   0.05   0.10     0.00   0.00   0.08    -0.05  -0.02   0.16
                      7                      8                      9
                      A                      A                      A
 Frequencies --    272.0596               302.0256               322.4845
 Red. masses --      1.8486                 1.9223                 2.2774
 Frc consts  --      0.0806                 0.1033                 0.1395
 IR Inten    --      2.6614                 0.5386                 0.8954
  Atom  AN      X      Y      Z        X      Y      Z        X      Y      Z
     1   8    -0.09   0.12   0.01     0.07   0.06   0.01    -0.06   0.04  -0.02
     2   6    -0.02   0.04   0.06     0.02   0.03   0.07    -0.02  -0.02   0.04
     3   6    -0.00   0.02   0.11    -0.02   0.03   0.01     0.03  -0.01   0.03
     4   6     0.03  -0.04   0.05    -0.03   0.02  -0.00     0.09  -0.02   0.01
     5   6     0.07  -0.01  -0.06    -0.07   0.00   0.00     0.19   0.03   0.00
     6   6    -0.01  -0.08  -0.05    -0.03   0.02  -0.00     0.11  -0.03  -0.00
     7   6    -0.01  -0.04  -0.02     0.06  -0.06  -0.09    -0.05  -0.03  -0.06
     8   6    -0.01   0.01  -0.03    -0.03  -0.09   0.13    -0.12   0.02   0.03
     9   6     0.02   0.01   0.02    -0.02  -0.01  -0.11    -0.14   0.03  -0.02
    10   6     0.02  -0.02  -0.04     0.05   0.01   0.01    -0.04  -0.02   0.02
    11   1    -0.00   0.08   0.10    -0.04   0.14  -0.01     0.04   0.05   0.02
    12   1     0.10  -0.04   0.05    -0.03   0.02  -0.00     0.11  -0.01   0.01
    13   1     0.37   0.27  -0.18    -0.01   0.04  -0.01    -0.07  -0.16   0.08
    14   1    -0.09  -0.21  -0.38    -0.14  -0.00  -0.05     0.48   0.10   0.26
    15   1    -0.02  -0.04   0.28    -0.08  -0.05   0.09     0.26   0.19  -0.35
    16   1    -0.13  -0.13  -0.30    -0.05   0.01  -0.02     0.20   0.01   0.07
    17   1    -0.06   0.11   0.04    -0.04   0.04   0.01     0.14  -0.14  -0.05
    18   1     0.14  -0.29   0.02    -0.01   0.01   0.00     0.03   0.01  -0.02
    19   1    -0.01  -0.17  -0.01     0.25  -0.24  -0.08     0.00  -0.13  -0.06
    20   1    -0.01  -0.01  -0.13     0.03  -0.01  -0.33    -0.09  -0.03  -0.16
    21   1    -0.01   0.07  -0.04    -0.18  -0.38   0.17    -0.20  -0.04   0.03
    22   1    -0.02  -0.01  -0.08    -0.00   0.04   0.42    -0.09   0.04   0.10
    23   1     0.09   0.02   0.03    -0.26   0.06  -0.15    -0.25   0.04  -0.04
    24   1    -0.01   0.02   0.09     0.07  -0.03  -0.32    -0.09   0.04  -0.13
    25   1     0.10  -0.14  -0.04     0.17   0.07   0.01    -0.01  -0.02   0.02
    26   1    -0.02  -0.00  -0.17    -0.01  -0.01  -0.01     0.01   0.01   0.00
                     10                     11                     12
                      A                      A                      A
 Frequencies --    383.3823               415.1124               430.7518
 Red. masses --      2.9638                 2.5340                 2.5396
 Frc consts  --      0.2567                 0.2573                 0.2776
 IR Inten    --      0.3845                 0.8822                 1.2576
  Atom  AN      X      Y      Z        X      Y      Z        X      Y      Z
     1   8     0.09  -0.07  -0.02    -0.03  -0.06  -0.02    -0.08  -0.06  -0.06
     2   6     0.00  -0.08   0.04    -0.07  -0.00  -0.07    -0.02  -0.10  -0.03
     3   6    -0.01  -0.03   0.11    -0.05  -0.04   0.03     0.11  -0.04   0.06
     4   6     0.01   0.17   0.04    -0.08   0.02   0.08     0.13   0.03   0.04
     5   6    -0.14   0.15  -0.06     0.02   0.10  -0.05    -0.06  -0.09   0.01
     6   6     0.17   0.04  -0.04     0.02  -0.13   0.02    -0.01   0.10  -0.04
     7   6    -0.07  -0.09   0.04     0.09  -0.10   0.03     0.09  -0.04   0.00
     8   6    -0.08  -0.01  -0.04     0.09   0.02   0.04     0.05   0.13   0.04
     9   6    -0.04  -0.00   0.02     0.08   0.05  -0.04    -0.10   0.06  -0.01
    10   6     0.04  -0.08  -0.03    -0.08   0.16  -0.01    -0.06   0.02   0.03
    11   1     0.01  -0.05   0.11     0.00  -0.10   0.04     0.17  -0.08   0.06
    12   1     0.07   0.22   0.02    -0.09   0.03   0.08     0.19   0.03   0.04
    13   1    -0.21   0.29  -0.11    -0.05   0.21  -0.09    -0.08  -0.04  -0.01
    14   1    -0.24   0.11  -0.16     0.20  -0.03  -0.08    -0.29  -0.03  -0.07
    15   1    -0.11  -0.05  -0.05     0.03   0.21  -0.17    -0.04  -0.35   0.11
    16   1     0.37   0.15  -0.14     0.20  -0.03  -0.07    -0.19   0.01  -0.04
    17   1     0.18  -0.14   0.01     0.05  -0.29  -0.02    -0.02   0.30  -0.09
    18   1     0.18  -0.06  -0.01    -0.05  -0.25   0.05    -0.03   0.08  -0.03
    19   1    -0.13  -0.17   0.04     0.17  -0.22   0.03     0.20  -0.21   0.01
    20   1    -0.11  -0.09  -0.01     0.08  -0.06  -0.13    -0.06  -0.06  -0.20
    21   1    -0.03   0.10  -0.05     0.12  -0.03   0.05     0.10   0.23   0.03
    22   1    -0.11  -0.04  -0.14    -0.01   0.08   0.05     0.04   0.07  -0.08
    23   1     0.00   0.00   0.03     0.08   0.08  -0.04    -0.28   0.08  -0.03
    24   1    -0.06   0.05   0.05     0.07  -0.06  -0.01    -0.02  -0.04  -0.18
    25   1     0.14  -0.23  -0.03    -0.24   0.39  -0.02    -0.15   0.11   0.03
    26   1     0.04  -0.02  -0.21    -0.04   0.09   0.28     0.10   0.06   0.16
                     13                     14                     15
                      A                      A                      A
 Frequencies --    456.1626               508.9358               575.6700
 Red. masses --      2.7567                 1.8716                 3.9092
 Frc consts  --      0.3380                 0.2856                 0.7633
 IR Inten    --      0.2322                 2.1881                 7.3822
  Atom  AN      X      Y      Z        X      Y      Z        X      Y      Z
     1   8     0.07  -0.07   0.00     0.07  -0.00  -0.01    -0.21   0.08  -0.05
     2   6     0.04  -0.02  -0.05    -0.05  -0.01   0.08     0.11  -0.12   0.02
     3   6     0.09   0.08  -0.04    -0.06   0.00  -0.01     0.05  -0.08  -0.12
     4   6    -0.01   0.02   0.20    -0.08  -0.04  -0.07    -0.11   0.00  -0.04
     5   6    -0.01   0.05  -0.03     0.01   0.01   0.00    -0.07   0.11  -0.01
     6   6    -0.10  -0.11   0.01    -0.02  -0.04   0.03    -0.03  -0.06   0.02
     7   6     0.02   0.17  -0.09     0.08   0.00   0.02     0.01  -0.01  -0.00
     8   6    -0.01   0.03   0.01     0.10   0.12   0.03     0.00   0.06   0.01
     9   6    -0.10  -0.04   0.02    -0.08   0.01   0.03     0.04   0.06   0.01
    10   6    -0.01  -0.08   0.01    -0.03  -0.05  -0.03     0.25  -0.08   0.17
    11   1     0.30   0.10  -0.04    -0.17   0.04  -0.02     0.01  -0.06  -0.12
    12   1    -0.03   0.01   0.20    -0.11  -0.05  -0.07    -0.24   0.03  -0.05
    13   1    -0.14   0.28  -0.13     0.09  -0.07   0.04    -0.08   0.12  -0.02
    14   1     0.10  -0.11  -0.14     0.10   0.02   0.06    -0.00   0.07  -0.01
    15   1     0.03   0.01  -0.16    -0.01   0.18   0.01    -0.07   0.17  -0.06
    16   1    -0.08  -0.10  -0.14     0.04  -0.01   0.06     0.09   0.00   0.01
    17   1    -0.03  -0.04  -0.21    -0.04  -0.13   0.11    -0.03  -0.20   0.08
    18   1    -0.30  -0.36   0.07     0.04   0.03   0.01    -0.00  -0.07   0.03
    19   1     0.03   0.25  -0.09     0.22  -0.11   0.03     0.03   0.13  -0.01
    20   1     0.02   0.15  -0.00     0.04   0.02  -0.15    -0.06  -0.08   0.11
    21   1    -0.09   0.00   0.01     0.23   0.37  -0.01     0.03   0.13   0.00
    22   1     0.15  -0.02   0.08     0.09  -0.02  -0.26    -0.03   0.04  -0.07
    23   1    -0.18  -0.04   0.01    -0.29   0.05   0.00    -0.21   0.01  -0.02
    24   1    -0.05  -0.04  -0.07     0.01  -0.11  -0.17     0.15   0.20  -0.25
    25   1    -0.01  -0.18   0.01     0.18  -0.35  -0.01     0.22  -0.00   0.16
    26   1     0.02  -0.04  -0.07    -0.07   0.04  -0.37     0.43  -0.02   0.24
                     16                     17                     18
                      A                      A                      A
 Frequencies --    684.9326               757.0739               826.4908
 Red. masses --      3.0471                 2.1579                 2.6187
 Frc consts  --      0.8422                 0.7287                 1.0539
 IR Inten    --      1.7455                 4.1820                 5.7313
  Atom  AN      X      Y      Z        X      Y      Z        X      Y      Z
     1   8     0.01   0.07   0.12    -0.01  -0.07  -0.02     0.02   0.07   0.04
     2   6     0.15   0.22  -0.21     0.06  -0.03  -0.09     0.11  -0.01   0.07
     3   6     0.04  -0.03  -0.06    -0.06   0.13   0.16     0.15  -0.08   0.02
     4   6     0.00   0.00   0.01    -0.04  -0.02  -0.05     0.02  -0.04  -0.10
     5   6    -0.01   0.02   0.00    -0.00  -0.00  -0.01    -0.07   0.12  -0.02
     6   6    -0.01   0.00   0.00    -0.01  -0.01  -0.00    -0.06  -0.09   0.04
     7   6    -0.04  -0.12   0.07    -0.05   0.12   0.03     0.07   0.00   0.02
     8   6    -0.04  -0.05   0.04    -0.02   0.02   0.02    -0.01   0.02  -0.02
     9   6    -0.06  -0.07   0.06     0.01  -0.04  -0.02    -0.15  -0.02  -0.05
    10   6     0.01  -0.00  -0.01     0.08  -0.08  -0.02    -0.07  -0.02  -0.09
    11   1     0.11  -0.30  -0.03    -0.15   0.02   0.16     0.10  -0.06   0.02
    12   1    -0.05   0.01   0.00     0.13  -0.03  -0.04     0.06  -0.02  -0.10
    13   1    -0.05   0.05  -0.01     0.14  -0.12   0.04    -0.01  -0.01   0.03
    14   1    -0.03   0.01  -0.01     0.06   0.03   0.06    -0.15   0.25   0.06
    15   1     0.00  -0.03  -0.02    -0.05   0.17   0.06    -0.09   0.14   0.06
    16   1     0.00   0.01  -0.02     0.02  -0.00   0.05    -0.07  -0.11   0.16
    17   1    -0.00   0.01  -0.01    -0.05  -0.07   0.12    -0.11  -0.14   0.18
    18   1    -0.02  -0.02   0.01     0.10   0.09  -0.02     0.05   0.06   0.00
    19   1     0.11  -0.29   0.07     0.11  -0.35   0.04     0.07  -0.01   0.02
    20   1    -0.05  -0.06  -0.17     0.02   0.31  -0.46    -0.07  -0.08   0.02
    21   1     0.14   0.29  -0.01     0.07   0.06   0.01     0.00  -0.12  -0.00
    22   1    -0.11  -0.20  -0.34     0.06  -0.05  -0.04     0.11   0.00   0.08
    23   1    -0.38  -0.06   0.01     0.08   0.01  -0.01     0.34   0.05   0.01
    24   1     0.07  -0.02  -0.27    -0.01   0.05   0.03    -0.35  -0.09   0.42
    25   1    -0.25  -0.10  -0.01    -0.17   0.21  -0.03    -0.11   0.28  -0.10
    26   1    -0.06  -0.04   0.00     0.19  -0.14   0.33     0.03  -0.04   0.15
                     19                     20                     21
                      A                      A                      A
 Frequencies --    853.9588               866.5426               909.3057
 Red. masses --      1.5851                 2.6087                 1.7147
 Frc consts  --      0.6810                 1.1541                 0.8353
 IR Inten    --      1.4580                 0.2890                 3.4541
  Atom  AN      X      Y      Z        X      Y      Z        X      Y      Z
     1   8    -0.01  -0.02   0.01     0.03   0.04   0.03     0.01  -0.02  -0.02
     2   6     0.01   0.04  -0.07     0.00   0.02   0.04    -0.05  -0.02   0.03
     3   6     0.03  -0.05   0.11     0.01  -0.07  -0.07     0.01   0.07   0.00
     4   6     0.00  -0.02  -0.05     0.00   0.00   0.03     0.10  -0.00  -0.04
     5   6    -0.03   0.04  -0.02     0.02   0.00   0.02    -0.02   0.08  -0.03
     6   6    -0.02  -0.03  -0.00     0.01   0.02  -0.00    -0.02  -0.09   0.05
     7   6    -0.02   0.01  -0.06    -0.12   0.02   0.00    -0.04  -0.04  -0.04
     8   6     0.06   0.07  -0.05     0.01   0.20   0.07    -0.04  -0.03   0.07
     9   6     0.06   0.00   0.03     0.15  -0.07  -0.10     0.10  -0.00   0.03
    10   6    -0.04   0.01   0.06    -0.07  -0.15  -0.00    -0.01  -0.01  -0.05
    11   1     0.11  -0.14   0.11    -0.02  -0.10  -0.07     0.03   0.29  -0.02
    12   1     0.17  -0.01  -0.04    -0.13   0.02   0.01     0.22  -0.05  -0.02
    13   1     0.06  -0.07   0.03    -0.10   0.09  -0.02     0.02  -0.08   0.04
    14   1    -0.06   0.12   0.05    -0.02  -0.03  -0.04    -0.17   0.26   0.07
    15   1    -0.06   0.11   0.06     0.06  -0.12  -0.07    -0.03   0.02   0.08
    16   1    -0.00  -0.03   0.09     0.03   0.03  -0.06    -0.17  -0.17   0.15
    17   1    -0.07  -0.09   0.15     0.04   0.03  -0.06    -0.03   0.04   0.02
    18   1     0.10   0.10  -0.03    -0.03  -0.04   0.01    -0.05   0.00   0.02
    19   1    -0.30  -0.01  -0.06     0.05  -0.12   0.01    -0.10   0.19  -0.05
    20   1    -0.02  -0.04   0.08    -0.41  -0.08  -0.21     0.00  -0.09   0.20
    21   1    -0.26  -0.24  -0.01     0.06   0.09   0.09    -0.06   0.34   0.01
    22   1     0.13   0.24   0.36    -0.09   0.29   0.12    -0.14  -0.11  -0.23
    23   1    -0.22  -0.19   0.01     0.23  -0.00  -0.09    -0.21   0.22  -0.03
    24   1     0.17  -0.06  -0.23     0.10  -0.23   0.01     0.22  -0.10  -0.24
    25   1    -0.11  -0.32   0.06    -0.04   0.09  -0.01    -0.10   0.15  -0.05
    26   1    -0.07   0.06  -0.18    -0.33  -0.35   0.18    -0.09  -0.12   0.14
                     22                     23                     24
                      A                      A                      A
 Frequencies --    920.5619               939.6773               957.5718
 Red. masses --      1.8996                 1.1940                 2.0540
 Frc consts  --      0.9485                 0.6212                 1.1097
 IR Inten    --      2.7297                 2.3237                 1.9708
  Atom  AN      X      Y      Z        X      Y      Z        X      Y      Z
     1   8    -0.01  -0.03  -0.02    -0.00  -0.00  -0.00    -0.02   0.00  -0.01
     2   6    -0.07   0.02  -0.03    -0.01  -0.00   0.00    -0.00  -0.02   0.02
     3   6     0.01   0.07  -0.07    -0.02  -0.01  -0.00    -0.06  -0.08  -0.02
     4   6     0.10   0.01  -0.03     0.02  -0.03   0.00     0.07   0.02  -0.01
     5   6     0.00   0.06  -0.01    -0.02   0.02   0.07     0.07   0.05  -0.01
     6   6    -0.01  -0.09   0.06     0.03  -0.06  -0.05    -0.03  -0.03   0.04
     7   6     0.02   0.00   0.11    -0.02   0.02  -0.01    -0.12   0.09  -0.04
     8   6    -0.05  -0.02  -0.05     0.01  -0.01   0.01     0.07  -0.03   0.04
     9   6     0.03   0.04  -0.07     0.00  -0.01   0.01    -0.02  -0.09   0.04
    10   6    -0.01  -0.01   0.11     0.01   0.02  -0.00     0.05   0.14  -0.02
    11   1    -0.03  -0.15  -0.05    -0.03  -0.02  -0.00    -0.14  -0.13  -0.02
    12   1     0.08  -0.01  -0.02     0.02   0.36  -0.12    -0.01  -0.00  -0.01
    13   1    -0.04  -0.02   0.02    -0.19   0.41  -0.09    -0.16  -0.04   0.03
    14   1    -0.15   0.18   0.03     0.15  -0.28  -0.15    -0.30   0.27   0.00
    15   1     0.01  -0.08   0.03     0.04   0.00  -0.17     0.13  -0.39   0.01
    16   1    -0.20  -0.19   0.13    -0.22  -0.21   0.34     0.04   0.01  -0.04
    17   1     0.00   0.10  -0.05    -0.06   0.13   0.13    -0.01  -0.09   0.02
    18   1    -0.12  -0.05   0.04     0.15   0.39  -0.16    -0.04  -0.13   0.07
    19   1     0.24  -0.24   0.12     0.01  -0.01  -0.01    -0.03  -0.12  -0.03
    20   1     0.01   0.09  -0.23    -0.01   0.04  -0.05    -0.22   0.09  -0.25
    21   1     0.17  -0.21  -0.01     0.02   0.02   0.00     0.14   0.01   0.04
    22   1    -0.24   0.12   0.01     0.03  -0.04  -0.02     0.29  -0.17   0.01
    23   1     0.19  -0.20  -0.02    -0.02  -0.00   0.00    -0.03  -0.11   0.04
    24   1    -0.05   0.28   0.09     0.01  -0.03  -0.01    -0.01  -0.24   0.03
    25   1     0.20  -0.28   0.12     0.03   0.01  -0.00     0.20   0.05  -0.02
    26   1    -0.13   0.03  -0.22     0.01   0.03  -0.02     0.15   0.23  -0.14
                     25                     26                     27
                      A                      A                      A
 Frequencies --    978.9445              1013.2529              1034.4387
 Red. masses --      1.5401                 1.5506                 1.9942
 Frc consts  --      0.8696                 0.9380                 1.2572
 IR Inten    --      0.4733                 2.9350                 4.5910
  Atom  AN      X      Y      Z        X      Y      Z        X      Y      Z
     1   8    -0.01   0.00  -0.01    -0.01  -0.02  -0.02    -0.01  -0.01  -0.01
     2   6     0.01  -0.01   0.01    -0.06   0.01   0.01     0.04  -0.04  -0.01
     3   6     0.00  -0.01  -0.02     0.11  -0.03   0.01     0.06   0.17  -0.04
     4   6     0.01  -0.10   0.03    -0.04  -0.00   0.02    -0.02   0.07  -0.02
     5   6    -0.11   0.05  -0.02    -0.03  -0.03  -0.02     0.01  -0.06   0.00
     6   6     0.11   0.03  -0.00    -0.04   0.02  -0.05    -0.04  -0.02   0.01
     7   6    -0.06   0.00  -0.00    -0.03   0.05  -0.02    -0.07  -0.12   0.05
     8   6     0.03   0.01   0.02    -0.05  -0.04   0.06     0.02   0.07   0.01
     9   6    -0.01  -0.04   0.01     0.05  -0.03  -0.03    -0.03  -0.09  -0.00
    10   6     0.01   0.05  -0.00    -0.01   0.07   0.04     0.02   0.07  -0.01
    11   1     0.01  -0.03  -0.01     0.50  -0.10   0.02     0.04   0.41  -0.06
    12   1     0.00  -0.32   0.10     0.21   0.01   0.03     0.02   0.15  -0.04
    13   1     0.16  -0.04   0.02     0.15  -0.12   0.01     0.08  -0.03  -0.01
    14   1     0.16  -0.00   0.09     0.09  -0.03   0.05     0.11  -0.12  -0.01
    15   1    -0.19   0.49   0.05    -0.08   0.22   0.05    -0.00   0.06  -0.02
    16   1    -0.21  -0.13  -0.01     0.17   0.12  -0.00     0.01   0.00   0.03
    17   1     0.19   0.41  -0.35    -0.11  -0.22   0.22    -0.06  -0.09   0.09
    18   1    -0.18  -0.03  -0.01     0.20   0.12  -0.06     0.02   0.01   0.00
    19   1    -0.02  -0.06   0.00     0.17   0.04  -0.01    -0.05  -0.03   0.04
    20   1    -0.11  -0.01  -0.07    -0.15   0.01  -0.10    -0.18  -0.19   0.08
    21   1     0.06  -0.02   0.02     0.15   0.15   0.03     0.09  -0.11   0.04
    22   1     0.07  -0.02   0.02    -0.08  -0.14  -0.18    -0.21   0.24   0.08
    23   1     0.01  -0.07   0.01     0.09   0.01  -0.03     0.06  -0.32   0.03
    24   1    -0.01  -0.13   0.03     0.02  -0.00   0.03    -0.05  -0.40   0.09
    25   1     0.08  -0.00  -0.00     0.31  -0.00   0.05     0.00  -0.07  -0.01
    26   1     0.06   0.10  -0.07    -0.19   0.03  -0.14     0.30   0.24  -0.10
                     28                     29                     30
                      A                      A                      A
 Frequencies --   1075.0487              1086.0216              1100.4230
 Red. masses --      1.9365                 1.8512                 1.6959
 Frc consts  --      1.3186                 1.2864                 1.2100
 IR Inten    --     15.0939                 2.0984                 0.4215
  Atom  AN      X      Y      Z        X      Y      Z        X      Y      Z
     1   8     0.01  -0.02   0.01     0.00   0.00   0.00     0.00   0.01  -0.01
     2   6    -0.10   0.10  -0.09     0.04  -0.01   0.00    -0.02  -0.04   0.06
     3   6    -0.07   0.03  -0.00     0.00   0.03  -0.01     0.13   0.07  -0.05
     4   6     0.01   0.05   0.01     0.00  -0.02   0.02    -0.01   0.07  -0.06
     5   6     0.01  -0.02  -0.02     0.00   0.01  -0.00    -0.01  -0.05   0.01
     6   6     0.01  -0.03   0.01    -0.01   0.01  -0.02    -0.01  -0.02   0.04
     7   6     0.00  -0.09  -0.04    -0.13  -0.04  -0.03    -0.06   0.01   0.05
     8   6     0.08   0.05   0.03     0.14  -0.08   0.03     0.04  -0.05  -0.03
     9   6    -0.10  -0.01  -0.03    -0.02   0.14  -0.02     0.02   0.05   0.04
    10   6     0.09  -0.07   0.06    -0.05  -0.05   0.03    -0.04  -0.00  -0.02
    11   1     0.12  -0.14   0.01     0.07   0.32  -0.04     0.00  -0.35  -0.01
    12   1     0.18   0.07   0.01     0.07  -0.02   0.02    -0.20   0.13  -0.08
    13   1     0.08  -0.10   0.01    -0.00  -0.01   0.01     0.08   0.00  -0.02
    14   1     0.01   0.02   0.03    -0.01   0.03   0.01     0.13  -0.15  -0.02
    15   1    -0.01   0.02   0.04    -0.00   0.02   0.00    -0.02   0.10  -0.05
    16   1    -0.08  -0.08   0.09     0.04   0.03   0.01    -0.04  -0.03  -0.03
    17   1    -0.01   0.06   0.01    -0.03  -0.05   0.05     0.01   0.00  -0.04
    18   1    -0.00   0.06  -0.02     0.06   0.05  -0.03    -0.11  -0.12   0.07
    19   1    -0.25   0.04  -0.05    -0.02   0.01  -0.04    -0.38  -0.41   0.06
    20   1    -0.07  -0.19   0.17    -0.27  -0.13  -0.03     0.03   0.11  -0.14
    21   1    -0.07   0.07   0.03     0.51  -0.21   0.06    -0.21   0.01  -0.05
    22   1     0.29  -0.05   0.08     0.25  -0.17  -0.01     0.24  -0.12   0.06
    23   1     0.18   0.28  -0.02     0.04   0.11  -0.01    -0.14   0.32   0.00
    24   1    -0.20   0.03   0.20    -0.05   0.38   0.02     0.09  -0.04  -0.09
    25   1     0.51   0.25   0.05    -0.30  -0.19   0.03     0.11   0.11  -0.02
    26   1    -0.00  -0.13   0.10    -0.01  -0.02  -0.01    -0.11  -0.05   0.02
                     31                     32                     33
                      A                      A                      A
 Frequencies --   1147.7588              1166.7688              1174.5306
 Red. masses --      1.5883                 2.3049                 1.9964
 Frc consts  --      1.2328                 1.8487                 1.6226
 IR Inten    --     23.9616                15.7908                 1.2238
  Atom  AN      X      Y      Z        X      Y      Z        X      Y      Z
     1   8     0.02   0.01   0.00    -0.02   0.03   0.02     0.02   0.04   0.01
     2   6    -0.09   0.02   0.03     0.14  -0.05  -0.00    -0.05  -0.02   0.07
     3   6     0.01  -0.06   0.01    -0.10  -0.10   0.00    -0.07   0.01  -0.14
     4   6     0.00   0.10  -0.03     0.04   0.19   0.01     0.01   0.01   0.15
     5   6    -0.01  -0.05  -0.02    -0.03  -0.09  -0.06    -0.00   0.01  -0.06
     6   6     0.01  -0.03   0.04     0.01  -0.06   0.06    -0.01  -0.02  -0.08
     7   6     0.03   0.02   0.01    -0.02   0.03  -0.07    -0.02  -0.01   0.06
     8   6    -0.04   0.03  -0.03     0.00  -0.02   0.04     0.04   0.00  -0.07
     9   6     0.00  -0.06   0.05     0.01   0.04  -0.05    -0.01   0.02   0.07
    10   6     0.08   0.02  -0.07    -0.06  -0.00   0.04     0.02  -0.05  -0.07
    11   1     0.02   0.06  -0.01    -0.11  -0.16   0.01     0.21  -0.27  -0.10
    12   1     0.02   0.20  -0.06     0.24   0.39  -0.05     0.31  -0.05   0.17
    13   1     0.14  -0.10  -0.00     0.30  -0.24   0.00     0.12  -0.22   0.04
    14   1     0.12  -0.09   0.02     0.19  -0.08   0.09    -0.05   0.17   0.09
    15   1    -0.04   0.14  -0.00    -0.10   0.21   0.07    -0.05   0.03   0.13
    16   1    -0.09  -0.08   0.03    -0.14  -0.13   0.10     0.04  -0.01   0.15
    17   1     0.03   0.07  -0.05     0.01   0.11  -0.02    -0.10  -0.04   0.18
    18   1    -0.10  -0.06   0.04    -0.12  -0.05   0.05     0.21   0.25  -0.13
    19   1     0.21   0.06   0.02     0.07   0.18  -0.07     0.05  -0.12   0.06
    20   1    -0.39  -0.22  -0.01     0.23   0.15   0.00     0.16   0.15  -0.11
    21   1     0.08  -0.11  -0.00     0.10   0.08   0.02    -0.03  -0.17  -0.04
    22   1     0.23  -0.08   0.07    -0.15   0.00  -0.10    -0.11   0.17   0.10
    23   1    -0.10  -0.31   0.05     0.10   0.07  -0.04    -0.15  -0.03   0.05
    24   1     0.05   0.48  -0.12    -0.04  -0.25   0.08     0.05  -0.09  -0.08
    25   1    -0.27   0.03  -0.07    -0.08  -0.16   0.04    -0.15   0.11  -0.08
    26   1    -0.02  -0.10   0.13    -0.03   0.07  -0.11     0.26   0.00   0.17
                     34                     35                     36
                      A                      A                      A
 Frequencies --   1205.7343              1238.2134              1270.4162
 Red. masses --      1.7484                 1.5410                 1.3951
 Frc consts  --      1.4976                 1.3920                 1.3267
 IR Inten    --      5.7813                16.7350                 0.3279
  Atom  AN      X      Y      Z        X      Y      Z        X      Y      Z
     1   8     0.00   0.00   0.00     0.03   0.01   0.02    -0.01  -0.01  -0.00
     2   6    -0.02   0.01  -0.00    -0.12   0.05   0.01     0.04   0.02  -0.04
     3   6    -0.05  -0.01  -0.05     0.02  -0.02   0.05    -0.02  -0.05   0.03
     4   6     0.18  -0.03  -0.04    -0.02  -0.00  -0.09    -0.01   0.00  -0.03
     5   6    -0.09  -0.00   0.07     0.01   0.00   0.03     0.00  -0.00   0.00
     6   6    -0.09   0.05   0.04     0.01   0.01   0.05     0.01   0.00   0.02
     7   6    -0.00  -0.01   0.00    -0.03   0.02  -0.06    -0.03   0.02   0.05
     8   6     0.01   0.01  -0.01     0.03  -0.04   0.02     0.01  -0.02  -0.11
     9   6    -0.01  -0.00   0.01    -0.00   0.04   0.01    -0.01   0.03   0.10
    10   6     0.02  -0.01  -0.01     0.00  -0.07  -0.02    -0.02  -0.02  -0.00
    11   1    -0.25  -0.06  -0.05     0.35  -0.27   0.07     0.15   0.38  -0.01
    12   1     0.46  -0.09  -0.01    -0.02   0.05  -0.11     0.06   0.09  -0.05
    13   1     0.02   0.30  -0.06    -0.05   0.09  -0.01    -0.01   0.00   0.00
    14   1     0.22  -0.25  -0.02     0.00  -0.07  -0.06    -0.00  -0.02  -0.02
    15   1    -0.08   0.28  -0.12     0.03  -0.04  -0.07     0.01   0.00  -0.01
    16   1     0.23   0.23  -0.19    -0.04  -0.01  -0.09    -0.02  -0.01  -0.03
    17   1    -0.06  -0.32   0.07     0.06   0.03  -0.10     0.03   0.03  -0.05
    18   1     0.06  -0.26   0.13    -0.12  -0.12   0.07    -0.05  -0.05   0.03
    19   1     0.02   0.02  -0.00     0.03   0.10  -0.06     0.39   0.11   0.04
    20   1     0.01   0.00  -0.01     0.07   0.06  -0.00    -0.11   0.01  -0.09
    21   1    -0.01  -0.03  -0.01     0.26  -0.09   0.03     0.08  -0.27  -0.06
    22   1     0.00   0.03   0.02    -0.37   0.15  -0.07    -0.10   0.13   0.08
    23   1    -0.01  -0.01   0.01    -0.00  -0.04   0.01    -0.20   0.25   0.05
    24   1    -0.00   0.01  -0.00     0.01  -0.19   0.01     0.07  -0.25  -0.06
    25   1     0.01   0.03  -0.01    -0.09  -0.00  -0.01     0.41   0.27  -0.01
    26   1     0.01  -0.02   0.02     0.54   0.17   0.13    -0.19  -0.12   0.01
                     37                     38                     39
                      A                      A                      A
 Frequencies --   1291.8275              1315.5775              1335.4118
 Red. masses --      1.2897                 1.3366                 1.3534
 Frc consts  --      1.2680                 1.3630                 1.4220
 IR Inten    --      1.0469                 1.5518                 3.9139
  Atom  AN      X      Y      Z        X      Y      Z        X      Y      Z
     1   8     0.01   0.00   0.01    -0.00   0.01   0.00     0.01  -0.01   0.00
     2   6    -0.04   0.04  -0.03     0.03  -0.03   0.02    -0.06   0.04  -0.01
     3   6     0.01  -0.03  -0.00    -0.08   0.01  -0.03     0.01  -0.11  -0.02
     4   6     0.02   0.01   0.03    -0.07  -0.01  -0.06     0.04  -0.03   0.01
     5   6    -0.01  -0.01  -0.01     0.02   0.01   0.04    -0.02  -0.00  -0.03
     6   6    -0.01  -0.01  -0.02     0.02   0.01   0.04    -0.01   0.01   0.01
     7   6     0.04   0.04   0.04    -0.01  -0.02   0.06    -0.01   0.03   0.04
     8   6    -0.03  -0.04  -0.04    -0.02   0.02  -0.02     0.03  -0.00   0.02
     9   6     0.05   0.01  -0.04     0.01  -0.01  -0.04    -0.03  -0.03  -0.02
    10   6    -0.05  -0.04   0.04     0.01   0.02   0.01     0.05   0.01   0.01
    11   1    -0.25   0.15  -0.02     0.57   0.06  -0.03     0.17   0.62  -0.09
    12   1    -0.06  -0.00   0.04     0.45  -0.03  -0.04    -0.16   0.27  -0.09
    13   1     0.03  -0.04   0.00    -0.09   0.07   0.01     0.06  -0.05  -0.01
    14   1     0.01   0.02   0.02    -0.03  -0.07  -0.08     0.03   0.04   0.05
    15   1    -0.02   0.07   0.02     0.06  -0.11  -0.06    -0.05   0.05   0.04
    16   1     0.02   0.01   0.04    -0.04  -0.01  -0.09     0.02   0.03  -0.02
    17   1    -0.03  -0.01   0.04     0.06   0.06  -0.10     0.01  -0.03  -0.03
    18   1     0.04   0.04  -0.02    -0.09  -0.04   0.04     0.02  -0.04   0.02
    19   1     0.14  -0.04   0.04     0.13  -0.01   0.06    -0.28  -0.30   0.05
    20   1    -0.40  -0.20  -0.03     0.05   0.04  -0.03     0.28   0.23  -0.06
    21   1    -0.27   0.08  -0.06    -0.29   0.12  -0.04    -0.10   0.11   0.01
    22   1     0.17  -0.14  -0.02     0.32  -0.14   0.05    -0.13   0.10   0.02
    23   1     0.06   0.32  -0.07     0.08   0.11  -0.05     0.07   0.10  -0.02
    24   1     0.04  -0.25  -0.01    -0.01  -0.04   0.01    -0.06   0.07   0.04
    25   1    -0.07  -0.13   0.05    -0.22  -0.18   0.01    -0.16  -0.10   0.01
    26   1     0.49   0.27  -0.02     0.02   0.04  -0.01     0.01  -0.01   0.02
                     40                     41                     42
                      A                      A                      A
 Frequencies --   1355.1293              1361.4635              1380.3245
 Red. masses --      1.3352                 1.3947                 1.3501
 Frc consts  --      1.4446                 1.5232                 1.5155
 IR Inten    --      3.8089                 4.2848                 1.4342
  Atom  AN      X      Y      Z        X      Y      Z        X      Y      Z
     1   8    -0.00  -0.01  -0.01    -0.00  -0.00  -0.01    -0.01   0.00  -0.00
     2   6    -0.03   0.00   0.01    -0.01  -0.01   0.01     0.04  -0.01   0.00
     3   6     0.01  -0.00   0.01     0.01   0.06   0.01    -0.02  -0.00  -0.03
     4   6     0.00   0.06  -0.02    -0.00  -0.14   0.04    -0.07  -0.01   0.00
     5   6     0.00  -0.01   0.02     0.01   0.01  -0.05     0.03  -0.00   0.01
     6   6     0.00  -0.02  -0.02    -0.01   0.04   0.04     0.01  -0.00   0.02
     7   6     0.01   0.02  -0.01    -0.01  -0.02  -0.01     0.09   0.07  -0.01
     8   6     0.01  -0.01  -0.03     0.01   0.00  -0.02     0.03  -0.04   0.01
     9   6    -0.04  -0.02  -0.00    -0.02  -0.01  -0.00    -0.01  -0.05   0.02
    10   6     0.12   0.06   0.03     0.05   0.03   0.01    -0.03   0.01  -0.00
    11   1    -0.03  -0.08   0.02    -0.11  -0.27   0.04    -0.08   0.02  -0.03
    12   1    -0.07  -0.35   0.11     0.01   0.72  -0.23     0.47   0.06  -0.01
    13   1    -0.00   0.05  -0.00    -0.02  -0.08  -0.01    -0.08   0.00   0.01
    14   1     0.02  -0.06  -0.02    -0.09   0.15   0.05    -0.08  -0.00  -0.05
    15   1     0.02  -0.01  -0.05    -0.05   0.08   0.10     0.03   0.00  -0.01
    16   1    -0.03  -0.04   0.07     0.07   0.09  -0.14     0.01   0.00  -0.07
    17   1    -0.04  -0.01   0.07     0.06  -0.00  -0.12     0.03   0.08  -0.06
    18   1     0.00   0.04  -0.03     0.00  -0.06   0.06    -0.05   0.03   0.01
    19   1     0.02   0.03  -0.01     0.17   0.14  -0.02    -0.42  -0.23  -0.01
    20   1    -0.11  -0.05  -0.02    -0.09  -0.07   0.02    -0.37  -0.20  -0.03
    21   1     0.11  -0.16  -0.01    -0.03  -0.06  -0.01     0.06  -0.00   0.01
    22   1    -0.19   0.10  -0.04    -0.02   0.02  -0.01    -0.41   0.19  -0.06
    23   1     0.03   0.46  -0.03     0.02   0.20  -0.02    -0.06   0.14  -0.00
    24   1    -0.06  -0.32   0.07    -0.02  -0.10   0.02    -0.02   0.21   0.01
    25   1    -0.40  -0.30   0.03    -0.17  -0.14   0.01     0.06   0.06  -0.01
    26   1    -0.31  -0.18   0.05    -0.13  -0.07   0.02    -0.01   0.03  -0.04
                     43                     44                     45
                      A                      A                      A
 Frequencies --   1386.9834              1400.4666              1411.8692
 Red. masses --      1.4424                 1.5100                 1.5243
 Frc consts  --      1.6349                 1.7449                 1.7902
 IR Inten    --      6.0684                 1.3064                12.3194
  Atom  AN      X      Y      Z        X      Y      Z        X      Y      Z
     1   8     0.00   0.01   0.00     0.00   0.01   0.01     0.01  -0.01  -0.00
     2   6     0.02  -0.02   0.00     0.02  -0.02   0.00    -0.05   0.04  -0.01
     3   6     0.01   0.01   0.02    -0.05   0.01  -0.00     0.13  -0.05  -0.02
     4   6     0.01   0.02  -0.01     0.03  -0.01  -0.00    -0.11   0.00   0.02
     5   6    -0.01   0.00   0.00    -0.01   0.00  -0.01     0.01   0.02   0.01
     6   6     0.00   0.00  -0.01    -0.01  -0.00   0.00     0.04   0.02  -0.00
     7   6    -0.07  -0.03  -0.00     0.05  -0.02  -0.01    -0.05  -0.03  -0.01
     8   6     0.10   0.00  -0.01    -0.12   0.09  -0.02    -0.04   0.04   0.00
     9   6    -0.01  -0.14   0.00     0.04  -0.10   0.02     0.01  -0.02   0.00
    10   6    -0.05   0.02   0.00    -0.05   0.01   0.01     0.01  -0.00   0.01
    11   1    -0.03  -0.10   0.03     0.18  -0.01  -0.00    -0.54   0.10  -0.04
    12   1    -0.11  -0.09   0.03    -0.16   0.04  -0.02     0.57   0.01   0.04
    13   1     0.03  -0.01   0.01     0.04   0.00  -0.01    -0.07  -0.06   0.04
    14   1     0.04  -0.03   0.00     0.02   0.01   0.02     0.01  -0.05  -0.06
    15   1     0.00  -0.04  -0.01    -0.01  -0.01  -0.00     0.02  -0.11   0.04
    16   1    -0.04  -0.03   0.05     0.03   0.02  -0.01    -0.10  -0.05   0.01
    17   1    -0.02  -0.04   0.05     0.00  -0.01  -0.03     0.00  -0.00   0.08
    18   1    -0.02  -0.04  -0.00     0.05   0.01   0.00    -0.15  -0.06   0.01
    19   1     0.32   0.22  -0.01    -0.25  -0.04  -0.02     0.07   0.04  -0.01
    20   1     0.09   0.08  -0.04     0.14   0.03   0.02     0.34   0.19   0.02
    21   1    -0.28   0.10  -0.03     0.58  -0.31   0.06     0.17  -0.10   0.03
    22   1    -0.23   0.22   0.03     0.22  -0.08   0.05     0.15  -0.06   0.01
    23   1     0.03   0.41  -0.04    -0.06   0.47  -0.04     0.03   0.10  -0.01
    24   1    -0.02   0.58  -0.04     0.07   0.13  -0.05     0.02  -0.02  -0.03
    25   1     0.02  -0.01   0.00     0.06  -0.07   0.01    -0.02  -0.02   0.01
    26   1     0.14   0.14  -0.06     0.17   0.13   0.01     0.07   0.03  -0.01
                     46                     47                     48
                      A                      A                      A
 Frequencies --   1427.9530              1447.5236              1500.8311
 Red. masses --      1.2580                 1.2274                 1.0944
 Frc consts  --      1.5114                 1.5152                 1.4525
 IR Inten    --      4.8696                 4.2620                 5.1579
  Atom  AN      X      Y      Z        X      Y      Z        X      Y      Z
     1   8     0.00  -0.00  -0.00     0.00   0.00   0.00     0.00   0.00   0.00
     2   6    -0.01   0.01   0.00     0.00  -0.01  -0.00     0.01   0.00  -0.01
     3   6     0.03  -0.02   0.00    -0.02  -0.00  -0.00     0.00  -0.01   0.00
     4   6    -0.01   0.03  -0.01    -0.01   0.01   0.00    -0.00   0.00   0.00
     5   6     0.04  -0.08   0.00     0.06  -0.09  -0.01     0.00   0.00   0.00
     6   6    -0.05  -0.08   0.05     0.04   0.06  -0.05     0.00  -0.00   0.00
     7   6    -0.03  -0.01  -0.00     0.01  -0.00   0.00     0.00  -0.00   0.00
     8   6     0.00   0.01  -0.00    -0.00   0.00  -0.00     0.02   0.01   0.01
     9   6    -0.00  -0.01  -0.00     0.00  -0.00  -0.00     0.00   0.01  -0.01
    10   6    -0.00  -0.00   0.00    -0.00  -0.00  -0.00    -0.04   0.05  -0.05
    11   1    -0.08   0.02  -0.00     0.06   0.01  -0.01    -0.03   0.03  -0.00
    12   1     0.04  -0.10   0.04    -0.01  -0.00   0.00     0.01  -0.00   0.00
    13   1    -0.19   0.29  -0.13    -0.28   0.33  -0.17    -0.00  -0.00   0.00
    14   1    -0.23   0.19   0.12    -0.31   0.27   0.15    -0.00  -0.00  -0.00
    15   1    -0.04   0.33   0.05    -0.06   0.43   0.11    -0.00   0.00   0.00
    16   1     0.32   0.14  -0.27    -0.25  -0.12   0.23     0.00   0.00  -0.00
    17   1     0.04   0.32  -0.27    -0.04  -0.21   0.25    -0.00   0.01  -0.00
    18   1     0.18   0.41  -0.08    -0.18  -0.31   0.05    -0.00   0.00  -0.00
    19   1     0.06   0.05  -0.00    -0.03   0.00   0.00    -0.02   0.03   0.00
    20   1     0.12   0.07  -0.01     0.02   0.01  -0.01    -0.01   0.01  -0.04
    21   1    -0.00   0.00   0.00     0.01   0.00   0.00    -0.12  -0.13   0.02
    22   1     0.02   0.00   0.01     0.02  -0.00   0.01    -0.02  -0.06  -0.16
    23   1     0.01   0.03  -0.00    -0.00   0.00  -0.00    -0.08  -0.04  -0.01
    24   1     0.00   0.04  -0.01     0.00   0.01   0.00    -0.04   0.03   0.08
    25   1    -0.00   0.00   0.00     0.00  -0.00  -0.00     0.36  -0.56  -0.01
    26   1     0.02   0.02  -0.01     0.01   0.00   0.00     0.06  -0.14   0.66
                     49                     50                     51
                      A                      A                      A
 Frequencies --   1517.0574              1518.3609              1519.5771
 Red. masses --      1.0728                 1.0836                 1.0657
 Frc consts  --      1.4547                 1.4719                 1.4498
 IR Inten    --      3.9178                 5.0700                 4.8375
  Atom  AN      X      Y      Z        X      Y      Z        X      Y      Z
     1   8    -0.00   0.00   0.00     0.00  -0.00   0.00     0.00   0.00   0.00
     2   6     0.01  -0.01  -0.00    -0.00   0.00  -0.00    -0.01   0.00  -0.00
     3   6    -0.01   0.00  -0.00     0.01   0.00   0.00     0.01  -0.01   0.00
     4   6    -0.00   0.02  -0.01    -0.00   0.00   0.00    -0.00   0.01  -0.00
[...]
 3724,0.00141471,0.01521991,0.00046693,-0.00114935,-0.00027687,0.000010
 90,0.00004647,-0.00014169,-0.00156070,0.00008013,-0.00404656,-0.000096
 60,-0.00009205,0.00029098,0.00000685,-0.00001634,-0.00020412,-0.000112
 70,-0.00006231,-0.00010752,0.00005812,-0.00000373,-0.00004334,0.000017
 24,0.00000125,-0.00003917,-0.00003158,0.00002678,0.00010959,-0.0001320
 8,-0.00001435,0.00009542,0.15222452,0.00012875,0.00014280,0.00022836,0
 .00041736,-0.00025475,-0.00096336,-0.00055250,-0.00021329,0.00068491,-
 0.00059259,0.00033296,0.00043319,-0.00023249,0.00010392,0.00049418,0.0
 0002615,-0.00004892,0.00003511,0.00435604,-0.05241294,-0.00928462,0.01
 822787,-0.00229310,-0.02339971,0.00061479,0.00186624,-0.00099746,-0.00
 020997,-0.00013146,0.00009829,0.00046393,0.00078673,0.00014625,0.00014
 435,0.00014627,-0.00003217,0.00017313,0.00008356,-0.00018083,-0.000198
 28,-0.00017840,-0.00012395,0.00009298,-0.00001845,-0.00020522,-0.00001
 670,-0.00000237,-0.00004467,0.00001637,-0.00001287,-0.00000325,0.00004
 845,-0.00001605,-0.00005181,-0.00921600,0.05371099,-0.00164615,-0.0002
 7357,0.00056212,0.00324956,0.00193811,-0.00065804,0.01408622,-0.002209
 35,-0.02386058,0.00121014,-0.00084116,0.00073338,-0.00025960,0.0002633
 5,-0.00017011,-0.00033660,0.00010833,0.00013913,0.12054299,-0.00918497
 ,-0.20817213,-0.00130753,0.00021896,0.00190945,-0.00016579,0.00009966,
 -0.00008804,-0.00006828,-0.00038815,-0.00029209,-0.00366725,-0.0003574
 9,-0.00418639,-0.00093790,0.00047721,0.00010202,-0.00005754,-0.0001876
 5,0.00017197,0.00019462,0.00034565,0.00002323,-0.00000514,0.00008386,0
 .00010202,0.00008321,0.00000262,0.00002309,-0.00012598,0.00007700,0.00
 000001,0.00001094,-0.00010086,0.00029277,-0.12980302,0.00984039,0.2297
 8854,-0.00128061,-0.00107241,0.00049530,0.00010156,0.00354110,-0.00342
 445,-0.01195954,-0.01440556,-0.00288726,-0.00004969,-0.00146307,0.0002
 5561,-0.00003045,-0.00013607,-0.00092439,0.00022857,0.00022161,-0.0000
 6034,-0.14623337,-0.12859101,-0.00159770,0.01244058,0.01723294,0.00069
 039,-0.00223649,0.00265933,-0.00022769,-0.00007660,-0.00001404,0.00064
 575,0.00113458,0.00069713,0.00031383,0.00005930,0.00004956,-0.00009739
 ,0.00006030,0.00016829,-0.00021974,-0.00050914,0.00133784,0.00075062,0
 .00044227,0.00005709,0.00053993,0.00012452,-0.00000685,0.00026431,-0.0
 0005385,0.00008728,-0.00002349,-0.00000932,-0.00002032,-0.00003040,-0.
 01217093,-0.01565987,-0.00028613,0.15756283,0.00006607,0.00023565,-0.0
 0023253,0.00089011,0.00007098,0.00022504,0.00044284,0.00225364,-0.0000
 8022,0.00018940,-0.00018189,-0.00055626,0.00142718,-0.00163666,0.00017
 157,-0.00013382,0.00010387,0.00012764,-0.12890680,-0.21327642,-0.00572
 466,-0.01705991,-0.02279234,-0.00040845,0.00553900,-0.00353798,0.00033
 256,0.00018710,0.00066167,0.00026868,-0.00003516,0.00015886,-0.0004289
 5,0.00003910,-0.00004693,0.00004311,-0.00002584,-0.00004627,-0.0000981
 4,0.00137713,-0.00156825,0.00108562,0.00028710,0.00011183,0.00032906,-
 0.00000857,-0.00000489,0.00000524,-0.00004378,0.00006006,-0.00006674,0
 .00001895,0.00000583,-0.00001285,0.00137581,0.00190376,0.00049692,0.13
 568643,0.23685495,-0.00269875,-0.00186962,0.00132038,-0.00067941,0.004
 64506,-0.00555357,-0.01950419,-0.02426093,-0.00461613,0.00069016,-0.00
 055917,0.00074475,-0.00057265,0.00043036,0.00069868,0.00015382,-0.0002
 4315,0.00000692,-0.00158206,-0.00558850,-0.04898258,0.00125368,0.00037
 043,-0.00065804,-0.00030432,0.00002803,0.00035577,0.00032911,0.0001436
 8,0.00071979,0.00091309,-0.00012391,0.00158874,0.00000534,0.00002689,0
 .00001533,0.00021250,0.00034963,-0.00040269,-0.00008395,0.00028493,0.0
 0006077,0.00022050,-0.00001003,-0.00015891,0.00008556,-0.00002356,0.00
 015585,0.00003771,0.00008267,0.00005520,0.00001940,0.00000314,-0.00003
 386,0.01608339,0.02196603,0.00099532,0.00571185,0.00472847,0.05259148,
 0.00023215,0.00000495,0.00007517,-0.00032563,-0.00005765,-0.00006875,0
 .00033769,-0.00069284,0.00146473,0.00024326,0.00018146,-0.00031826,-0.
 00001423,0.00001923,0.00011347,-0.00001041,0.00000536,-0.00000584,-0.0
 1314464,0.00110800,0.01441813,-0.15741491,-0.00053153,0.12129002,-0.01
 335102,-0.00102019,0.01506369,0.00042415,0.00076859,0.00108865,-0.0000
 7065,0.00018936,-0.00101514,0.00019100,-0.00015323,-0.00001058,0.00001
 095,0.00003046,-0.00003162,-0.00002204,-0.00008463,-0.00006348,-0.0000
 1199,-0.00000272,-0.00004541,-0.00001197,-0.00000351,-0.00000211,0.000
 00776,-0.00000359,-0.00001498,0.00000339,0.00002775,-0.00004580,-0.001
 17986,0.00335087,-0.00046094,0.00093159,-0.00009180,-0.00043292,0.1707
 8387,-0.00003220,0.00020683,-0.00001263,0.00002039,-0.00062696,-0.0000
 2165,-0.00073256,0.00104960,-0.00116768,-0.00016817,-0.00013630,0.0000
 7876,0.00000938,-0.00000689,-0.00011696,-0.00005070,-0.00000750,0.0000
 1744,0.02045767,-0.00173746,-0.02290070,-0.00048432,-0.04802876,0.0003
 3117,-0.02020859,-0.00175607,0.02307327,0.00085111,0.00098528,0.000744
 89,-0.00015834,0.00011233,0.00076439,-0.00018212,0.00006793,0.00003374
 ,-0.00001635,-0.00003241,0.00005886,0.00003844,0.00010186,0.00003877,-
 0.00000087,-0.00001097,0.00004991,0.00000598,0.00000724,0.00001193,0.0
 0000561,-0.00000677,0.00000279,0.00001074,-0.00000999,0.00003725,0.003
 84056,-0.00466789,0.00077343,-0.00071676,0.00112662,-0.00021307,0.0004
 6567,0.05713202,0.00014765,-0.00002447,-0.00009482,-0.00033779,0.00002
 350,0.00013189,-0.00042986,0.00021130,0.00085852,-0.00016802,0.0000467
 2,0.00027773,0.00005816,-0.00002050,-0.00006583,0.00006667,-0.00006383
 ,-0.00003349,-0.00118739,-0.00053755,0.00027066,0.12187329,0.00031574,
 -0.19365950,-0.00163577,0.00056229,0.00072957,-0.00034692,-0.00016541,
 0.00095281,0.00026519,0.00003400,0.00048810,-0.00004896,0.00009468,-0.
 00008772,-0.00001186,-0.00000885,0.00003124,0.00000093,0.00003629,0.00
 003014,-0.00000161,-0.00002206,0.00002149,-0.00000916,0.00000877,-0.00
 001374,0.00001946,-0.00001717,0.00003271,-0.00000715,-0.00000661,0.000
 00635,-0.00061715,-0.00001715,0.00133581,0.00002011,-0.00057124,0.0001
 7014,-0.13606764,-0.00041995,0.20788366,-0.00048194,0.00008504,0.00002
 605,0.00110860,-0.00012242,0.00041328,-0.00120497,0.00325359,0.0013203
 0,-0.00008681,-0.00046990,-0.00108659,-0.00009937,-0.00010113,-0.00006
 356,-0.00023774,0.00036487,0.00013160,-0.01037066,0.00059471,-0.015856
 58,-0.11954004,0.00120178,-0.11348145,-0.01056360,0.00015037,-0.016343
 53,-0.00159966,-0.00352203,0.00090955,0.00023432,0.00000310,-0.0002135
 0,-0.00003450,-0.00002607,0.00002592,0.00002878,0.00001057,-0.00000174
 ,0.00002990,0.00000300,0.00003955,0.00000915,0.00006170,0.00000719,0.0
 0001886,-0.00002450,0.00003194,-0.00007019,0.00004437,-0.00015534,0.00
 002993,0.00000095,-0.00001380,0.00020042,-0.00071952,0.00018484,0.0007
 2923,-0.00007942,0.00035058,0.01257381,-0.00022478,0.01870947,0.128706
 56,-0.00000984,0.00090855,0.00001574,-0.00003505,-0.00246290,0.0000570
 8,0.00316627,-0.00467698,-0.00124449,0.00074104,0.00081683,0.00151893,
 0.00005050,0.00020451,0.00007843,0.00031553,-0.00058324,-0.00018581,0.
 01502150,-0.00063305,0.02561157,0.00125177,-0.04785811,0.00224426,-0.0
 1465950,0.00060316,-0.02532628,-0.00351955,-0.00459380,0.00081453,-0.0
 0038967,-0.00002145,-0.00035192,0.00008722,-0.00009141,-0.00005334,-0.
 00003159,-0.00000253,0.00000921,-0.00002308,-0.00000256,-0.00006444,-0
 .00000680,-0.00005445,-0.00001273,0.00000738,0.00002347,0.00000855,0.0
 0010656,-0.00004917,0.00023929,-0.00003235,0.00001230,0.00001303,-0.00
 051847,0.00115646,-0.00049127,-0.00080946,0.00082735,0.00016682,0.0000
 0555,-0.00041327,0.00004371,-0.00129908,0.05475977,-0.00011186,0.00002
 574,-0.00006740,0.00039633,-0.00004493,0.00019015,0.00021130,0.0008051
 7,0.00114766,-0.00009682,-0.00042834,0.00007788,-0.00005096,-0.0000101
 7,-0.00003442,-0.00002576,0.00007810,0.00005767,0.00081948,-0.00007773
 ,-0.00029709,-0.11437568,0.00219033,-0.23822771,0.00056145,0.00013051,
 -0.00077933,0.00000921,-0.00096425,0.00134884,0.00007003,-0.00007853,0
 .00048103,-0.00008273,0.00011561,-0.00001652,0.00001829,-0.00000802,-0
 .00000594,0.00000234,-0.00001932,0.00000594,-0.00000425,0.00003783,-0.
 00000550,0.00000953,-0.00000864,0.00000510,-0.00001561,0.00001629,-0.0
 0003467,0.00000974,-0.00001299,-0.00001209,-0.00023256,0.00029924,0.00
 079641,0.00006009,0.00052227,0.00004004,-0.01272439,0.00023773,-0.0214
 8876,0.12585177,-0.00233053,0.25561383,0.00007525,-0.00039777,0.000370
 16,0.00153608,-0.00048505,-0.00049145,0.00004492,-0.00002589,-0.000191
 85,0.00003898,0.00005103,0.00003762,-0.00000460,0.00000191,0.00001185,
 0.00000955,-0.00003374,-0.00000290,0.00047449,0.00116052,-0.00025136,-
 0.01367190,-0.00182426,0.01624735,-0.13780888,-0.00594605,0.12139792,0
 .01126922,0.00137226,-0.01779066,-0.00013162,0.00000745,-0.00004170,0.
 00001268,0.00000644,0.00000686,-0.00000041,0.00000574,-0.00000950,-0.0
 0000242,0.00001365,0.00001095,0.00001173,-0.00000973,0.00000663,0.0000
 0424,0.00000243,-0.00001151,0.00000758,-0.00000692,0.00001710,-0.00000
 670,-0.00000643,0.00000214,0.00070676,-0.00054112,-0.00018887,0.000051
 10,0.00007770,-0.00028945,-0.00135697,-0.00400503,-0.00073284,0.000263
 51,0.00054567,-0.00023022,0.15061878,-0.00005208,0.00015143,-0.0002328
 7,-0.00057972,-0.00026563,0.00087168,0.00020808,-0.00015752,-0.0000510
 9,0.00003169,0.00000663,0.00002930,-0.00001054,0.00000458,0.00001724,0
 .00000604,-0.00001589,-0.00000438,-0.00062769,0.00180070,0.00100261,-0
 .01780484,-0.00258496,0.02318549,-0.00545676,-0.05320694,0.01131992,-0
 .00034965,-0.00024922,0.00039805,-0.00002267,0.00008656,-0.00020560,0.
 00003247,-0.00002762,-0.00000555,0.00000602,0.00000664,-0.00000876,-0.
 00000190,-0.00001139,-0.00000790,-0.00000357,0.00000495,-0.00000545,0.
 00000768,-0.00000531,0.00002092,-0.00000017,0.00000900,0.00000124,0.00
 000512,0.00000646,-0.00000935,0.00052460,-0.00038917,-0.00053167,0.000
 11486,0.00030998,-0.00038242,-0.00338962,-0.00451696,-0.00011951,0.000
 72964,0.00115934,-0.00029467,0.01062551,0.05450368,-0.00154092,0.00029
 188,0.00054453,0.00286006,-0.00184051,-0.00058361,-0.00002681,0.000362
 57,-0.00029376,0.00012987,0.00001892,-0.00001416,-0.00004948,0.0000211
 0,-0.00000979,-0.00000710,-0.00000027,0.00000577,-0.00020625,-0.000031
 30,-0.00008828,-0.00168392,-0.00025734,0.00258573,0.12100614,0.0113182
 3,-0.21296615,0.01344038,0.00229952,-0.02366576,-0.00007677,-0.0000589
 4,0.00013834,-0.00004961,0.00003345,0.00000935,-0.00000355,-0.00000792
 ,0.00000334,0.00001218,0.00000961,0.00001183,0.00000584,0.00002428,0.0
 0000300,0.00002210,-0.00000883,0.00000716,-0.00000809,0.00002223,-0.00
 000036,-0.00000686,-0.00001417,0.00001326,-0.00017623,0.00053512,0.000
 11516,-0.00019423,0.00010918,0.00020349,-0.00059087,-0.00089527,0.0014
 1378,0.00019758,0.00049097,0.00083947,-0.12970787,-0.01191330,0.234552
 17,-0.00129448,0.00129247,0.00059926,-0.00007895,-0.00383706,-0.003543
 33,-0.00016856,0.00007022,0.00051637,0.00009713,0.00003829,0.00017208,
 -0.00003006,-0.00003419,-0.00007591,0.00001316,-0.00004904,-0.00000251
 ,-0.00251448,-0.00258778,-0.00029774,0.01304148,-0.01786966,-0.0000580
 9,-0.13503403,0.12305018,0.00480467,-0.01136297,0.01610266,-0.00190072
 ,-0.00002170,-0.00002612,0.00000071,0.00000646,-0.00006063,-0.00004148
 ,0.00001907,0.00001865,-0.00001794,0.00000634,0.00003509,0.00007597,0.
 00002987,0.00003560,0.00003485,0.00003456,-0.00001081,0.00006512,0.000
 00073,0.00002872,0.00001424,0.00001507,0.00000805,-0.00001197,0.000057
 78,-0.00009577,-0.00019747,0.00071261,-0.00112774,0.00007660,0.0009605
 3,0.00076122,0.00004445,0.00067346,0.00088217,0.00001645,-0.01140422,0
 .01597357,0.00046135,0.14491390,0.00004473,0.00006580,0.00012243,-0.00
 041565,0.00063998,-0.00014160,-0.00026715,0.00066884,-0.00024842,-0.00
 000284,0.00007300,0.00007845,0.00004547,-0.00005644,-0.00008687,0.0000
 4015,-0.00004797,-0.00004232,-0.00573257,-0.00326684,-0.00050462,0.016
 57635,-0.02181248,-0.00050944,0.12166449,-0.22297196,-0.00355798,-0.00
 035654,0.00128595,-0.00000370,0.00001403,-0.00002955,0.00005821,0.0000
 0484,-0.00002286,0.00000131,-0.00001000,0.00002360,-0.00002511,-0.0000
 0937,0.00006306,0.00010960,0.00005185,-0.00001931,0.00005407,0.0000060
 6,0.00001719,0.00000725,0.00002272,-0.00002182,0.00003536,-0.00001194,
 -0.00000164,0.00000821,-0.00003505,0.00032140,-0.00010850,0.00109040,-
 0.00159656,0.00012180,0.00007953,0.00110026,0.00060704,0.00001411,0.00
 074255,-0.00049285,-0.00116153,0.00220423,-0.00072686,-0.13179075,0.24
 213271,-0.00266260,0.00195437,0.00122536,-0.00096089,-0.00434256,-0.00
 534539,0.00015885,-0.00010917,0.00061399,0.00014241,0.00006826,0.00013
 691,-0.00005190,0.00000618,-0.00003325,-0.00001094,-0.00004708,0.00000
 341,-0.00041925,-0.00009315,0.00039447,0.00188503,-0.00077444,-0.00089
 329,0.00489741,-0.00413274,-0.04912584,-0.01791174,0.02571581,-0.00319
 089,-0.00003395,-0.00003775,-0.00001129,-0.00002185,-0.00005590,-0.000
 03623,0.00001725,0.00001114,-0.00001164,0.00001056,0.00002115,0.000029
 97,0.00001915,0.00002788,0.00001594,0.00002753,-0.00000772,0.00005442,
 0.00000435,0.00002464,0.00000850,0.00001543,0.00000879,-0.00000600,-0.
 00028477,0.00039585,0.00019759,0.00008784,-0.00015644,0.00057983,-0.00
 041909,0.00023813,0.00022277,0.00031249,-0.00010476,-0.00001808,0.0153
 0528,-0.02271521,-0.00002980,-0.00156695,0.00443097,0.05270183,-0.0015
 9376,0.00487494,-0.00247829,-0.01340059,-0.00185005,0.01477772,-0.0000
 7189,-0.00035745,-0.00071246,0.00008580,0.00001804,-0.00038498,0.00002
 600,0.00001158,-0.00002217,-0.00004024,-0.00000114,-0.00004615,-0.0000
 6734,-0.00031646,-0.00006507,0.00133526,0.00031634,-0.00001822,0.01139
 177,-0.00166413,-0.01855521,-0.13385975,0.00485952,0.12592565,0.000870
 98,0.00015584,-0.00039221,0.00004699,-0.00017988,-0.00005529,0.0000051
 2,0.00001997,0.00000711,-0.00000139,-0.00000233,-0.00000820,-0.0000154
 0,0.00001036,0.00000302,-0.00001341,-0.00000462,0.00016498,0.00001439,
 0.00001465,-0.00003167,0.00005334,0.00007676,-0.00002889,-0.00011830,0
 .00003366,-0.00006860,-0.00002008,-0.00001872,-0.00004141,-0.00014758,
 0.00011769,0.00033791,0.00017896,0.00037755,0.00015180,-0.00178565,-0.
 00026844,-0.00390051,0.00132635,-0.00011179,0.00095985,0.14698454,0.00
 361094,-0.00371803,0.00346278,0.01590866,0.00377709,-0.02601063,-0.001
 43337,-0.00036248,0.00233686,0.00002390,0.00016853,0.00045248,-0.00008
 015,0.00005267,-0.00000483,0.00003368,0.00004719,0.00005185,0.00044109
 ,0.00020639,0.00029764,0.00058352,0.00007813,-0.00094103,-0.00186773,0
 .00042222,0.00248793,0.00584423,-0.05377329,-0.01467252,-0.00038187,-0
 .00168310,-0.00001205,-0.00000922,0.00014378,0.00005711,0.00000192,-0.
 00001769,-0.00000153,-0.00000219,-0.00002045,-0.00001334,0.00002030,0.
 00002105,-0.00000950,-0.00000241,0.00002689,-0.00018478,-0.00001305,-0
 .00002385,0.00000790,-0.00005622,-0.00006854,0.00002308,0.00000196,0.0
 0008830,0.00007292,0.00003497,-0.00000361,0.00002604,-0.00016534,0.000
 13892,-0.00003656,-0.00002641,-0.00002417,0.00010886,0.00062299,0.0010
 0483,0.00062618,-0.00062118,0.00013889,0.00016058,-0.00854907,0.050633
 99,-0.00058430,-0.00014123,-0.00108261,-0.00099518,0.00079512,0.002120
 07,0.00085277,0.00010301,-0.00058464,-0.00015819,-0.00019435,0.0001517
 8,0.00001942,-0.00002437,-0.00000823,0.00007205,0.00003166,0.00001685,
 -0.00049888,-0.00011949,-0.00021248,0.00159825,0.00048607,0.00106028,0
 .01560202,-0.00127678,-0.02658384,0.12224095,-0.01123374,-0.20689741,-
 0.00041440,0.00010357,0.00057513,-0.00007768,0.00011298,0.00001741,-0.
 00000574,-0.00001252,0.00000381,-0.00000045,0.00000200,0.00000479,-0.0
 0000299,-0.00000655,0.,-0.00003886,-0.00002294,-0.00000780,-0.00002094
 ,-0.00000599,-0.00000567,-0.00000644,-0.00001045,0.00001602,-0.0000355
 9,0.00018581,0.00014370,0.00000580,-0.00005870,-0.00000004,-0.00091369
 ,-0.00071233,0.00040294,-0.00019374,0.00029647,0.00042875,-0.00436591,
 -0.00001749,-0.00384153,0.00035903,0.00038553,0.00162457,-0.13154560,0
 .01050964,0.23135120,0.00199755,-0.00117724,-0.00009044,0.01136384,0.0
 1581736,0.00037814,-0.00208741,0.00242486,-0.00005100,0.00073891,0.000
 71114,0.00006302,-0.00022329,0.00020076,-0.00009516,0.00003476,-0.0000
 2946,0.00007735,-0.00022960,0.00020974,-0.00006428,-0.00112825,0.00163
 026,-0.00394389,-0.01077032,-0.01358624,0.00106965,-0.16059462,-0.1350
 0138,-0.00114249,0.00001876,0.00003194,-0.00011577,0.00003611,-0.00006
 131,0.00002431,0.00001296,0.00000636,-0.00001691,0.00000273,0.00001060
 ,0.00003412,0.00006174,0.00009651,0.00003240,0.00000314,-0.00001460,-0
 .00001660,-0.00000065,-0.00000379,-0.00000476,-0.00000083,0.00000594,-
 0.00001304,0.00006323,-0.00005988,0.00002029,0.00005101,-0.00007237,0.
 00004583,0.00036175,0.00039632,0.00005881,-0.00049599,-0.00122426,-0.0
 0023698,0.00104852,0.00030238,0.00009357,0.00000096,0.00025045,0.00050
 049,-0.01118412,-0.01391996,-0.00089174,0.17091911,-0.00005747,0.00610
 466,-0.00004317,-0.02290663,-0.02657646,0.00000589,0.00518394,-0.00331
 067,0.00023389,-0.00172058,-0.00075695,-0.00039036,0.00060449,-0.00036
 457,0.00015207,-0.00006427,-0.00002394,-0.00019143,0.00041779,0.000276
 37,0.00048161,0.00057123,0.00081420,0.00052703,0.00252623,0.00329821,-
 0.00074467,-0.12986982,-0.20671358,-0.00335023,0.00012769,0.00044547,0
 .00014283,0.00007355,-0.00006022,-0.00006983,-0.00002865,0.00003155,0.
 00002010,-0.00001802,0.00001582,-0.00003223,-0.00010353,-0.00024362,-0
 .00005308,0.00001688,0.00003595,0.00007421,0.00004871,-0.00002827,0.00
 006183,0.00000156,0.00001597,0.00002009,-0.00003406,-0.00000375,-0.000
 12376,-0.00008341,0.00000677,-0.00009963,-0.00004015,-0.00007069,0.000
 04685,0.00009745,0.00025280,0.00020330,-0.00004978,0.00017161,-0.00040
 852,-0.00018615,0.00036996,-0.00048684,0.00243715,0.00274633,0.0008250
 7,0.14305585,0.22356706,-0.00003622,0.00007799,-0.00128236,0.00103622,
 0.00009309,-0.00052710,-0.00001928,0.00077421,0.00117057,0.00003501,0.
 00004391,0.00041044,-0.00006495,0.00002186,-0.00005218,0.00004918,-0.0
 0000972,0.00000034,-0.00012409,0.00068361,-0.00013980,-0.00253533,0.00
 168404,-0.00490272,-0.01731073,-0.02279967,0.00002674,-0.00100918,-0.0
 0329625,-0.05067513,-0.00048580,-0.00027872,0.00022019,-0.00004985,0.0
 0005167,0.00000114,0.00001125,0.00000341,-0.00000686,0.00000033,0.0000
 0867,0.00002477,0.00002525,0.00002591,0.00000866,0.00000170,-0.0000026
 2,0.00001199,-0.00000532,0.00000254,0.00000990,0.00000073,-0.00001064,
 -0.00000027,0.00005683,-0.00003852,-0.00000436,0.00013177,-0.00005019,
 0.00010333,-0.00028237,-0.00003223,0.00018356,-0.00110230,-0.00144304,
 -0.00004527,0.00089221,-0.00034126,0.00104678,0.00047295,0.00042804,0.
 00089212,0.01602688,0.02120493,0.00130695,0.00428508,0.00319899,0.0522
 1854\\0.00004573,0.00005750,-0.00000384,-0.00001655,-0.00000476,0.0000
 2161,0.00001484,-0.00001382,-0.00000343,-0.00000508,0.00001180,-0.0000
 0932,-0.00000621,-0.00004531,0.00000687,0.00001143,-0.00001215,0.00000
 003,0.00001821,0.00001076,0.00001746,-0.00000790,-0.00000115,-0.000003
 17,0.00000703,0.00001331,-0.00000180,-0.00003983,0.00000058,-0.0000611
 9,-0.00000056,-0.00000079,0.00000417,-0.00000155,0.00000106,0.00000773
 ,0.00001730,0.00000407,-0.00001636,0.00000731,-0.00000528,0.00002624,-
 0.00002027,0.00001526,-0.00000695,-0.00000931,-0.00001030,-0.00000041,
 -0.00000951,-0.00000075,-0.00000207,-0.00000209,-0.00000650,-0.0000055
 9,-0.00000674,-0.00000867,-0.00000059,0.00000525,0.00000792,0.00000875
 ,-0.00000107,-0.00000133,-0.00000049,0.00000059,0.00000390,0.00000131,
 -0.00000364,-0.00000574,0.00000151,0.00000262,-0.00000544,0.00000512,0
 .00000312,-0.00000132,0.00000792,-0.00000314,-0.00000285,0.00000649\\\
 @


 The number of Unix installations has grown to 10,
  with more expected.
                  -- The Unix Programmer's Manual,
                     2nd Edition, June, 1972.
 Job cpu time:       0 days  0 hours  2 minutes  6.0 seconds.
 Elapsed time:       0 days  0 hours  2 minutes  6.1 seconds.
 File lengths (MBytes):  RWF=    106 Int=      0 D2E=      0 Chk=      4 Scr=      1
 Normal termination of Gaussian 16 at Wed Feb 21 19:40:40 2024.
