 Entering Gaussian System, Link 0=g16
 Input=/Volumes/SSD-PMU3/b3lyp_6-31gd_freq/SDJUYPUXVFDUFF-QMMMGPOBSA-N_calculating/gaussianinput0.gjf
 Output=/Volumes/SSD-PMU3/b3lyp_6-31gd_freq/SDJUYPUXVFDUFF-QMMMGPOBSA-N_calculating/gaussianinput0.log
 Initial command:
 /Applications/g16/l1.exe "/Users/macmini_m1_2022/PycharmProjects/sphere_model/sphere_model_lib/Gau-54386.inp" -scrdir="/Users/macmini_m1_2022/PycharmProjects/sphere_model/sphere_model_lib/"
 Entering Link 1 = /Applications/g16/l1.exe PID=     54387.
  
 Copyright (c) 1988,1990,1992,1993,1995,1998,2003,2009,2016,
            Gaussian, Inc.  All Rights Reserved.
  
 This is part of the Gaussian(R) 16 program.  It is based on
 the Gaussian(R) 09 system (copyright 2009, Gaussian, Inc.),
 the Gaussian(R) 03 system (copyright 2003, Gaussian, Inc.),
 the Gaussian(R) 98 system (copyright 1998, Gaussian, Inc.),
 the Gaussian(R) 94 system (copyright 1995, Gaussian, Inc.),
 the Gaussian 92(TM) system (copyright 1992, Gaussian, Inc.),
 the Gaussian 90(TM) system (copyright 1990, Gaussian, Inc.),
 the Gaussian 88(TM) system (copyright 1988, Gaussian, Inc.),
 the Gaussian 86(TM) system (copyright 1986, Carnegie Mellon
 University), and the Gaussian 82(TM) system (copyright 1983,
 Carnegie Mellon University). Gaussian is a federally registered
 trademark of Gaussian, Inc.
  
 This software contains proprietary and confidential information,
 including trade secrets, belonging to Gaussian, Inc.
  
 This software is provided under written license and may be
 used, copied, transmitted, or stored only in accord with that
 written license.
  
 The following legend is applicable only to US Government
 contracts under FAR:
  
                    RESTRICTED RIGHTS LEGEND
  
 Use, reproduction and disclosure by the US Government is
 subject to restrictions as set forth in subparagraphs (a)
 and (c) of the Commercial Computer Software - Restricted
 Rights clause in FAR 52.227-19.
  
 Gaussian, Inc.
 340 Quinnipiac St., Bldg. 40, Wallingford CT 06492
  
  
 ---------------------------------------------------------------
 Warning -- This program may not be used in any manner that
 competes with the business of Gaussian, Inc. or will provide
 assistance to any competitor of Gaussian, Inc.  The licensee
 of this program is prohibited from giving any competitor of
 Gaussian, Inc. access to this program.  By using this program,
 the user acknowledges that Gaussian, Inc. is engaged in the
 business of creating and licensing software in the field of
 computational chemistry and represents and warrants to the
 licensee that it is not a competitor of Gaussian, Inc. and that
 it will not use this program in any manner prohibited above.
 ---------------------------------------------------------------
  

 Cite this work as:
 Gaussian 16, Revision A.03,
 M. J. Frisch, G. W. Trucks, H. B. Schlegel, G. E. Scuseria, 
 M. A. Robb, J. R. Cheeseman, G. Scalmani, V. Barone, 
 G. A. Petersson, H. Nakatsuji, X. Li, M. Caricato, A. V. Marenich, 
 J. Bloino, B. G. Janesko, R. Gomperts, B. Mennucci, H. P. Hratchian, 
 J. V. Ortiz, A. F. Izmaylov, J. L. Sonnenberg, D. Williams-Young, 
 F. Ding, F. Lipparini, F. Egidi, J. Goings, B. Peng, A. Petrone, 
 T. Henderson, D. Ranasinghe, V. G. Zakrzewski, J. Gao, N. Rega, 
 G. Zheng, W. Liang, M. Hada, M. Ehara, K. Toyota, R. Fukuda, 
 J. Hasegawa, M. Ishida, T. Nakajima, Y. Honda, O. Kitao, H. Nakai, 
 T. Vreven, K. Throssell, J. A. Montgomery, Jr., J. E. Peralta, 
 F. Ogliaro, M. J. Bearpark, J. J. Heyd, E. N. Brothers, K. N. Kudin, 
 V. N. Staroverov, T. A. Keith, R. Kobayashi, J. Normand, 
 K. Raghavachari, A. P. Rendell, J. C. Burant, S. S. Iyengar, 
 J. Tomasi, M. Cossi, J. M. Millam, M. Klene, C. Adamo, R. Cammi, 
 J. W. Ochterski, R. L. Martin, K. Morokuma, O. Farkas, 
 J. B. Foresman, and D. J. Fox, Gaussian, Inc., Wallingford CT, 2016.
 
 ******************************************
 Gaussian 16:  EM64M-G16RevA.03 25-Dec-2016
                21-Feb-2024 
 ******************************************
 %nprocshared=8
 Will use up to    8 processors via shared memory.
 %mem=4GB
 %chk= 0.chk
 ---------------------
 # freq b3lyp/6-31g(d)
 ---------------------
 1/10=4,30=1,38=1/1,3;
 2/12=2,17=6,18=5,40=1/2;
 3/5=1,6=6,7=1,11=2,25=1,30=1,71=2,74=-5,140=1/1,2,3;
 4//1;
 5/5=2,38=5,98=1/2;
 8/6=4,10=90,11=11/1;
 11/6=1,8=1,9=11,15=111,16=1/1,2,10;
 10/6=1/2;
 6/7=2,8=2,9=2,10=2,28=1/1;
 7/8=1,10=1,25=1/1,2,3,16;
 1/10=4,30=1/3;
 99//99;
 ---------
 good luck
 ---------
 Symbolic Z-matrix:
 Charge =  0 Multiplicity = 1
 O                     1.21785   0.        0. 
 C                     0.        0.        0. 
 C                    -0.83591  -1.28638   0.01545 
 C                     0.03296  -2.56721   0.00178 
 C                    -0.75791  -3.78948   0.49283 
 C                     0.68904  -2.84879  -1.35948 
 C                    -1.93154  -1.21323  -1.07944 
 C                    -2.78009   0.061    -0.96722 
 C                    -1.90497   1.31739  -1.05599 
 C                    -0.79717   1.30096   0.01545 
 H                    -1.36772  -1.25794   0.98336 
 H                     0.84535  -2.38387   0.71617 
 H                    -1.19433  -3.61603   1.48441 
 H                    -0.10452  -4.66674   0.56609 
 H                    -1.57526  -4.05022  -0.1912 
 H                    -0.05257  -3.10955  -2.12471 
 H                     1.26142  -1.98455  -1.70838 
 H                     1.38016  -3.6959   -1.27626 
 H                    -1.46079  -1.24133  -2.07105 
 H                    -2.57194  -2.10066  -1.01301 
 H                    -3.5395    0.07432  -1.75898 
 H                    -3.32425   0.05852  -0.01115 
 H                    -2.51169   2.22436  -0.94663 
 H                    -1.44238   1.36798  -2.05155 
 H                    -0.09693   2.13331  -0.10114 
 H                    -1.26133   1.39354   1.00959 
 

 GradGradGradGradGradGradGradGradGradGradGradGradGradGradGradGradGradGrad
 Berny optimization.
 Initialization pass.
 Trust Radius=3.00D-01 FncErr=1.00D-07 GrdErr=1.00D-07 EigMax=2.50D+02 EigMin=1.00D-04
 Number of steps in this run=      2 maximum allowed number of steps=      2.
 GradGradGradGradGradGradGradGradGradGradGradGradGradGradGradGradGradGrad

                          Input orientation:                          
 ---------------------------------------------------------------------
 Center     Atomic      Atomic             Coordinates (Angstroms)
 Number     Number       Type             X           Y           Z
 ---------------------------------------------------------------------
      1          8           0        1.217850    0.000000    0.000000
      2          6           0        0.000000    0.000000    0.000000
      3          6           0       -0.835907   -1.286378    0.015450
      4          6           0        0.032964   -2.567212    0.001780
      5          6           0       -0.757913   -3.789481    0.492830
      6          6           0        0.689041   -2.848792   -1.359476
      7          6           0       -1.931540   -1.213233   -1.079438
      8          6           0       -2.780088    0.060998   -0.967216
      9          6           0       -1.904969    1.317386   -1.055989
     10          6           0       -0.797171    1.300956    0.015450
     11          1           0       -1.367716   -1.257938    0.983364
     12          1           0        0.845350   -2.383869    0.716166
     13          1           0       -1.194326   -3.616028    1.484410
     14          1           0       -0.104521   -4.666740    0.566089
     15          1           0       -1.575255   -4.050223   -0.191204
     16          1           0       -0.052570   -3.109547   -2.124710
     17          1           0        1.261417   -1.984552   -1.708381
     18          1           0        1.380159   -3.695902   -1.276259
     19          1           0       -1.460786   -1.241327   -2.071053
     20          1           0       -2.571944   -2.100660   -1.013011
     21          1           0       -3.539496    0.074322   -1.758975
     22          1           0       -3.324252    0.058517   -0.011148
     23          1           0       -2.511690    2.224355   -0.946625
     24          1           0       -1.442383    1.367983   -2.051547
     25          1           0       -0.096932    2.133307   -0.101144
     26          1           0       -1.261330    1.393536    1.009588
 ---------------------------------------------------------------------
                    Distance matrix (angstroms):
                    1          2          3          4          5
     1  O    0.000000
     2  C    1.217850   0.000000
     3  C    2.423412   1.534193   0.000000
     4  C    2.827461   2.567424   1.547792   0.000000
     5  C    4.301940   3.895829   2.549412   1.536411   0.000000
     6  C    3.200536   3.230877   2.580121   1.537121   2.531721
     7  C    3.543413   2.523483   1.550658   2.619459   3.238284
     8  C    4.113725   2.944167   2.561424   3.969849   4.587713
     9  C    3.550016   2.545491   3.011721   4.468172   5.458449
    10  C    2.398548   1.525846   2.587624   3.956265   5.112923
    11  H    3.038843   2.102394   1.104757   2.153975   2.649753
    12  H    2.516840   2.628753   2.126526   1.097239   2.143846
    13  H    4.593226   4.087242   2.777333   2.191905   1.097166
    14  H    4.883399   4.702111   3.502139   2.178386   1.096299
    15  H    4.923647   4.349976   2.868481   2.196118   1.097241
    16  H    3.974625   3.766489   2.918535   2.196225   2.794876
    17  H    2.618952   2.906576   2.803178   2.184775   3.490099
    18  H    3.913422   4.146489   3.519271   2.173076   2.776650
    19  H    3.606278   2.822065   2.178531   2.878523   3.682474
    20  H    4.449888   3.471867   2.175916   2.834258   2.900066
    21  H    5.072658   3.953169   3.508487   4.779166   5.266574
    22  H    4.542493   3.324786   2.828659   4.262103   4.652653
    23  H    4.444471   3.486035   4.007379   5.507617   6.427596
    24  H    3.627266   2.856692   3.418468   4.677452   5.791527
    25  H    2.507963   2.137902   3.500560   4.703440   5.989083
    26  H    3.017871   2.133580   2.889850   4.287003   5.232985
                    6          7          8          9         10
     6  C    0.000000
     7  C    3.101761   0.000000
     8  C    4.544843   1.535022   0.000000
     9  C    4.917116   2.530867   1.533696   0.000000
    10  C    4.617321   2.967612   2.536748   1.541255   0.000000
    11  H    3.499995   2.138936   2.745751   3.328648   2.794695
    12  H    2.132809   3.507948   4.685611   4.940048   4.094730
    13  H    3.496199   3.590296   4.695278   5.594391   5.147068
    14  H    2.764503   4.239395   5.644572   6.456200   6.032940
    15  H    2.816972   2.994063   4.353844   5.446815   5.411399
    16  H    1.097070   2.866902   4.339528   4.916430   4.958553
    17  H    1.093737   3.344470   4.589920   4.621083   4.243105
    18  H    1.096433   4.143638   5.614041   5.997803   5.601595
    19  H    2.777056   1.098043   2.157560   2.788309   3.355158
    20  H    3.363594   1.096383   2.172139   3.482778   3.972221
    21  H    5.156037   2.169122   1.097160   2.170501   3.489063
    22  H    5.135850   2.167542   1.100085   2.165827   2.816114
    23  H    6.012649   3.488728   2.180040   1.096660   2.172056
    24  H    4.775261   2.801240   2.161814   1.098946   2.166395
    25  H    5.198314   3.939819   3.499124   2.201466   1.093955
    26  H    5.235815   3.407118   2.826665   2.164874   1.101056
                   11         12         13         14         15
    11  H    0.000000
    12  H    2.497354   0.000000
    13  H    2.416961   2.503736   0.000000
    14  H    3.659195   2.477151   1.770589   0.000000
    15  H    3.036369   3.075611   1.772375   1.765402   0.000000
    16  H    3.849440   3.066504   3.819146   3.109332   2.634746
    17  H    3.832206   2.492187   4.345837   3.772682   3.823026
    18  H    4.312816   2.444833   3.775665   2.557547   3.168179
    19  H    3.055880   3.793713   4.283868   4.530720   3.381839
    20  H    2.479084   3.840333   3.229750   3.894419   2.338707
    21  H    3.743256   5.603204   5.444084   6.299416   4.829909
    22  H    2.559324   4.886698   4.502839   5.746993   4.469134
    23  H    4.142451   5.938882   6.461846   7.454526   6.388889
    24  H    4.013941   5.193299   6.115954   6.712658   5.730226
    25  H    3.780422   4.686232   6.064083   6.832708   6.358427
    26  H    2.653737   4.335088   5.032462   6.185616   5.583454
                   16         17         18         19         20
    16  H    0.000000
    17  H    1.779187   0.000000
    18  H    1.765331   1.769053   0.000000
    19  H    2.340128   2.845049   3.837656   0.000000
    20  H    2.932742   3.897650   4.270037   1.758573   0.000000
    21  H    4.735973   5.224011   6.216961   2.479790   2.494627
    22  H    5.020725   5.299348   6.150419   3.066808   2.496346
    23  H    5.990465   5.703640   7.092573   3.792056   4.325944
    24  H    4.688839   4.320624   5.848995   2.609448   3.792881
    25  H    5.619992   4.624401   6.127183   4.138695   4.988353
    26  H    5.618067   5.016282   6.172920   4.058649   4.244764
                   21         22         23         24         25
    21  H    0.000000
    22  H    1.761102   0.000000
    23  H    2.517725   2.495241   0.000000
    24  H    2.481338   3.069098   1.760012   0.000000
    25  H    4.340400   3.837766   2.560114   2.489986   0.000000
    26  H    3.820380   2.660794   2.465853   3.066591   1.771104
                   26
    26  H    0.000000
 Stoichiometry    C9H16O
 Framework group  C1[X(C9H16O)]
 Deg. of freedom    72
 Full point group                 C1      NOp   1
 Largest Abelian subgroup         C1      NOp   1
 Largest concise Abelian subgroup C1      NOp   1
                         Standard orientation:                         
 ---------------------------------------------------------------------
 Center     Atomic      Atomic             Coordinates (Angstroms)
 Number     Number       Type             X           Y           Z
 ---------------------------------------------------------------------
      1          8           0        0.173271    2.204682   -0.010987
      2          6           0        0.601595    1.093439   -0.265618
      3          6           0       -0.304321   -0.133180   -0.434347
      4          6           0       -1.802005    0.192255   -0.218258
      5          6           0       -2.707248   -0.880115   -0.843649
      6          6           0       -2.171392    0.431420    1.254527
      7          6           0        0.248664   -1.313314    0.405910
      8          6           0        1.724093   -1.603973    0.097818
      9          6           0        2.594940   -0.366317    0.346932
     10          6           0        2.092647    0.841066   -0.468787
     11          1           0       -0.178742   -0.425163   -1.492394
     12          1           0       -1.981826    1.135090   -0.749915
     13          1           0       -2.482264   -1.027957   -1.907274
     14          1           0       -3.761040   -0.588415   -0.764243
     15          1           0       -2.600554   -1.849822   -0.341433
     16          1           0       -2.083966   -0.484539    1.851972
     17          1           0       -1.535790    1.201361    1.701137
     18          1           0       -3.211268    0.770366    1.331589
     19          1           0        0.147035   -1.081395    1.474360
     20          1           0       -0.358945   -2.207135    0.221654
     21          1           0        2.075545   -2.441725    0.712971
     22          1           0        1.826284   -1.920690   -0.950721
     23          1           0        3.643402   -0.570132    0.098234
     24          1           0        2.569857   -0.114041    1.416235
     25          1           0        2.632458    1.760016   -0.222064
     26          1           0        2.251809    0.639043   -1.539385
 ---------------------------------------------------------------------
 Rotational constants (GHZ):           1.9845285           0.9942986           0.7878646
 Standard basis: 6-31G(d) (6D, 7F)
 There are   182 symmetry adapted cartesian basis functions of A   symmetry.
 There are   182 symmetry adapted basis functions of A   symmetry.
   182 basis functions,   344 primitive gaussians,   182 cartesian basis functions
    39 alpha electrons       39 beta electrons
       nuclear repulsion energy       566.9596180229 Hartrees.
 NAtoms=   26 NActive=   26 NUniq=   26 SFac= 1.00D+00 NAtFMM=   60 NAOKFM=F Big=F
 Integral buffers will be    131072 words long.
 Raffenetti 2 integral format.
 Two-electron integral symmetry is turned on.
 One-electron integrals computed using PRISM.
 NBasis=   182 RedAO= T EigKep=  2.63D-03  NBF=   182
 NBsUse=   182 1.00D-06 EigRej= -1.00D+00 NBFU=   182
 ExpMin= 1.61D-01 ExpMax= 5.48D+03 ExpMxC= 8.25D+02 IAcc=3 IRadAn=         5 AccDes= 0.00D+00
 Harris functional with IExCor=  402 and IRadAn=       5 diagonalized for initial guess.
 HarFok:  IExCor=  402 AccDes= 0.00D+00 IRadAn=         5 IDoV= 1 UseB2=F ITyADJ=14
 ICtDFT=  3500011 ScaDFX=  1.000000  1.000000  1.000000  1.000000
 FoFCou: FMM=F IPFlag=           0 FMFlag=      100000 FMFlg1=           0
         NFxFlg=           0 DoJE=T BraDBF=F KetDBF=T FulRan=T
         wScrn=  0.000000 ICntrl=       500 IOpCl=  0 I1Cent=   200000004 NGrid=           0
         NMat0=    1 NMatS0=      1 NMatT0=    0 NMatD0=    1 NMtDS0=    0 NMtDT0=    0
 Petite list used in FoFCou.
 Requested convergence on RMS density matrix=1.00D-08 within 128 cycles.
 Requested convergence on MAX density matrix=1.00D-06.
 Requested convergence on             energy=1.00D-06.
 No special actions if energy rises.
 Integral accuracy reduced to 1.0D-05 until final iterations.
 Initial convergence to 1.0D-05 achieved.  Increase integral accuracy.
 SCF Done:  E(RB3LYP) =  -427.831415669     A.U. after   13 cycles
            NFock= 13  Conv=0.64D-08     -V/T= 2.0098
 DoSCS=F DFT=T ScalE2(SS,OS)=  1.000000  1.000000
 Range of M.O.s used for correlation:     1   182
 NBasis=   182 NAE=    39 NBE=    39 NFC=     0 NFV=     0
 NROrb=    182 NOA=    39 NOB=    39 NVA=   143 NVB=   143
 Symmetrizing basis deriv contribution to polar:
 IMax=3 JMax=2 DiffMx= 0.00D+00
 G2DrvN: will do    27 centers at a time, making    1 passes.
 Calling FoFCou, ICntrl=  3107 FMM=F I1Cent=   0 AccDes= 0.00D+00.
 End of G2Drv F.D. properties file   721 does not exist.
 End of G2Drv F.D. properties file   722 does not exist.
 End of G2Drv F.D. properties file   788 does not exist.
          IDoAtm=11111111111111111111111111
          Differentiating once with respect to electric field.
                with respect to dipole field.
          Differentiating once with respect to nuclear coordinates.
 Keep R1 ints in memory in canonical form, NReq=146744189.
          There are    81 degrees of freedom in the 1st order CPHF.  IDoFFX=6 NUNeed=     3.
     78 vectors produced by pass  0 Test12= 6.89D-15 1.23D-09 XBig12= 6.71D+01 1.93D+00.
 AX will form    78 AO Fock derivatives at one time.
     78 vectors produced by pass  1 Test12= 6.89D-15 1.23D-09 XBig12= 6.40D+00 4.22D-01.
     78 vectors produced by pass  2 Test12= 6.89D-15 1.23D-09 XBig12= 3.11D-02 1.71D-02.
     78 vectors produced by pass  3 Test12= 6.89D-15 1.23D-09 XBig12= 6.87D-05 1.31D-03.
     78 vectors produced by pass  4 Test12= 6.89D-15 1.23D-09 XBig12= 6.24D-08 4.25D-05.
     36 vectors produced by pass  5 Test12= 6.89D-15 1.23D-09 XBig12= 3.33D-11 6.59D-07.
      3 vectors produced by pass  6 Test12= 6.89D-15 1.23D-09 XBig12= 1.79D-14 1.30D-08.
 InvSVY:  IOpt=1 It=  1 EMax= 1.78D-15
 Solved reduced A of dimension   429 with    81 vectors.
 Isotropic polarizability for W=    0.000000       92.95 Bohr**3.
 End of Minotr F.D. properties file   721 does not exist.
 End of Minotr F.D. properties file   722 does not exist.
 End of Minotr F.D. properties file   788 does not exist.

 **********************************************************************

            Population analysis using the SCF density.

 **********************************************************************

 Orbital symmetries:
       Occupied  (A) (A) (A) (A) (A) (A) (A) (A) (A) (A) (A) (A)
                 (A) (A) (A) (A) (A) (A) (A) (A) (A) (A) (A) (A)
                 (A) (A) (A) (A) (A) (A) (A) (A) (A) (A) (A) (A)
                 (A) (A) (A)
       Virtual   (A) (A) (A) (A) (A) (A) (A) (A) (A) (A) (A) (A)
                 (A) (A) (A) (A) (A) (A) (A) (A) (A) (A) (A) (A)
                 (A) (A) (A) (A) (A) (A) (A) (A) (A) (A) (A) (A)
                 (A) (A) (A) (A) (A) (A) (A) (A) (A) (A) (A) (A)
                 (A) (A) (A) (A) (A) (A) (A) (A) (A) (A) (A) (A)
                 (A) (A) (A) (A) (A) (A) (A) (A) (A) (A) (A) (A)
                 (A) (A) (A) (A) (A) (A) (A) (A) (A) (A) (A) (A)
                 (A) (A) (A) (A) (A) (A) (A) (A) (A) (A) (A) (A)
                 (A) (A) (A) (A) (A) (A) (A) (A) (A) (A) (A) (A)
                 (A) (A) (A) (A) (A) (A) (A) (A) (A) (A) (A) (A)
                 (A) (A) (A) (A) (A) (A) (A) (A) (A) (A) (A) (A)
                 (A) (A) (A) (A) (A) (A) (A) (A) (A) (A) (A)
 The electronic state is 1-A.
 Alpha  occ. eigenvalues --  -19.13411 -10.26741 -10.19347 -10.19338 -10.19036
 Alpha  occ. eigenvalues --  -10.18991 -10.18989 -10.18454 -10.17179 -10.16462
 Alpha  occ. eigenvalues --   -1.03265  -0.83570  -0.79411  -0.73881  -0.71654
 Alpha  occ. eigenvalues --   -0.67684  -0.63327  -0.59083  -0.56368  -0.51995
 Alpha  occ. eigenvalues --   -0.47133  -0.46208  -0.45519  -0.44494  -0.43338
 Alpha  occ. eigenvalues --   -0.41816  -0.40301  -0.40246  -0.38582  -0.37392
 Alpha  occ. eigenvalues --   -0.36228  -0.35723  -0.34990  -0.33341  -0.33154
 Alpha  occ. eigenvalues --   -0.32229  -0.31512  -0.30497  -0.23411
 Alpha virt. eigenvalues --   -0.01262   0.08492   0.09790   0.10485   0.12664
 Alpha virt. eigenvalues --    0.13769   0.14469   0.14849   0.15431   0.16756
 Alpha virt. eigenvalues --    0.16924   0.17869   0.18144   0.18507   0.19063
 Alpha virt. eigenvalues --    0.20260   0.20922   0.21223   0.22079   0.23569
 Alpha virt. eigenvalues --    0.25493   0.26742   0.27285   0.28116   0.29225
 Alpha virt. eigenvalues --    0.33914   0.37267   0.49735   0.50621   0.51761
 Alpha virt. eigenvalues --    0.53116   0.53429   0.54147   0.55680   0.57544
 Alpha virt. eigenvalues --    0.60268   0.62090   0.63061   0.64464   0.66306
 Alpha virt. eigenvalues --    0.67805   0.69353   0.70296   0.71458   0.73102
 Alpha virt. eigenvalues --    0.74825   0.76870   0.79364   0.81912   0.82874
 Alpha virt. eigenvalues --    0.83555   0.85714   0.86237   0.86977   0.87555
 Alpha virt. eigenvalues --    0.89238   0.89931   0.91332   0.92077   0.92768
 Alpha virt. eigenvalues --    0.93731   0.94133   0.94985   0.95479   0.96463
 Alpha virt. eigenvalues --    0.97719   1.00879   1.01313   1.03223   1.06011
 Alpha virt. eigenvalues --    1.09613   1.12435   1.14840   1.16971   1.19625
 Alpha virt. eigenvalues --    1.24805   1.36445   1.38275   1.43737   1.45634
 Alpha virt. eigenvalues --    1.46989   1.50007   1.55301   1.62705   1.65395
 Alpha virt. eigenvalues --    1.65563   1.71190   1.72297   1.74419   1.76556
 Alpha virt. eigenvalues --    1.77864   1.81140   1.83321   1.84197   1.85880
 Alpha virt. eigenvalues --    1.89027   1.90409   1.92399   1.94650   1.97288
 Alpha virt. eigenvalues --    1.98645   2.00605   2.01224   2.05260   2.07415
 Alpha virt. eigenvalues --    2.08722   2.11817   2.12645   2.13412   2.15483
 Alpha virt. eigenvalues --    2.22412   2.26442   2.27455   2.31138   2.34102
 Alpha virt. eigenvalues --    2.34620   2.37899   2.38940   2.42170   2.43618
 Alpha virt. eigenvalues --    2.45111   2.54051   2.56080   2.58480   2.61886
 Alpha virt. eigenvalues --    2.65759   2.66589   2.71712   2.73407   2.79079
 Alpha virt. eigenvalues --    2.85203   2.99397   3.04473   4.01665   4.10557
 Alpha virt. eigenvalues --    4.20003   4.25768   4.30679   4.33239   4.52992
 Alpha virt. eigenvalues --    4.56131   4.58212   4.66607
          Condensed to atoms (all electrons):
               1          2          3          4          5          6
     1  O    8.019710   0.569759  -0.091000   0.003126   0.000462  -0.005300
     2  C    0.569759   4.530388   0.293716  -0.025385   0.004179  -0.004665
     3  C   -0.091000   0.293716   5.297745   0.352512  -0.039500  -0.040266
     4  C    0.003126  -0.025385   0.352512   4.871144   0.359288   0.379807
     5  C    0.000462   0.004179  -0.039500   0.359288   5.134529  -0.055809
     6  C   -0.005300  -0.004665  -0.040266   0.379807  -0.055809   5.119298
     7  C    0.000814  -0.022685   0.345597  -0.036438  -0.004731  -0.008240
     8  C    0.000149  -0.013339  -0.034754   0.003838   0.000035   0.000229
     9  C    0.001200  -0.027885  -0.002314  -0.000018  -0.000008  -0.000006
    10  C   -0.073763   0.343540  -0.129566   0.005554  -0.000122  -0.000121
    11  H    0.001211  -0.037479   0.350821  -0.039531  -0.005725   0.005322
    12  H    0.010565  -0.004465  -0.050370   0.380261  -0.045334  -0.042340
    13  H    0.000006   0.000039  -0.004737  -0.030644   0.368378   0.005243
    14  H    0.000003  -0.000077   0.004431  -0.030157   0.371919  -0.002855
    15  H   -0.000008  -0.000050  -0.007007  -0.029435   0.367454  -0.005434
    16  H    0.000107   0.000073  -0.008036  -0.034162  -0.005540   0.369598
    17  H    0.008953   0.003662  -0.006445  -0.028800   0.005166   0.369154
    18  H    0.000070   0.000025   0.004941  -0.029997  -0.003126   0.370279
    19  H    0.000367  -0.004698  -0.041003  -0.005910   0.000049   0.003696
    20  H   -0.000069   0.003142  -0.032994  -0.003181   0.001943  -0.000717
    21  H    0.000002   0.000326   0.004131  -0.000126  -0.000000   0.000003
    22  H   -0.000009  -0.001795  -0.004603  -0.000025  -0.000008   0.000003
    23  H   -0.000064   0.003370  -0.000225   0.000009   0.000000  -0.000000
    24  H    0.000389  -0.002912   0.000023  -0.000044  -0.000000  -0.000004
    25  H    0.005426  -0.023627   0.006512  -0.000137   0.000001   0.000006
    26  H    0.001102  -0.030106   0.002826  -0.000095  -0.000003  -0.000002
               7          8          9         10         11         12
     1  O    0.000814   0.000149   0.001200  -0.073763   0.001211   0.010565
     2  C   -0.022685  -0.013339  -0.027885   0.343540  -0.037479  -0.004465
     3  C    0.345597  -0.034754  -0.002314  -0.129566   0.350821  -0.050370
     4  C   -0.036438   0.003838  -0.000018   0.005554  -0.039531   0.380261
     5  C   -0.004731   0.000035  -0.000008  -0.000122  -0.005725  -0.045334
     6  C   -0.008240   0.000229  -0.000006  -0.000121   0.005322  -0.042340
     7  C    5.053552   0.368587  -0.045240  -0.006305  -0.046504   0.005154
     8  C    0.368587   5.010890   0.378739  -0.045665  -0.002346  -0.000144
     9  C   -0.045240   0.378739   5.018250   0.339229  -0.001979  -0.000018
    10  C   -0.006305  -0.045665   0.339229   5.282593   0.002254   0.000632
    11  H   -0.046504  -0.002346  -0.001979   0.002254   0.626070  -0.001586
    12  H    0.005154  -0.000144  -0.000018   0.000632  -0.001586   0.607011
    13  H   -0.000140  -0.000018   0.000000   0.000000   0.005844  -0.002952
    14  H    0.000041   0.000001   0.000000   0.000002   0.000028  -0.003737
    15  H    0.001577  -0.000097   0.000001   0.000000  -0.000179   0.005289
    16  H    0.003149  -0.000028  -0.000000   0.000016  -0.000032   0.005613
    17  H   -0.000745  -0.000029  -0.000031   0.000123   0.000086  -0.002981
    18  H    0.000150  -0.000003   0.000000   0.000003  -0.000138  -0.004455
    19  H    0.373545  -0.039683  -0.005663   0.000198   0.006284   0.000044
    20  H    0.368906  -0.030425   0.004836  -0.000261  -0.006360  -0.000051
    21  H   -0.031369   0.367340  -0.032087   0.004661   0.000006   0.000003
    22  H   -0.041308   0.373097  -0.042532  -0.003159   0.005768  -0.000003
    23  H    0.004906  -0.030738   0.368683  -0.028837  -0.000034   0.000000
    24  H   -0.005058  -0.039650   0.376309  -0.042589   0.000129  -0.000002
    25  H   -0.000155   0.004192  -0.025475   0.342849  -0.000114  -0.000015
    26  H   -0.001118  -0.003155  -0.036406   0.350383   0.001677  -0.000043
              13         14         15         16         17         18
     1  O    0.000006   0.000003  -0.000008   0.000107   0.008953   0.000070
     2  C    0.000039  -0.000077  -0.000050   0.000073   0.003662   0.000025
     3  C   -0.004737   0.004431  -0.007007  -0.008036  -0.006445   0.004941
     4  C   -0.030644  -0.030157  -0.029435  -0.034162  -0.028800  -0.029997
     5  C    0.368378   0.371919   0.367454  -0.005540   0.005166  -0.003126
     6  C    0.005243  -0.002855  -0.005434   0.369598   0.369154   0.370279
     7  C   -0.000140   0.000041   0.001577   0.003149  -0.000745   0.000150
     8  C   -0.000018   0.000001  -0.000097  -0.000028  -0.000029  -0.000003
     9  C    0.000000   0.000000   0.000001  -0.000000  -0.000031   0.000000
    10  C    0.000000   0.000002   0.000000   0.000016   0.000123   0.000003
    11  H    0.005844   0.000028  -0.000179  -0.000032   0.000086  -0.000138
    12  H   -0.002952  -0.003737   0.005289   0.005613  -0.002981  -0.004455
    13  H    0.584748  -0.029598  -0.032609  -0.000008  -0.000180  -0.000041
    14  H   -0.029598   0.573506  -0.031689  -0.000219  -0.000012   0.003915
    15  H   -0.032609  -0.031689   0.584299   0.004740  -0.000066  -0.000263
    16  H   -0.000008  -0.000219   0.004740   0.592413  -0.031064  -0.032613
    17  H   -0.000180  -0.000012  -0.000066  -0.031064   0.545245  -0.026829
    18  H   -0.000041   0.003915  -0.000263  -0.032613  -0.026829   0.578229
    19  H    0.000013  -0.000012   0.000070   0.001626   0.000984  -0.000068
    20  H    0.000109  -0.000133   0.004136   0.000328   0.000054  -0.000035
    21  H    0.000000  -0.000000   0.000006   0.000006  -0.000001  -0.000000
    22  H   -0.000001  -0.000000   0.000004  -0.000001   0.000000   0.000000
    23  H   -0.000000   0.000000  -0.000000   0.000000   0.000000   0.000000
    24  H   -0.000000  -0.000000   0.000000  -0.000004   0.000008   0.000000
    25  H    0.000000  -0.000000   0.000000  -0.000000   0.000003  -0.000000
    26  H   -0.000002  -0.000000   0.000001  -0.000000  -0.000000   0.000000
              19         20         21         22         23         24
     1  O    0.000367  -0.000069   0.000002  -0.000009  -0.000064   0.000389
     2  C   -0.004698   0.003142   0.000326  -0.001795   0.003370  -0.002912
     3  C   -0.041003  -0.032994   0.004131  -0.004603  -0.000225   0.000023
     4  C   -0.005910  -0.003181  -0.000126  -0.000025   0.000009  -0.000044
     5  C    0.000049   0.001943  -0.000000  -0.000008   0.000000  -0.000000
     6  C    0.003696  -0.000717   0.000003   0.000003  -0.000000  -0.000004
     7  C    0.373545   0.368906  -0.031369  -0.041308   0.004906  -0.005058
     8  C   -0.039683  -0.030425   0.367340   0.373097  -0.030738  -0.039650
     9  C   -0.005663   0.004836  -0.032087  -0.042532   0.368683   0.376309
    10  C    0.000198  -0.000261   0.004661  -0.003159  -0.028837  -0.042589
    11  H    0.006284  -0.006360   0.000006   0.005768  -0.000034   0.000129
    12  H    0.000044  -0.000051   0.000003  -0.000003   0.000000  -0.000002
    13  H    0.000013   0.000109   0.000000  -0.000001  -0.000000  -0.000000
    14  H   -0.000012  -0.000133  -0.000000  -0.000000   0.000000  -0.000000
    15  H    0.000070   0.004136   0.000006   0.000004  -0.000000   0.000000
    16  H    0.001626   0.000328   0.000006  -0.000001   0.000000  -0.000004
    17  H    0.000984   0.000054  -0.000001   0.000000   0.000000   0.000008
    18  H   -0.000068  -0.000035  -0.000000   0.000000   0.000000   0.000000
    19  H    0.594152  -0.036808  -0.003538   0.005753  -0.000022   0.004946
    20  H   -0.036808   0.590378  -0.002470  -0.003798  -0.000183  -0.000000
    21  H   -0.003538  -0.002470   0.596394  -0.036049  -0.002250  -0.004112
    22  H    0.005753  -0.003798  -0.036049   0.610274  -0.004090   0.005828
    23  H   -0.000022  -0.000183  -0.002250  -0.004090   0.592787  -0.036771
    24  H    0.004946  -0.000000  -0.004112   0.005828  -0.036771   0.597128
    25  H   -0.000037   0.000017  -0.000146  -0.000030  -0.002382  -0.003401
    26  H    0.000109  -0.000012  -0.000035   0.004635  -0.006444   0.005754
              25         26
     1  O    0.005426   0.001102
     2  C   -0.023627  -0.030106
     3  C    0.006512   0.002826
     4  C   -0.000137  -0.000095
     5  C    0.000001  -0.000003
     6  C    0.000006  -0.000002
     7  C   -0.000155  -0.001118
     8  C    0.004192  -0.003155
     9  C   -0.025475  -0.036406
    10  C    0.342849   0.350383
    11  H   -0.000114   0.001677
    12  H   -0.000015  -0.000043
    13  H    0.000000  -0.000002
    14  H   -0.000000  -0.000000
    15  H    0.000000   0.000001
    16  H   -0.000000  -0.000000
    17  H    0.000003  -0.000000
    18  H   -0.000000   0.000000
    19  H   -0.000037   0.000109
    20  H    0.000017  -0.000012
    21  H   -0.000146  -0.000035
    22  H   -0.000030   0.004635
    23  H   -0.002382  -0.006444
    24  H   -0.003401   0.005754
    25  H    0.561134  -0.026883
    26  H   -0.026883   0.584908
 Mulliken charges:
               1
     1  O   -0.453208
     2  C    0.446949
     3  C   -0.170434
     4  C   -0.061455
     5  C   -0.453499
     6  C   -0.456881
     7  C   -0.275943
     8  C   -0.267022
     9  C   -0.267587
    10  C   -0.341648
    11  H    0.136506
    12  H    0.143922
    13  H    0.136549
    14  H    0.144642
    15  H    0.139262
    16  H    0.134039
    17  H    0.163745
    18  H    0.139957
    19  H    0.145608
    20  H    0.143649
    21  H    0.139306
    22  H    0.132049
    23  H    0.142286
    24  H    0.144035
    25  H    0.162262
    26  H    0.152910
 Sum of Mulliken charges =  -0.00000
 Mulliken charges with hydrogens summed into heavy atoms:
               1
     1  O   -0.453208
     2  C    0.446949
     3  C   -0.033928
     4  C    0.082467
     5  C   -0.033046
     6  C   -0.019139
     7  C    0.013314
     8  C    0.004332
     9  C    0.018734
    10  C   -0.026476
 APT charges:
               1
     1  O   -0.639041
     2  C    0.699236
     3  C   -0.058083
     4  C    0.133589
     5  C    0.067440
     6  C    0.041122
     7  C    0.100543
     8  C    0.122181
     9  C    0.140724
    10  C   -0.059464
    11  H   -0.042775
    12  H   -0.046548
    13  H   -0.032803
    14  H   -0.034350
    15  H   -0.021939
    16  H   -0.024412
    17  H    0.003913
    18  H   -0.030247
    19  H   -0.030976
    20  H   -0.041287
    21  H   -0.057521
    22  H   -0.050779
    23  H   -0.053730
    24  H   -0.041409
    25  H   -0.029493
    26  H   -0.013894
 Sum of APT charges =   0.00000
 APT charges with hydrogens summed into heavy atoms:
               1
     1  O   -0.639041
     2  C    0.699236
     3  C   -0.100858
     4  C    0.087041
     5  C   -0.021651
     6  C   -0.009625
     7  C    0.028280
     8  C    0.013881
     9  C    0.045585
    10  C   -0.102850
 Electronic spatial extent (au):  <R**2>=           1643.6220
 Charge=             -0.0000 electrons
 Dipole moment (field-independent basis, Debye):
    X=              1.0478    Y=             -2.5103    Z=             -0.4953  Tot=              2.7649
 Quadrupole moment (field-independent basis, Debye-Ang):
   XX=            -60.2118   YY=            -69.8987   ZZ=            -61.6456
   XY=             -0.0657   XZ=             -0.1829   YZ=             -0.6667
 Traceless Quadrupole moment (field-independent basis, Debye-Ang):
   XX=              3.7069   YY=             -5.9800   ZZ=              2.2731
   XY=             -0.0657   XZ=             -0.1829   YZ=             -0.6667
 Octapole moment (field-independent basis, Debye-Ang**2):
  XXX=              5.9468  YYY=            -10.9286  ZZZ=             -2.1586  XYY=              1.4131
  XXY=              6.4713  XXZ=             -0.7601  XZZ=              3.0999  YZZ=              3.5029
  YYZ=              0.3511  XYZ=              0.1078
 Hexadecapole moment (field-independent basis, Debye-Ang**3):
 XXXX=          -1351.8885 YYYY=           -614.0223 ZZZZ=           -262.3153 XXXY=             -5.7924
 XXXZ=             -3.5757 YYYX=             -0.3943 YYYZ=             -4.0259 ZZZX=              1.7140
 ZZZY=             -0.6001 XXYY=           -322.8398 XXZZ=           -276.8146 YYZZ=           -137.6404
 XXYZ=             -2.4525 YYXZ=             -0.1536 ZZXY=             -0.3502
 N-N= 5.669596180229D+02 E-N=-2.126071660575D+03  KE= 4.236701648697D+02
  Exact polarizability: 105.681  -1.886  92.625  -0.582   1.414  80.555
 Approx polarizability: 129.319  -5.959 139.628  -2.064   4.249 122.025
 Calling FoFJK, ICntrl=    100127 FMM=F ISym2X=0 I1Cent= 0 IOpClX= 0 NMat=1 NMatS=1 NMatT=0.
 Full mass-weighted force constant matrix:
 Low frequencies ---   -2.7562    0.0002    0.0002    0.0006    5.5812    7.8549
 Low frequencies ---   68.8789   83.8463  134.3923
 Diagonal vibrational polarizability:
        7.0964952       3.4753507      10.1406395
 Harmonic frequencies (cm**-1), IR intensities (KM/Mole), Raman scattering
 activities (A**4/AMU), depolarization ratios for plane and unpolarized
 incident light, reduced masses (AMU), force constants (mDyne/A),
 and normal coordinates:
                      1                      2                      3
                      A                      A                      A
 Frequencies --     68.8769                83.8458               134.3913
 Red. masses --      3.0460                 2.9328                 2.6865
 Frc consts  --      0.0085                 0.0121                 0.0286
 IR Inten    --      0.6457                 1.1584                 0.9356
  Atom  AN      X      Y      Z        X      Y      Z        X      Y      Z
     1   8    -0.05   0.03  -0.16     0.02  -0.02   0.20     0.02  -0.07   0.14
     2   6    -0.01   0.01  -0.00     0.00   0.00   0.06    -0.00  -0.04  -0.06
     3   6     0.00   0.00  -0.05     0.00   0.01  -0.01    -0.01  -0.03  -0.10
     4   6     0.01  -0.00   0.01    -0.01  -0.01  -0.07     0.01   0.00  -0.02
     5   6    -0.02  -0.04   0.13     0.05  -0.16   0.10    -0.08   0.04   0.04
     6   6     0.09   0.08   0.02    -0.05   0.21  -0.12     0.10   0.02  -0.00
     7   6    -0.01  -0.09  -0.17    -0.00   0.00  -0.03    -0.01  -0.05  -0.12
     8   6     0.02  -0.01  -0.10    -0.01  -0.01  -0.06     0.05   0.04   0.10
     9   6    -0.04  -0.02   0.13     0.01  -0.02  -0.07    -0.06   0.12   0.12
    10   6     0.02   0.04   0.19    -0.01   0.01  -0.01    -0.02  -0.03  -0.13
    11   1    -0.03   0.10  -0.08     0.04   0.04  -0.01    -0.04   0.00  -0.11
    12   1    -0.03  -0.04  -0.03    -0.05  -0.11  -0.23     0.00   0.01  -0.01
    13   1    -0.05  -0.15   0.14     0.13  -0.40   0.14    -0.16   0.03   0.02
    14   1    -0.02  -0.01   0.13     0.04  -0.16  -0.05    -0.06   0.08   0.11
    15   1    -0.04   0.00   0.22     0.02  -0.05   0.32    -0.08   0.04   0.03
    16   1     0.14   0.12   0.07     0.05   0.33   0.04     0.04   0.00  -0.02
    17   1     0.10   0.12  -0.06    -0.15   0.36  -0.26     0.18  -0.04  -0.02
    18   1     0.09   0.07   0.06    -0.09   0.10  -0.19     0.13   0.11   0.05
    19   1    -0.08  -0.23  -0.14     0.01  -0.01  -0.02    -0.19  -0.13  -0.12
    20   1     0.03  -0.08  -0.32    -0.01   0.01  -0.03     0.07  -0.08  -0.27
    21   1    -0.01  -0.09  -0.19    -0.00  -0.02  -0.08     0.02   0.11   0.21
    22   1     0.10   0.13  -0.14    -0.04   0.00  -0.06     0.23  -0.02   0.14
    23   1    -0.01   0.03   0.24    -0.00  -0.03  -0.12    -0.00   0.15   0.32
    24   1    -0.18  -0.14   0.16     0.06  -0.05  -0.06    -0.26   0.26   0.08
    25   1    -0.03   0.03   0.33     0.01  -0.01   0.01    -0.01   0.01  -0.30
    26   1     0.16   0.14   0.19    -0.05   0.04  -0.02    -0.04  -0.26  -0.09
                      4                      5                      6
                      A                      A                      A
 Frequencies --    195.8063               222.2959               249.2769
 Red. masses --      3.1268                 1.3727                 1.5557
 Frc consts  --      0.0706                 0.0400                 0.0570
 IR Inten    --      3.3497                 0.2252                 0.0340
  Atom  AN      X      Y      Z        X      Y      Z        X      Y      Z
     1   8     0.16   0.13  -0.01    -0.03  -0.01   0.03    -0.02   0.01   0.03
     2   6     0.05   0.09  -0.03    -0.01   0.01  -0.01    -0.01   0.02  -0.02
     3   6    -0.02   0.13  -0.02    -0.00   0.01  -0.06     0.00   0.02  -0.07
     4   6    -0.04   0.00   0.03     0.00  -0.01  -0.05     0.01  -0.01  -0.05
     5   6     0.12  -0.15   0.04     0.01  -0.05   0.02    -0.02  -0.02   0.01
     6   6    -0.04  -0.12   0.05     0.10   0.01  -0.03     0.13  -0.08  -0.01
     7   6    -0.09   0.06  -0.08    -0.03   0.06   0.03    -0.04   0.07   0.02
     8   6    -0.10  -0.00   0.01    -0.05  -0.00   0.02    -0.06  -0.00   0.03
     9   6    -0.09  -0.03   0.06    -0.01  -0.03  -0.01    -0.01  -0.02  -0.02
    10   6     0.02  -0.06  -0.06    -0.00   0.02   0.04    -0.00   0.02   0.03
    11   1    -0.04   0.17  -0.04     0.03  -0.03  -0.05     0.04  -0.01  -0.05
    12   1    -0.19  -0.01   0.06    -0.04  -0.02  -0.06    -0.03  -0.00  -0.02
    13   1     0.12  -0.09   0.03    -0.32   0.24  -0.09     0.24  -0.39   0.12
    14   1     0.07  -0.35   0.08    -0.03  -0.28   0.44     0.01   0.22  -0.37
    15   1     0.32  -0.13   0.02     0.37  -0.14  -0.24    -0.36   0.12   0.35
    16   1     0.14  -0.12   0.02    -0.10  -0.04  -0.08     0.13  -0.14  -0.09
    17   1    -0.16  -0.02   0.06     0.28  -0.16  -0.01     0.21  -0.16   0.00
    18   1    -0.10  -0.31   0.10     0.18   0.25   0.02     0.16  -0.03   0.11
    19   1    -0.14   0.01  -0.07     0.01   0.17   0.01    -0.01   0.18   0.00
    20   1    -0.12   0.10  -0.16    -0.06   0.06   0.13    -0.08   0.09   0.12
    21   1    -0.17  -0.01   0.04    -0.07  -0.00   0.03    -0.08   0.02   0.08
    22   1    -0.03  -0.01   0.02    -0.08  -0.03   0.02    -0.08  -0.06   0.05
    23   1    -0.06  -0.06   0.19    -0.02  -0.05  -0.07    -0.03  -0.05  -0.07
    24   1    -0.20   0.03   0.04     0.05  -0.05  -0.01     0.05  -0.03  -0.01
    25   1     0.12  -0.09  -0.17    -0.02   0.00   0.12    -0.00   0.00   0.10
    26   1    -0.02  -0.20  -0.04     0.04   0.09   0.04     0.03   0.08   0.02
                      7                      8                      9
                      A                      A                      A
 Frequencies --    258.6254               288.1127               312.2406
 Red. masses --      1.1227                 3.2493                 1.7798
 Frc consts  --      0.0442                 0.1589                 0.1022
 IR Inten    --      0.4115                 1.4501                 0.0638
  Atom  AN      X      Y      Z        X      Y      Z        X      Y      Z
     1   8    -0.02  -0.02   0.01    -0.14   0.00  -0.01    -0.02   0.05  -0.02
     2   6    -0.01  -0.01  -0.01    -0.05   0.02   0.05    -0.01   0.04   0.05
     3   6    -0.00  -0.01  -0.03     0.03  -0.01   0.08     0.01   0.03  -0.02
     4   6    -0.00   0.00  -0.01     0.09   0.03   0.04    -0.01   0.00  -0.00
     5   6    -0.03   0.03  -0.02     0.24   0.01  -0.10    -0.02   0.00   0.02
     6   6     0.06  -0.00   0.00     0.15   0.09   0.05    -0.02  -0.01  -0.00
     7   6     0.00   0.02   0.02    -0.06  -0.10   0.01    -0.03  -0.05  -0.10
     8   6    -0.01  -0.00   0.01    -0.07  -0.06   0.02     0.03  -0.05   0.15
     9   6     0.00  -0.01   0.01    -0.12   0.00  -0.04     0.09  -0.03  -0.09
    10   6    -0.00   0.00   0.02    -0.10   0.01  -0.06    -0.02   0.02   0.03
    11   1     0.00  -0.03  -0.02     0.06   0.02   0.08     0.02   0.14  -0.05
    12   1    -0.01   0.01   0.01     0.11   0.04   0.04    -0.02   0.00   0.00
    13   1    -0.11   0.13  -0.06     0.44   0.10  -0.07    -0.07   0.02   0.00
    14   1    -0.02  -0.00   0.09     0.20  -0.09  -0.27    -0.02  -0.01   0.07
    15   1     0.04  -0.02  -0.12     0.25  -0.01  -0.15     0.01  -0.00  -0.00
    16   1     0.60   0.13   0.12     0.16   0.12   0.10     0.01  -0.00   0.00
    17   1    -0.25   0.37  -0.20     0.21   0.09  -0.04    -0.05   0.01   0.00
    18   1    -0.10  -0.52   0.10     0.17   0.14   0.10    -0.03  -0.04  -0.01
    19   1     0.03   0.08   0.01    -0.10  -0.22   0.03    -0.23  -0.18  -0.09
    20   1    -0.02   0.02   0.08    -0.07  -0.06  -0.12     0.04  -0.05  -0.31
    21   1    -0.02   0.00   0.03    -0.01  -0.01   0.05    -0.04   0.11   0.42
    22   1    -0.01  -0.02   0.02    -0.06  -0.10   0.03     0.16  -0.35   0.25
    23   1    -0.00  -0.01  -0.01    -0.11   0.02  -0.01     0.02  -0.08  -0.34
    24   1     0.01  -0.01   0.01    -0.15   0.04  -0.05     0.37  -0.01  -0.09
    25   1    -0.02   0.00   0.04    -0.02  -0.02  -0.13     0.01  -0.00   0.06
    26   1     0.02   0.02   0.02    -0.20  -0.04  -0.07    -0.09   0.11   0.00
                     10                     11                     12
                      A                      A                      A
 Frequencies --    373.5671               409.1225               429.0444
 Red. masses --      3.4482                 2.5494                 2.8958
 Frc consts  --      0.2835                 0.2514                 0.3141
 IR Inten    --      2.1191                 2.0607                 0.9399
  Atom  AN      X      Y      Z        X      Y      Z        X      Y      Z
     1   8     0.10   0.19  -0.02    -0.04   0.02   0.00     0.14  -0.04  -0.01
     2   6    -0.03   0.10   0.15     0.05   0.06   0.01     0.08  -0.05  -0.03
     3   6     0.01  -0.00   0.13     0.12  -0.02   0.04    -0.02  -0.07   0.07
     4   6    -0.03  -0.13  -0.07     0.14   0.04  -0.07    -0.03  -0.06   0.02
     5   6    -0.17  -0.05  -0.08     0.00   0.07   0.14    -0.04  -0.05  -0.05
     6   6     0.12   0.00  -0.08    -0.04  -0.10  -0.12     0.03   0.01   0.02
     7   6     0.05  -0.07   0.07    -0.02  -0.08   0.05    -0.14  -0.11   0.05
     8   6     0.04  -0.03  -0.03    -0.05  -0.06  -0.00    -0.11   0.10   0.03
     9   6    -0.03   0.00   0.01    -0.12   0.01  -0.04    -0.03   0.09  -0.07
    10   6    -0.09  -0.04  -0.01     0.02   0.07  -0.05     0.10   0.16  -0.01
    11   1     0.18   0.07   0.13     0.19  -0.04   0.06    -0.00  -0.12   0.08
    12   1    -0.00  -0.14  -0.11     0.18   0.04  -0.08    -0.02  -0.07   0.01
    13   1    -0.27   0.01  -0.11    -0.29  -0.05   0.10    -0.01   0.02  -0.05
    14   1    -0.12   0.08   0.03     0.05   0.16   0.40    -0.04  -0.03  -0.08
    15   1    -0.25  -0.11  -0.16     0.05   0.12   0.22    -0.08  -0.08  -0.11
    16   1     0.17   0.05  -0.01    -0.02  -0.17  -0.23     0.06   0.06   0.09
    17   1     0.25  -0.00  -0.25    -0.22  -0.07   0.10     0.08   0.03  -0.09
    18   1     0.16   0.09   0.07    -0.10  -0.26  -0.26     0.04   0.04   0.08
    19   1     0.09  -0.18   0.09    -0.02  -0.13   0.06    -0.29  -0.29   0.07
    20   1     0.04  -0.05  -0.00    -0.07  -0.03  -0.02    -0.03  -0.14  -0.18
    21   1     0.11  -0.07  -0.12     0.05  -0.00   0.01     0.03   0.12  -0.03
    22   1    -0.00   0.06  -0.06    -0.08  -0.09   0.00    -0.18   0.11   0.02
    23   1    -0.01   0.08   0.03    -0.09   0.01   0.09    -0.07  -0.07  -0.09
    24   1    -0.07  -0.00   0.01    -0.23   0.04  -0.05     0.04   0.13  -0.08
    25   1     0.04  -0.06  -0.24     0.09   0.01   0.01    -0.07   0.17   0.30
    26   1    -0.31  -0.20  -0.02     0.01   0.11  -0.06     0.32   0.42  -0.03
                     13                     14                     15
                      A                      A                      A
 Frequencies --    469.7313               539.1869               591.6267
 Red. masses --      2.1259                 2.7316                 2.9351
 Frc consts  --      0.2764                 0.4679                 0.6053
 IR Inten    --      0.4173                 6.2333                 2.9827
  Atom  AN      X      Y      Z        X      Y      Z        X      Y      Z
     1   8    -0.02  -0.05  -0.04     0.16   0.01  -0.01    -0.13  -0.02   0.02
     2   6    -0.00  -0.07   0.10    -0.08  -0.08  -0.02     0.06   0.06  -0.01
     3   6    -0.04   0.01   0.05    -0.10  -0.04   0.00    -0.03   0.08   0.11
     4   6    -0.01   0.10  -0.07    -0.08   0.15  -0.06    -0.18   0.14  -0.07
     5   6     0.03   0.02   0.04     0.06   0.04   0.03    -0.06  -0.04  -0.04
     6   6     0.04  -0.04  -0.06     0.01  -0.02  -0.04     0.01   0.01  -0.00
     7   6    -0.08  -0.02   0.02     0.06  -0.06   0.03     0.03  -0.04   0.04
     8   6    -0.04   0.15  -0.00     0.09  -0.06  -0.01     0.06  -0.08  -0.01
     9   6     0.12   0.03   0.04    -0.06   0.04  -0.04     0.04  -0.04  -0.00
    10   6    -0.01  -0.07   0.02    -0.16   0.01   0.06     0.19   0.03  -0.09
    11   1     0.03   0.02   0.05    -0.11  -0.08   0.01    -0.01   0.03   0.13
    12   1     0.00   0.10  -0.08    -0.01   0.16  -0.07    -0.18   0.12  -0.10
    13   1    -0.02  -0.09   0.04     0.11  -0.09   0.06    -0.00  -0.13  -0.01
    14   1     0.01  -0.08   0.08    -0.01  -0.19  -0.02    -0.13  -0.25  -0.09
    15   1     0.16   0.09   0.15     0.28   0.14   0.18     0.13   0.03   0.07
    16   1     0.13  -0.13  -0.22     0.12  -0.14  -0.24     0.18  -0.11  -0.20
    17   1     0.03  -0.08   0.02     0.04  -0.09   0.05     0.16  -0.10  -0.03
    18   1     0.03  -0.13   0.06     0.01  -0.08   0.15     0.03   0.00   0.37
    19   1    -0.20  -0.18   0.04     0.17  -0.00   0.03     0.10  -0.19   0.08
    20   1     0.06  -0.07  -0.17     0.07  -0.10   0.16     0.02  -0.02  -0.03
    21   1    -0.03  -0.02  -0.24     0.12   0.05   0.12     0.05  -0.02   0.08
    22   1    -0.11   0.38  -0.08     0.14  -0.19   0.04     0.07  -0.17   0.02
    23   1     0.04  -0.08  -0.19    -0.02   0.21  -0.00     0.10  -0.06   0.28
    24   1     0.35   0.03   0.04    -0.13   0.01  -0.03    -0.22   0.01  -0.02
    25   1     0.00  -0.00  -0.27    -0.34   0.05   0.29     0.25  -0.03   0.01
    26   1    -0.21  -0.28   0.02     0.01   0.25   0.04     0.25   0.08  -0.08
                     16                     17                     18
                      A                      A                      A
 Frequencies --    664.7783               746.3282               815.7511
 Red. masses --      2.9241                 2.3156                 2.9957
 Frc consts  --      0.7614                 0.7599                 1.1745
 IR Inten    --      2.1543                 4.1510                 2.4358
  Atom  AN      X      Y      Z        X      Y      Z        X      Y      Z
     1   8     0.02  -0.12  -0.09     0.00  -0.06   0.01     0.01  -0.08  -0.02
     2   6     0.08  -0.15   0.27    -0.07  -0.05  -0.10     0.10  -0.02  -0.04
     3   6     0.02   0.04   0.05     0.01   0.14   0.17     0.20   0.09  -0.05
     4   6    -0.00  -0.01  -0.00     0.03  -0.04   0.02     0.00   0.10  -0.07
     5   6    -0.02  -0.02  -0.01     0.01  -0.00   0.01    -0.09  -0.09  -0.08
     6   6     0.00  -0.00  -0.00     0.02  -0.02  -0.07    -0.04   0.05   0.15
     7   6    -0.01   0.11  -0.09     0.05   0.14  -0.01     0.07   0.02   0.04
     8   6    -0.02   0.03  -0.05     0.02   0.03   0.01     0.01  -0.02   0.04
     9   6    -0.05   0.06  -0.08     0.01  -0.05  -0.01    -0.13   0.02  -0.01
    10   6     0.02   0.02   0.00    -0.06  -0.09  -0.03    -0.11  -0.00   0.05
    11   1     0.10   0.30  -0.01     0.04   0.05   0.19     0.31  -0.01  -0.01
    12   1    -0.01  -0.02  -0.01     0.00  -0.07  -0.02    -0.04   0.10  -0.05
    13   1    -0.06  -0.02  -0.02    -0.07   0.05  -0.01    -0.18  -0.23  -0.08
    14   1    -0.01   0.02   0.02     0.06   0.16   0.08    -0.11  -0.16  -0.03
    15   1    -0.05  -0.03  -0.02    -0.12  -0.04  -0.05    -0.01  -0.02   0.03
    16   1     0.00   0.00   0.01     0.02  -0.00  -0.04     0.00  -0.03   0.03
    17   1     0.02  -0.01  -0.02     0.05  -0.02  -0.11    -0.06  -0.00   0.27
    18   1     0.01   0.02   0.02     0.03   0.00  -0.07    -0.06  -0.01   0.24
    19   1     0.16   0.27  -0.10    -0.13  -0.30   0.07    -0.12  -0.14   0.05
    20   1    -0.07   0.11   0.15     0.09   0.21  -0.48     0.01   0.12  -0.25
    21   1    -0.12   0.24   0.29    -0.12  -0.02   0.01     0.18  -0.10  -0.16
    22   1     0.11  -0.31   0.07    -0.03   0.03   0.01    -0.11   0.19  -0.03
    23   1     0.02   0.07   0.26     0.04   0.03   0.08    -0.19   0.11  -0.32
    24   1    -0.37   0.09  -0.09    -0.10   0.02  -0.03     0.16  -0.02   0.00
    25   1    -0.00   0.04  -0.04    -0.27  -0.07   0.34    -0.02  -0.04  -0.01
    26   1    -0.24   0.12  -0.06     0.27   0.22  -0.04    -0.15  -0.10   0.07
                     19                     20                     21
                      A                      A                      A
 Frequencies --    850.5092               866.0857               906.3440
 Red. masses --      1.6295                 2.6057                 1.5682
 Frc consts  --      0.6945                 1.1516                 0.7590
 IR Inten    --      6.4359                 0.5452                 5.0367
  Atom  AN      X      Y      Z        X      Y      Z        X      Y      Z
     1   8    -0.01   0.04  -0.01    -0.03   0.05   0.01    -0.01  -0.02  -0.01
     2   6    -0.05  -0.01   0.09    -0.01   0.04   0.03     0.04  -0.01   0.04
     3   6     0.01  -0.01  -0.11    -0.02  -0.10  -0.05    -0.00   0.06  -0.00
     4   6     0.01   0.01  -0.03    -0.01   0.00  -0.01    -0.05  -0.02   0.04
     5   6    -0.00   0.00  -0.01    -0.01   0.02  -0.00     0.02   0.03   0.04
     6   6     0.00   0.01   0.05    -0.01   0.01   0.02    -0.00  -0.02  -0.07
     7   6    -0.03   0.01   0.05     0.12   0.02   0.01     0.04  -0.06  -0.04
     8   6     0.04  -0.04   0.06    -0.01   0.22   0.02     0.02  -0.01   0.09
     9   6     0.09  -0.03  -0.03    -0.13  -0.08  -0.10    -0.11   0.01   0.02
    10   6    -0.01  -0.04  -0.07     0.06  -0.14   0.04     0.01  -0.04  -0.06
    11   1     0.14   0.07  -0.11     0.00  -0.14  -0.03    -0.05   0.31  -0.08
    12   1    -0.02   0.03   0.03     0.09   0.03   0.01    -0.14  -0.04   0.03
    13   1    -0.01  -0.04  -0.00     0.05  -0.03   0.02     0.10   0.14   0.04
    14   1    -0.01  -0.04  -0.01    -0.05  -0.11  -0.04     0.02   0.05  -0.02
    15   1     0.04   0.03   0.03     0.11   0.06   0.05    -0.03  -0.02  -0.05
    16   1    -0.06   0.03   0.09    -0.00  -0.00   0.01     0.03   0.01  -0.02
    17   1    -0.06   0.04   0.09    -0.02   0.01   0.05     0.08  -0.02  -0.19
    18   1    -0.01  -0.01  -0.04    -0.01  -0.01   0.02     0.02   0.04   0.00
    19   1    -0.29   0.04   0.01    -0.03  -0.09   0.01     0.13   0.20  -0.08
    20   1     0.04  -0.02  -0.07     0.45  -0.18  -0.12    -0.05  -0.05   0.23
    21   1     0.09  -0.25  -0.26     0.04   0.35   0.16     0.16  -0.17  -0.21
    22   1    -0.22   0.24  -0.05    -0.03   0.03   0.08     0.11   0.38  -0.03
    23   1     0.19   0.04   0.36    -0.13  -0.23   0.03    -0.20  -0.13  -0.27
    24   1    -0.27   0.22  -0.09    -0.21  -0.05  -0.11     0.26   0.22  -0.02
    25   1    -0.11  -0.06   0.23     0.28  -0.33   0.23     0.04  -0.13   0.22
    26   1    -0.02   0.37  -0.15     0.04   0.03   0.00     0.15   0.16  -0.07
                     22                     23                     24
                      A                      A                      A
 Frequencies --    923.5666               940.2155               957.4187
 Red. masses --      1.8768                 1.2104                 2.2147
 Frc consts  --      0.9432                 0.6304                 1.1961
 IR Inten    --      1.4240                 1.9932                 0.6153
  Atom  AN      X      Y      Z        X      Y      Z        X      Y      Z
     1   8     0.00  -0.04  -0.01    -0.00   0.00   0.00     0.03  -0.00  -0.01
     2   6     0.07   0.00  -0.01     0.00   0.01  -0.00     0.00  -0.02   0.03
     3   6    -0.00   0.06  -0.09    -0.01   0.01  -0.02     0.05  -0.10  -0.00
     4   6    -0.09  -0.04   0.05     0.02   0.03   0.03    -0.06  -0.01   0.05
     5   6     0.03   0.05   0.07    -0.02  -0.06   0.05    -0.04   0.04   0.05
     6   6    -0.00  -0.05  -0.08     0.03   0.07  -0.02    -0.01   0.01  -0.06
     7   6    -0.01   0.02   0.10    -0.02  -0.01   0.01     0.15   0.08  -0.05
     8   6     0.06  -0.03  -0.00     0.02   0.01  -0.00    -0.08  -0.04   0.06
     9   6    -0.02   0.02  -0.08     0.00   0.01  -0.02    -0.00  -0.08   0.05
    10   6     0.00   0.01   0.10     0.00  -0.02   0.02    -0.03   0.15  -0.05
    11   1    -0.06  -0.10  -0.04    -0.06  -0.01  -0.02     0.01  -0.13   0.00
    12   1    -0.28  -0.02   0.13    -0.10  -0.17  -0.29     0.09  -0.03  -0.05
    13   1     0.19   0.22   0.08     0.17   0.33   0.03     0.28   0.20   0.10
    14   1     0.02   0.04  -0.06     0.01   0.10  -0.16    -0.13  -0.22  -0.20
    15   1    -0.00  -0.01  -0.05    -0.25  -0.27  -0.30     0.12  -0.01  -0.07
    16   1    -0.01   0.07   0.11     0.03  -0.18  -0.40     0.07  -0.06  -0.18
    17   1     0.09   0.01  -0.33    -0.12  -0.07   0.43     0.04  -0.05  -0.02
    18   1     0.04   0.08  -0.08    -0.05  -0.19  -0.02    -0.01  -0.03   0.08
    19   1    -0.28  -0.16   0.11    -0.03   0.00   0.01    -0.03  -0.07  -0.03
    20   1     0.06   0.04  -0.23    -0.02  -0.01   0.02     0.27   0.04  -0.24
    21   1     0.27   0.03  -0.04     0.07   0.03  -0.00    -0.31  -0.24  -0.08
    22   1    -0.22  -0.09  -0.01    -0.00  -0.00  -0.00    -0.19   0.10   0.01
    23   1     0.05   0.23   0.05     0.02   0.04   0.02    -0.03  -0.22   0.06
    24   1    -0.20  -0.12  -0.04    -0.04   0.01  -0.02     0.02  -0.04   0.05
    25   1     0.18  -0.03  -0.15     0.03  -0.04   0.03    -0.07   0.21  -0.19
    26   1    -0.24  -0.17   0.09    -0.01  -0.00   0.01    -0.23   0.10  -0.08
                     25                     26                     27
                      A                      A                      A
 Frequencies --    978.5714              1021.9374              1033.6699
 Red. masses --      1.4891                 1.8593                 1.7232
 Frc consts  --      0.8402                 1.1441                 1.0848
 IR Inten    --      0.2913                 8.5043                 2.3376
  Atom  AN      X      Y      Z        X      Y      Z        X      Y      Z
     1   8     0.00   0.01  -0.00     0.01  -0.02  -0.01    -0.00   0.02   0.00
     2   6    -0.01  -0.00   0.00    -0.04  -0.04   0.01    -0.05  -0.01   0.00
     3   6     0.01  -0.02  -0.02    -0.07   0.13  -0.06     0.14   0.02  -0.04
     4   6    -0.04  -0.05  -0.08     0.02   0.04  -0.01    -0.07  -0.02  -0.04
     5   6     0.12   0.03   0.02     0.03  -0.04  -0.02    -0.02   0.05   0.07
     6   6    -0.11   0.02   0.06     0.05  -0.01   0.02    -0.01  -0.02   0.02
     7   6     0.02  -0.00  -0.00     0.09  -0.09   0.06    -0.02  -0.06   0.03
     8   6    -0.01   0.01   0.01    -0.03   0.05   0.01    -0.05   0.05  -0.07
     9   6     0.01  -0.01   0.00    -0.01  -0.09   0.03     0.05   0.02   0.04
    10   6    -0.00   0.01  -0.00    -0.00   0.09  -0.03    -0.02  -0.06  -0.04
    11   1     0.04  -0.04  -0.01    -0.03   0.25  -0.09     0.57   0.03   0.00
    12   1    -0.11  -0.19  -0.29    -0.27   0.04   0.08    -0.22  -0.03  -0.01
    13   1    -0.16   0.06  -0.04    -0.15  -0.05  -0.06     0.29   0.24   0.11
    14   1     0.25   0.43   0.22     0.10   0.21   0.09    -0.09  -0.14  -0.17
    15   1    -0.19  -0.02  -0.01    -0.16  -0.06  -0.02     0.09  -0.01  -0.08
    16   1     0.19  -0.04  -0.08    -0.12   0.04   0.11    -0.04   0.04   0.11
    17   1     0.18  -0.11  -0.12    -0.10   0.07   0.09     0.00   0.02  -0.07
    18   1    -0.05   0.07   0.58     0.02  -0.01  -0.27     0.00   0.04  -0.01
    19   1     0.00   0.00  -0.01     0.10  -0.10   0.07     0.15  -0.06   0.04
    20   1     0.04  -0.02  -0.01     0.24  -0.19   0.07    -0.13   0.01   0.07
    21   1    -0.03  -0.00   0.00     0.09   0.12   0.06    -0.07   0.21   0.16
    22   1    -0.03   0.00   0.01    -0.09  -0.06   0.04     0.10  -0.18   0.02
    23   1     0.01  -0.05   0.04    -0.05  -0.38   0.10     0.02  -0.09   0.02
    24   1    -0.03  -0.01   0.00    -0.05  -0.25   0.07     0.05  -0.05   0.05
    25   1    -0.01   0.03  -0.03    -0.19   0.24  -0.19    -0.26   0.06   0.07
    26   1    -0.04   0.01  -0.01    -0.05  -0.03  -0.02     0.23  -0.01  -0.00
                     28                     29                     30
                      A                      A                      A
 Frequencies --   1076.3797              1086.0932              1089.7817
 Red. masses --      2.3073                 1.8633                 1.1285
 Frc consts  --      1.5750                 1.2950                 0.7897
 IR Inten    --     16.7542                 1.6953                 1.2604
  Atom  AN      X      Y      Z        X      Y      Z        X      Y      Z
     1   8     0.02   0.01  -0.02    -0.01   0.01  -0.00     0.00   0.01   0.00
     2   6    -0.10  -0.06   0.10    -0.02  -0.01   0.03    -0.06  -0.02  -0.00
     3   6    -0.09  -0.04  -0.02    -0.04   0.02  -0.03     0.03  -0.00   0.02
     4   6    -0.03  -0.04  -0.09    -0.01   0.00  -0.02     0.02  -0.02   0.03
     5   6     0.03   0.04   0.02     0.02  -0.00  -0.01    -0.02   0.01  -0.01
     6   6     0.04   0.01   0.07     0.02   0.00   0.02    -0.03   0.02  -0.02
     7   6    -0.01   0.12   0.03     0.13  -0.03   0.00     0.00  -0.01  -0.01
     8   6     0.09  -0.08  -0.03    -0.14  -0.08   0.00     0.01   0.00   0.02
     9   6    -0.11   0.02   0.03     0.02   0.15  -0.01    -0.01   0.01  -0.02
    10   6     0.11   0.05  -0.06     0.05  -0.06   0.03     0.02   0.01  -0.01
    11   1     0.23  -0.18   0.06     0.01   0.12  -0.05    -0.00   0.43  -0.11
    12   1    -0.06  -0.07  -0.13    -0.10  -0.01  -0.00     0.22  -0.02  -0.02
    13   1     0.05   0.05   0.02    -0.04  -0.01  -0.02     0.03  -0.04   0.01
    14   1     0.03   0.04   0.01     0.04   0.08   0.03    -0.06  -0.11  -0.02
    15   1     0.05   0.04   0.02    -0.03   0.00   0.01     0.08   0.04   0.03
    16   1    -0.13   0.01   0.09    -0.05   0.00   0.03     0.09  -0.04  -0.12
    17   1    -0.13   0.06   0.21    -0.05   0.03   0.07     0.06  -0.05  -0.02
    18   1    -0.00  -0.06  -0.19     0.00  -0.01  -0.10    -0.02  -0.02   0.18
    19   1    -0.15  -0.14   0.07     0.12  -0.13   0.02    -0.27   0.25  -0.09
    20   1    -0.09   0.24  -0.28     0.28  -0.13  -0.03     0.06  -0.05   0.04
    21   1     0.20  -0.03  -0.03    -0.39  -0.19  -0.00     0.27   0.07  -0.04
    22   1     0.15  -0.01  -0.04    -0.40  -0.16  -0.00    -0.34  -0.08   0.01
    23   1    -0.20  -0.08  -0.26     0.05   0.42  -0.12     0.01   0.06  -0.00
    24   1     0.22  -0.15   0.08     0.08   0.21  -0.03    -0.07  -0.30   0.05
    25   1     0.12   0.05  -0.07     0.09  -0.09   0.06    -0.12   0.11  -0.08
    26   1     0.34  -0.17   0.02     0.26  -0.15   0.08     0.32  -0.24   0.09
                     31                     32                     33
                      A                      A                      A
 Frequencies --   1148.6900              1156.4710              1185.1019
 Red. masses --      1.7392                 2.2730                 2.1646
 Frc consts  --      1.3521                 1.7911                 1.7912
 IR Inten    --     25.5717                 2.9472                 9.3485
  Atom  AN      X      Y      Z        X      Y      Z        X      Y      Z
     1   8    -0.02  -0.01  -0.00    -0.02   0.04  -0.01     0.01   0.02   0.01
     2   6     0.14   0.05   0.01     0.02  -0.01   0.11    -0.10  -0.03  -0.03
     3   6    -0.03  -0.04   0.04     0.03  -0.04  -0.11     0.08  -0.11   0.08
     4   6    -0.03  -0.00  -0.06     0.05   0.11   0.14    -0.05   0.18  -0.01
     5   6     0.01   0.01   0.02     0.00  -0.09  -0.02     0.03  -0.10   0.03
     6   6     0.03  -0.02   0.03    -0.05  -0.00  -0.08     0.02  -0.07  -0.01
     7   6    -0.06   0.03  -0.00    -0.00   0.03   0.08    -0.00   0.01  -0.09
     8   6     0.06   0.03  -0.02     0.01  -0.01  -0.08     0.02   0.01   0.06
     9   6    -0.01  -0.08   0.05    -0.02   0.02   0.08    -0.00  -0.00  -0.06
    10   6    -0.09   0.03  -0.08    -0.01  -0.03  -0.10     0.02   0.02   0.03
    11   1     0.07   0.10   0.01    -0.16  -0.22  -0.07     0.27  -0.11   0.10
    12   1    -0.12  -0.03  -0.08     0.04   0.21   0.31    -0.24   0.23   0.14
    13   1     0.03   0.06   0.01    -0.17  -0.06  -0.07    -0.11   0.15  -0.04
    14   1     0.03   0.07  -0.01     0.06   0.10   0.04     0.12   0.24  -0.00
    15   1    -0.01  -0.01  -0.02    -0.23  -0.15  -0.08    -0.33  -0.23  -0.16
    16   1    -0.09   0.03   0.11     0.16  -0.01  -0.13    -0.08   0.08   0.22
    17   1    -0.06   0.05   0.04     0.15  -0.07  -0.24    -0.03   0.08  -0.19
    18   1     0.01  -0.01  -0.12    -0.00   0.08   0.21     0.06   0.11  -0.16
    19   1    -0.20   0.14  -0.04    -0.09  -0.16   0.10    -0.07   0.26  -0.15
    20   1     0.39  -0.31   0.14     0.03   0.05  -0.16    -0.04   0.01   0.06
    21   1    -0.26  -0.06   0.04    -0.04   0.10   0.10    -0.01  -0.10  -0.08
    22   1    -0.03  -0.06   0.00     0.06  -0.19  -0.02    -0.10   0.12   0.01
    23   1     0.04   0.48  -0.17    -0.06   0.07  -0.16     0.03   0.02   0.06
    24   1     0.02  -0.33   0.11     0.18  -0.12   0.11    -0.11  -0.06  -0.05
    25   1    -0.02  -0.07   0.12    -0.17   0.00   0.14     0.14  -0.02  -0.07
    26   1     0.17   0.05  -0.04     0.27   0.06  -0.06     0.10  -0.17   0.08
                     34                     35                     36
                      A                      A                      A
 Frequencies --   1219.2076              1242.4148              1275.5867
 Red. masses --      1.9074                 1.5050                 1.4016
 Frc consts  --      1.6705                 1.3687                 1.3437
 IR Inten    --      3.6256                 8.5325                 1.4253
  Atom  AN      X      Y      Z        X      Y      Z        X      Y      Z
     1   8     0.00  -0.01  -0.00     0.03  -0.03  -0.00    -0.01   0.01  -0.01
     2   6    -0.02  -0.01  -0.00    -0.12  -0.04  -0.03     0.04   0.00   0.06
     3   6    -0.08   0.05  -0.01     0.01   0.04  -0.03    -0.03   0.05  -0.04
     4   6     0.16   0.07  -0.12     0.03  -0.03   0.05     0.04  -0.02   0.01
     5   6    -0.07  -0.04   0.09    -0.01   0.00  -0.01    -0.01   0.01  -0.00
     6   6    -0.07  -0.08   0.05    -0.03   0.03  -0.03    -0.02   0.01  -0.00
     7   6     0.00   0.00   0.03    -0.05  -0.01   0.05    -0.02  -0.01  -0.04
     8   6     0.01  -0.01  -0.01     0.04   0.03  -0.01    -0.00   0.02   0.10
     9   6    -0.01   0.00   0.00    -0.01  -0.05  -0.02    -0.00  -0.04  -0.10
    10   6     0.02   0.01   0.01     0.01   0.08   0.01    -0.01   0.01   0.00
    11   1    -0.15   0.12  -0.04     0.35   0.24  -0.05     0.04  -0.37   0.09
    12   1     0.38   0.06  -0.21     0.00   0.04   0.19    -0.00  -0.00   0.05
    13   1     0.24   0.25   0.10    -0.00  -0.05  -0.00     0.03  -0.02   0.01
    14   1    -0.10  -0.09  -0.26    -0.02  -0.04   0.02    -0.03  -0.05  -0.01
    15   1    -0.03  -0.21  -0.26     0.02   0.02   0.02     0.03   0.01  -0.00
    16   1     0.07   0.13   0.35     0.09  -0.04  -0.16     0.06  -0.01  -0.04
    17   1     0.09  -0.00  -0.31     0.06  -0.06   0.00     0.03  -0.03  -0.01
    18   1     0.03   0.20   0.18    -0.03  -0.02   0.12    -0.01   0.02   0.04
    19   1     0.03  -0.09   0.05     0.04  -0.09   0.08     0.36  -0.17   0.03
    20   1     0.08  -0.05  -0.00     0.09  -0.11   0.06    -0.09   0.01   0.07
    21   1    -0.06  -0.04   0.00    -0.42  -0.15   0.02    -0.10  -0.14  -0.07
    22   1     0.05  -0.00  -0.00     0.30   0.10  -0.00     0.12   0.27   0.03
    23   1    -0.02  -0.01  -0.02     0.04   0.22  -0.03     0.07   0.19   0.04
    24   1     0.02   0.06  -0.01    -0.03   0.00  -0.03    -0.21  -0.20  -0.06
    25   1     0.06  -0.01  -0.01     0.49  -0.20  -0.02    -0.27   0.19  -0.08
    26   1    -0.05   0.01  -0.01    -0.04  -0.04   0.02     0.38  -0.31   0.13
                     37                     38                     39
                      A                      A                      A
 Frequencies --   1292.1220              1321.6428              1336.5704
 Red. masses --      1.2818                 1.2789                 1.3683
 Frc consts  --      1.2609                 1.3162                 1.4402
 IR Inten    --      1.8244                 1.9165                 3.9723
  Atom  AN      X      Y      Z        X      Y      Z        X      Y      Z
     1   8     0.01  -0.01  -0.01     0.00  -0.01   0.00    -0.01  -0.01   0.00
     2   6    -0.04  -0.02   0.03     0.01   0.01  -0.02     0.06   0.03  -0.02
     3   6     0.02   0.02  -0.01    -0.09   0.06   0.01    -0.06  -0.08  -0.02
     4   6     0.00   0.00  -0.01     0.03  -0.03  -0.01    -0.08  -0.01  -0.03
     5   6    -0.00   0.01  -0.00    -0.01  -0.02   0.01     0.03  -0.04   0.02
     6   6     0.00  -0.01   0.01    -0.02   0.03  -0.01     0.01   0.01   0.01
     7   6     0.04  -0.05  -0.03    -0.01   0.00  -0.07     0.01   0.03   0.02
     8   6    -0.03   0.05   0.04    -0.01  -0.02   0.02    -0.04   0.00   0.02
     9   6     0.03  -0.01   0.04    -0.00   0.02   0.04     0.02  -0.03  -0.00
    10   6    -0.03   0.04  -0.06     0.02  -0.02  -0.01    -0.04   0.01   0.00
    11   1    -0.25  -0.14   0.01     0.51  -0.32   0.18     0.21   0.47  -0.15
    12   1    -0.02  -0.07  -0.13     0.10   0.18   0.35     0.45   0.22   0.20
    13   1     0.00  -0.01   0.00     0.05   0.05   0.02    -0.02   0.10  -0.01
    14   1    -0.02  -0.05  -0.01     0.01   0.04  -0.00     0.08   0.12   0.02
    15   1     0.01   0.02   0.00    -0.00  -0.04  -0.03    -0.11  -0.07  -0.03
    16   1    -0.02   0.01   0.05     0.08  -0.03  -0.11    -0.04  -0.02  -0.04
    17   1    -0.01   0.01  -0.01     0.05  -0.05   0.03    -0.02   0.02   0.03
    18   1     0.01   0.02  -0.03    -0.03  -0.02   0.08    -0.01  -0.04  -0.06
    19   1     0.19  -0.03  -0.02     0.08   0.07  -0.08     0.26  -0.29   0.11
    20   1    -0.38   0.25  -0.05     0.14  -0.14   0.10    -0.20   0.20  -0.10
    21   1     0.13   0.11   0.02     0.27   0.06  -0.04     0.20   0.10   0.01
    22   1    -0.27  -0.02   0.04    -0.29  -0.10   0.01     0.06   0.08   0.01
    23   1     0.08   0.28  -0.03    -0.02   0.03  -0.03     0.06   0.11   0.02
    24   1    -0.00  -0.36   0.13     0.07  -0.12   0.08    -0.04   0.04  -0.02
    25   1     0.41  -0.28   0.14     0.04  -0.03   0.01     0.01  -0.02   0.00
    26   1    -0.02   0.11  -0.07    -0.22   0.20  -0.09     0.06  -0.03   0.02
                     40                     41                     42
                      A                      A                      A
 Frequencies --   1359.8786              1374.3533              1386.8970
 Red. masses --      1.3652                 1.3869                 1.4461
 Frc consts  --      1.4874                 1.5435                 1.6389
 IR Inten    --      4.2611                 2.2347                11.5395
  Atom  AN      X      Y      Z        X      Y      Z        X      Y      Z
     1   8    -0.00   0.01   0.01    -0.00   0.00  -0.00     0.00   0.01  -0.00
     2   6    -0.03  -0.00  -0.03     0.01  -0.01   0.02    -0.05  -0.03   0.01
     3   6     0.02  -0.01  -0.00     0.01   0.05   0.01     0.03   0.05   0.00
     4   6    -0.02   0.01   0.00    -0.05  -0.06  -0.09    -0.03  -0.00   0.00
     5   6     0.01  -0.00   0.00     0.01  -0.02   0.03     0.00  -0.01   0.00
     6   6     0.01  -0.00   0.00     0.02   0.03  -0.01     0.01  -0.01  -0.00
     7   6     0.01  -0.02   0.02     0.06  -0.07   0.03     0.03  -0.01   0.00
     8   6     0.01   0.01   0.03     0.02   0.03  -0.02    -0.11  -0.01  -0.02
     9   6    -0.04   0.03  -0.01     0.00   0.02  -0.02     0.00  -0.12   0.02
    10   6     0.13  -0.08   0.01    -0.02   0.01  -0.00     0.05   0.02   0.00
    11   1    -0.05   0.13  -0.05    -0.23  -0.18   0.05    -0.07  -0.19   0.06
    12   1     0.08   0.01  -0.03     0.26   0.30   0.43     0.14   0.00  -0.05
    13   1    -0.02   0.00  -0.01     0.05   0.12   0.02    -0.01   0.02  -0.00
    14   1     0.01   0.00   0.00     0.04   0.10  -0.03     0.01   0.02   0.00
    15   1    -0.03  -0.01  -0.00    -0.01  -0.05  -0.03    -0.01   0.00   0.01
    16   1    -0.03  -0.00   0.01    -0.08   0.02  -0.00    -0.05   0.00   0.02
    17   1    -0.01   0.01  -0.00    -0.06  -0.01   0.17    -0.02   0.02   0.00
    18   1     0.00  -0.01  -0.02    -0.02  -0.09   0.12     0.01  -0.01   0.01
    19   1     0.00  -0.03   0.02    -0.38   0.28  -0.09    -0.17   0.18  -0.06
    20   1    -0.11   0.07  -0.01    -0.19   0.11  -0.02     0.14  -0.08  -0.01
    21   1    -0.22  -0.08   0.03    -0.32  -0.09   0.02     0.38   0.22   0.02
    22   1     0.13   0.16   0.00     0.11  -0.01  -0.00     0.33   0.08  -0.00
    23   1    -0.02   0.32  -0.13    -0.02  -0.11   0.00     0.10   0.55  -0.10
    24   1    -0.03  -0.46   0.10    -0.05  -0.03  -0.01     0.04   0.36  -0.09
    25   1    -0.32   0.23  -0.14     0.01  -0.02   0.03    -0.05   0.10  -0.08
    26   1    -0.40   0.34  -0.16     0.08  -0.08   0.03    -0.00  -0.01  -0.00
                     43                     44                     45
                      A                      A                      A
 Frequencies --   1397.4684              1399.7928              1403.9139
 Red. masses --      1.3924                 1.5100                 1.5482
 Frc consts  --      1.6021                 1.7432                 1.7978
 IR Inten    --      4.7153                 1.6925                 4.8441
  Atom  AN      X      Y      Z        X      Y      Z        X      Y      Z
     1   8     0.00  -0.00  -0.00     0.00  -0.01  -0.00    -0.01  -0.01  -0.00
     2   6    -0.01  -0.01   0.01     0.02   0.02  -0.00     0.06   0.02  -0.01
     3   6     0.04   0.08  -0.03    -0.03  -0.03   0.02    -0.13  -0.01  -0.01
     4   6    -0.11   0.02   0.07     0.05   0.00  -0.01     0.03   0.04   0.07
     5   6     0.02  -0.02  -0.01    -0.02   0.00  -0.00     0.01   0.01  -0.02
     6   6     0.03  -0.03   0.02    -0.01   0.01  -0.01    -0.01  -0.02   0.02
     7   6    -0.03  -0.00   0.00     0.04   0.03   0.01     0.10  -0.07   0.02
     8   6    -0.01  -0.02   0.00    -0.13  -0.07   0.01    -0.00   0.03  -0.02
     9   6     0.02   0.06  -0.01     0.06   0.09  -0.03     0.00  -0.02  -0.00
    10   6    -0.02  -0.00  -0.01    -0.05  -0.01  -0.01    -0.01   0.00   0.01
    11   1     0.08  -0.21   0.06     0.03   0.07  -0.00     0.50  -0.02   0.06
    12   1     0.67  -0.08  -0.38    -0.27  -0.00   0.09     0.02  -0.17  -0.30
    13   1    -0.06   0.06  -0.03     0.04  -0.01   0.01    -0.04  -0.10  -0.01
    14   1     0.04   0.05   0.05    -0.01   0.02  -0.00    -0.03  -0.11   0.05
    15   1    -0.07   0.02   0.07     0.06   0.01  -0.01    -0.07   0.01  -0.00
    16   1    -0.07  -0.04   0.00     0.02   0.03   0.02     0.06  -0.06  -0.06
    17   1    -0.02   0.08  -0.12    -0.00  -0.03   0.04     0.09   0.02  -0.19
    18   1     0.02  -0.00  -0.16    -0.00   0.01   0.09    -0.00   0.03  -0.13
    19   1    -0.01   0.02   0.00    -0.21   0.05  -0.01    -0.38   0.26  -0.10
    20   1     0.21  -0.19   0.08     0.14  -0.03  -0.01    -0.35   0.26  -0.08
    21   1    -0.03  -0.06  -0.03     0.24   0.05  -0.02    -0.17  -0.02   0.01
    22   1     0.12   0.02  -0.00     0.58   0.25  -0.02     0.07  -0.02   0.01
    23   1    -0.02  -0.20   0.05     0.04  -0.13   0.08     0.00   0.03  -0.04
    24   1    -0.03  -0.22   0.05    -0.12  -0.46   0.10    -0.05   0.07  -0.03
    25   1     0.11  -0.10   0.05     0.16  -0.15   0.04    -0.04   0.03  -0.03
    26   1     0.03   0.00  -0.00     0.06   0.07  -0.01     0.02  -0.01   0.02
                     46                     47                     48
                      A                      A                      A
 Frequencies --   1429.5487              1449.1315              1496.4749
 Red. masses --      1.2744                 1.2341                 1.0893
 Frc consts  --      1.5344                 1.5270                 1.4373
 IR Inten    --      8.4538                 4.2674                 6.2563
  Atom  AN      X      Y      Z        X      Y      Z        X      Y      Z
     1   8    -0.00  -0.00   0.00    -0.00   0.01   0.00    -0.00   0.00   0.00
     2   6     0.01   0.01  -0.00    -0.00  -0.01   0.00     0.00   0.00  -0.01
     3   6    -0.02  -0.01  -0.01     0.01  -0.01   0.01    -0.00  -0.01   0.00
     4   6     0.00   0.02   0.04     0.02   0.00  -0.02     0.00   0.00   0.00
     5   6    -0.05  -0.06  -0.05    -0.07  -0.07  -0.04     0.00   0.00  -0.00
     6   6     0.02  -0.03  -0.10    -0.02   0.02   0.09    -0.00  -0.00  -0.00
     7   6     0.01  -0.01  -0.00     0.00  -0.00   0.00     0.00   0.00   0.00
     8   6     0.01   0.01   0.00     0.00   0.00  -0.00    -0.02   0.01   0.01
     9   6    -0.00  -0.01   0.00    -0.00  -0.00  -0.00    -0.00   0.01  -0.01
    10   6     0.00  -0.00   0.00     0.00  -0.00  -0.00     0.05   0.04  -0.05
    11   1     0.14   0.01   0.00    -0.10   0.01  -0.02     0.04   0.03  -0.00
    12   1     0.03  -0.07  -0.14    -0.07   0.03   0.05    -0.01  -0.00  -0.00
    13   1     0.28   0.23  -0.01     0.33   0.28   0.01     0.00  -0.00   0.00
    14   1     0.08   0.28   0.23     0.09   0.38   0.18    -0.00  -0.01   0.01
    15   1     0.22   0.15   0.27     0.33   0.14   0.25    -0.01   0.00   0.00
    16   1    -0.08   0.24   0.35     0.11  -0.21  -0.29     0.00   0.00   0.00
    17   1    -0.23  -0.06   0.33     0.20   0.05  -0.31    -0.00  -0.00   0.00
    18   1     0.08   0.07   0.38    -0.06  -0.01  -0.34     0.00   0.00   0.01
    19   1     0.01  -0.02   0.00    -0.01   0.01  -0.00     0.01   0.01  -0.00
    20   1    -0.07   0.04  -0.00    -0.03   0.02  -0.02     0.01   0.00  -0.02
    21   1    -0.02  -0.01  -0.00    -0.01   0.01   0.01     0.04  -0.06  -0.12
    22   1    -0.05  -0.02   0.00     0.01   0.01  -0.00     0.09  -0.11   0.05
    23   1    -0.00   0.01  -0.01     0.00   0.01  -0.00     0.03   0.03   0.07
    24   1     0.00   0.02  -0.01     0.00   0.00  -0.00     0.06  -0.05   0.01
    25   1    -0.01   0.01  -0.01    -0.01   0.01   0.01    -0.19  -0.03   0.67
    26   1    -0.00   0.01  -0.00    -0.00  -0.01  -0.00    -0.41  -0.53   0.01
                     49                     50                     51
                      A                      A                      A
 Frequencies --   1518.4187              1519.4366              1520.5450
 Red. masses --      1.0776                 1.0807                 1.0578
 Frc consts  --      1.4638                 1.4700                 1.4410
 IR Inten    --      1.7529                 6.1901                 1.8432
  Atom  AN      X      Y      Z        X      Y      Z        X      Y      Z
     1   8    -0.00  -0.00  -0.00    -0.00   0.00  -0.00    -0.00   0.00   0.00
     2   6     0.01   0.01   0.00     0.00  -0.00  -0.00     0.01   0.00   0.00
     3   6    -0.01  -0.00   0.00    -0.00   0.01  -0.00    -0.00  -0.00   0.00
     4   6     0.00  -0.01  -0.01    -0.00   0.00   0.01    -0.00   0.00  -0.00
[...]
 ,-0.09740494,-0.00102503,0.09962690,-0.01013557,0.00142194,0.01810772,
 0.00045649,-0.00124016,-0.00037352,-0.00003167,-0.00001402,-0.00020743
 ,-0.00317105,0.00012914,-0.00441210,0.00017087,-0.00019826,0.00020960,
 -0.00006363,-0.00008163,0.00003509,0.00005367,0.00004453,0.00004857,0.
 00003079,0.00008772,0.00007999,-0.00105060,0.00074647,-0.00012475,-0.0
 0025741,-0.00000121,0.00014476,-0.00007357,-0.00011548,-0.00011139,0.1
 0810877,0.00030651,0.00005883,0.00011667,0.00008979,-0.00009662,-0.000
 76199,-0.00049662,-0.00008703,0.00045217,-0.00044050,0.00017681,0.0005
 5719,0.00004765,-0.00035765,-0.00007956,0.00083565,0.00004505,0.000475
 91,-0.00108002,-0.05124409,-0.00401343,0.01353274,-0.00222771,-0.02622
 473,0.00053949,0.00175176,-0.00129488,-0.00020933,-0.00013994,0.000184
 20,0.00052698,0.00072356,0.00000615,0.00007416,0.00000742,-0.00022109,
 -0.00002144,0.00004327,-0.00012896,0.00008045,-0.00001998,0.00008411,0
 .00000298,0.00011728,0.00016003,0.00077160,-0.00099352,-0.00025436,-0.
 00006818,0.00000448,-0.00002456,-0.00020847,-0.00006927,-0.00014050,-0
 .00487048,0.05452393,-0.00144654,-0.00038617,0.00031432,0.00237943,0.0
 0189562,-0.00042827,0.00746823,-0.00098618,-0.02179891,0.00097720,-0.0
 0086989,-0.00021108,-0.00015237,0.00013224,0.00008499,0.00013804,-0.00
 068859,-0.00030760,0.09960086,-0.00335990,-0.25495341,0.00146196,-0.00
 019483,-0.00199378,-0.00031111,0.00049127,-0.00000520,-0.00008586,-0.0
 0041173,-0.00032373,-0.00386622,-0.00038198,-0.00273215,-0.00010530,0.
 00005955,0.00021211,-0.00006275,-0.00012169,0.00018329,-0.00004402,0.0
 0011306,-0.00002358,0.00003361,-0.00000866,-0.00006259,0.00067131,0.00
 036558,0.00079036,-0.00033778,-0.00012524,-0.00004851,0.00026195,-0.00
 005941,0.00063134,-0.10784604,0.00520375,0.27941143,-0.00205152,-0.001
 55888,0.00082632,-0.00035761,0.00459617,-0.00412041,-0.01561966,-0.019
 64464,-0.00117138,0.00027567,-0.00118342,0.00047777,-0.00051485,-0.000
 35972,-0.00072898,-0.00033542,0.00010826,-0.00016940,-0.13805487,-0.12
 401750,0.01344155,0.01252644,0.01716477,-0.00166198,-0.00229876,0.0026
 9072,0.00041425,-0.00003855,-0.00001042,0.00065211,0.00140881,0.000644
 49,0.00043274,0.00016719,-0.00001831,0.00004324,0.00004349,0.00004879,
 0.00013008,0.00039886,0.00016578,0.00030611,0.00048632,0.00107445,0.00
 016539,-0.00011191,0.00001669,0.00034503,0.00029499,0.00004686,-0.0001
 2129,0.00003869,0.00014705,0.00008627,-0.00863212,-0.01166225,0.001297
 06,0.14997747,-0.00012466,0.00018486,-0.00018861,0.00107049,0.00029444
 ,0.00028101,0.00040984,0.00246910,-0.00034824,0.00003272,-0.00023707,-
 0.00030878,0.00027745,-0.00064598,0.00031746,-0.00006871,0.00011220,-0
 .00014173,-0.12309512,-0.21642878,0.01477522,-0.01687959,-0.02241156,0
 .00258264,0.00561082,-0.00366638,-0.00082375,0.00029775,0.00069818,0.0
 0023671,-0.00008821,0.00014307,-0.00042962,-0.00014864,0.00015751,0.00
 002293,-0.00001012,0.00001490,-0.00002881,0.00013630,0.00014124,0.0000
 1721,0.00082641,-0.00070764,0.00075165,-0.00001069,0.00001656,0.000049
 97,0.00005908,-0.00001792,0.00002426,-0.00004746,0.00001295,-0.0000087
 4,0.00082325,0.00116176,0.00055365,0.13226549,0.23801824,-0.00233707,-
 0.00173956,0.00097939,-0.00164443,0.00387926,-0.00400965,-0.01630023,-
 0.02168446,-0.00067664,0.00062817,-0.00008438,0.00085112,-0.00013923,0
 .00017067,-0.00004745,0.00018827,0.00028994,0.00020469,0.01329241,0.01
 524605,-0.05149201,-0.00160849,-0.00326260,-0.00064653,0.00032770,-0.0
 0034135,0.00031115,0.00030278,0.00013955,0.00034386,0.00090765,-0.0003
 5218,0.00138758,0.00021378,-0.00025571,-0.00003287,-0.00004403,0.00001
 867,-0.00019428,0.00019643,0.00002543,0.00002801,-0.00022245,0.0006399
 4,0.00006465,-0.00008814,0.00006322,-0.00008621,-0.00009779,-0.0001030
 2,-0.00012340,-0.00007453,-0.00006685,0.00004088,0.01754414,0.02502367
 ,-0.00173187,-0.01044648,-0.01738424,0.05360785,-0.00044712,0.00009760
 ,0.00003936,0.00115143,-0.00007125,0.00032758,-0.00085529,0.00338606,0
 .00177292,-0.00048104,-0.00062155,-0.00099452,-0.00013355,-0.00004652,
 0.00005932,0.00003267,-0.00003695,-0.00013404,-0.01289646,0.00057414,-
 0.01329586,-0.16973835,0.00201216,-0.12752044,-0.01331935,0.00014794,-
 0.01387008,-0.00125600,-0.00365823,0.00155957,0.00022663,-0.00000346,-
 0.00015117,-0.00025072,0.00037076,0.00000247,0.00001046,-0.00000335,-0
 .00001347,0.00001751,0.00007265,-0.00001617,0.00005406,0.00000595,0.00
 002072,0.00005121,0.00001860,0.00005687,0.00000176,-0.00002173,-0.0000
 1806,-0.00001237,0.00003474,0.00004526,0.00019012,-0.00061301,0.000283
 70,0.00083131,0.00001085,0.00020247,0.18399174,-0.00000161,0.00091777,
 0.00000594,-0.00001321,-0.00231284,0.00005402,0.00288252,-0.00476750,-
 0.00197222,0.00120869,0.00086326,0.00130070,0.00010849,0.00014697,-0.0
 0003641,-0.00005743,0.00000262,0.00018253,0.01984246,-0.00069934,0.022
 09840,0.00206395,-0.04775641,0.00228966,-0.01952866,0.00052329,-0.0219
 9711,-0.00327927,-0.00466802,0.00174330,-0.00043561,-0.00001231,-0.000
 29008,0.00041803,-0.00060746,0.00006834,-0.00001791,0.00000212,0.00000
 681,-0.00001785,-0.00005900,0.00000200,-0.00006200,-0.00001744,-0.0000
 2751,-0.00003677,0.00000151,-0.00006356,0.00001166,0.00000747,-0.00004
 159,0.00002652,-0.00003298,-0.00006702,-0.00062388,0.00111052,-0.00034
 915,-0.00078699,0.00087882,0.00034719,-0.00217008,0.05473637,-0.000038
 78,-0.00000244,-0.00010331,0.00021248,-0.00001725,0.00006374,0.0005270
 6,0.00009788,0.00077138,0.00003678,-0.00034188,0.00026492,-0.00002724,
 -0.00000143,-0.00001028,-0.00007945,0.00011838,-0.00003470,0.00352174,
 -0.00016706,0.00241589,-0.12845162,0.00221319,-0.18840692,0.00317338,0
 .00009599,0.00198783,0.00048115,-0.00018359,0.00106427,0.00009933,-0.0
 0009689,0.00051119,0.00000350,0.00002130,0.00000269,0.00000665,-0.0000
 1215,0.00000653,-0.00000850,0.00002506,-0.00000110,0.00000802,-0.00000
 962,0.00000885,0.00000368,-0.00002024,-0.00001046,0.00001314,-0.000006
 21,-0.00000184,-0.00003126,0.00002473,0.00002904,-0.00012427,0.0004218
 5,0.00076507,-0.00009505,0.00054566,0.00001361,0.14064369,-0.00238576,
 0.20052936,0.00020451,0.00000293,0.00007514,-0.00044084,-0.00004749,-0
 .00003602,0.00063617,-0.00066637,0.00150686,0.00014114,0.00015119,-0.0
 0018114,0.00002922,0.00003724,0.00005165,0.00004672,0.00006123,0.00012
 160,-0.00990183,0.00074207,0.01649439,-0.11019433,-0.00044333,0.103589
 48,-0.01008308,-0.00075825,0.01727380,0.00063204,0.00075995,0.00112801
 ,-0.00015640,0.00023331,-0.00088463,-0.00000019,-0.00000771,-0.0000330
 7,0.00000526,0.00002419,-0.00005771,-0.00000034,-0.00002231,-0.0000208
 9,-0.00003578,-0.00003109,-0.00000317,-0.00005281,-0.00010894,-0.00012
 807,0.00004732,0.00001088,0.00000136,-0.00004280,-0.00001086,-0.000114
 18,-0.00133797,0.00324766,0.00016115,0.00076864,-0.00016543,-0.0005380
 5,0.01233040,0.00004255,-0.01971042,0.11801913,-0.00004569,0.00021179,
 -0.00000011,0.00003298,-0.00056299,-0.00001539,-0.00108651,0.00110566,
 -0.00105662,-0.00019189,-0.00011731,-0.00004028,-0.00001742,-0.0000135
 5,-0.00003082,-0.00003901,-0.00022586,-0.00013856,0.01524258,-0.001236
 94,-0.02642012,-0.00045742,-0.04825599,0.00055439,-0.01495176,-0.00147
 201,0.02655668,0.00104684,0.00106555,0.00056106,-0.00003534,0.00010650
 ,0.00079820,-0.00001168,0.00000969,0.00005249,0.00000577,-0.00001370,0
 .00006235,-0.00001039,0.00000240,0.00001673,0.00003391,0.00000880,-0.0
 0002352,0.00008819,0.00016062,0.00017441,-0.00005531,-0.00000829,-0.00
 000660,0.00009578,-0.00000100,0.00012747,0.00387120,-0.00455803,-0.000
 06211,-0.00080627,0.00109363,-0.00001142,-0.00018676,-0.00040535,0.000
 30557,0.00037398,0.05652374,0.00012173,-0.00002899,-0.00014287,-0.0002
 0574,0.00002679,0.00021091,-0.00052126,0.00038409,0.00068188,0.0000224
 8,-0.00000536,0.00027304,0.00002334,-0.00002499,-0.00005883,-0.0001541
 3,0.00005140,-0.00009276,0.00103570,-0.00074204,-0.00301139,0.10433531
 ,0.00058021,-0.24065024,0.00065593,0.00069046,-0.00250363,-0.00035990,
 -0.00031135,0.00081339,0.00041149,-0.00003782,0.00065361,0.00003816,-0
 .00004911,0.00002225,0.00000361,-0.00000152,0.00005483,-0.00000483,-0.
 00000990,0.00002127,0.00001857,0.00002055,-0.00001651,0.00004146,0.000
 05131,0.00002710,-0.00002081,-0.00000543,0.00000309,-0.00000186,0.,0.0
 0006419,-0.00008007,-0.00075431,0.00144963,-0.00009046,-0.00053113,0.0
 0023857,0.01164757,0.00006997,-0.02124332,-0.11720856,-0.00061326,0.26
 063248,-0.00199134,0.00186102,0.00082615,-0.00076482,-0.00486446,-0.00
 401137,-0.00013419,0.00005796,0.00053975,0.00019604,0.00004677,0.00013
 602,-0.00006499,-0.00001769,-0.00000931,-0.00006023,-0.00004284,-0.000
 00679,-0.00254897,-0.00267966,0.00039848,0.01288395,-0.01785641,-0.002
 53887,-0.12942335,0.11983337,0.01805950,-0.01434710,0.02091542,0.00007
 056,-0.00003253,-0.00002986,0.00001819,0.00003685,-0.00010783,0.000053
 26,0.00000883,0.00000047,-0.00000218,0.00002433,0.00004215,0.00000655,
 0.00004342,0.00006420,0.00002237,0.00001992,0.00004323,0.00004546,0.00
 005120,-0.00002318,-0.00009269,0.00000588,0.00004118,0.00001469,-0.000
 04514,0.00000111,-0.00017225,0.00076435,-0.00117649,-0.00001286,0.0007
 7507,0.00085064,-0.00012495,0.00081279,0.00082580,-0.00006828,0.140151
 36,0.00011831,0.00006345,0.00013041,-0.00054369,0.00071162,-0.00019370
 ,-0.00038582,0.00068451,-0.00021888,0.00005032,0.00011826,0.00005366,-
 0.00001759,-0.00004434,-0.00007828,-0.00002530,-0.00006080,-0.00001559
 ,-0.00565987,-0.00344073,0.00067306,0.01603283,-0.02179366,-0.00340008
 ,0.11877027,-0.22463206,-0.02344142,-0.00048246,0.00154157,0.00007941,
 0.00002093,-0.00002920,0.00005699,0.00006619,-0.00006159,0.00002034,-0
 .00000341,0.00001309,0.00001364,0.00004444,-0.00001427,0.00002495,0.00
 003186,0.00008878,0.00003054,-0.00000154,0.00003837,0.00004342,-0.0000
 0440,0.00000421,0.00000028,0.00003550,-0.00002477,0.00000713,-0.000114
 53,0.00037669,-0.00007256,0.00111181,-0.00163965,-0.00009157,-0.000060
 63,0.00080228,-0.00050311,0.00016760,0.00106002,0.00056919,-0.12846580
 ,0.24397508,-0.00238449,0.00184949,0.00092490,-0.00177820,-0.00362595,
 -0.00382885,0.00016862,-0.00009762,0.00031212,0.00012043,0.00004693,0.
 00003169,-0.00004671,0.00000536,0.00001897,0.00000548,-0.00000460,0.00
 000566,0.00023534,0.00020266,0.00036639,-0.00099977,0.00287774,-0.0007
 2043,0.01826287,-0.02447492,-0.05325103,-0.01530616,0.02245283,-0.0000
 1146,-0.00002569,-0.00001346,0.00001348,0.00001435,-0.00006295,0.00004
 401,-0.00000158,-0.00000342,-0.00000260,0.00001169,0.00002477,-0.00000
 257,0.00002429,0.00001718,0.00001322,0.00001868,0.00004412,0.00001745,
 -0.00001618,-0.00001348,-0.00007111,0.00000085,0.00000468,0.00002296,-
 0.00027761,0.00039654,0.00034312,0.00001099,0.00005480,0.00055439,0.00
 017411,-0.00030647,-0.00003561,-0.00052469,0.00005261,0.00028181,-0.01
 598232,0.02611730,0.05591138,-0.00018471,-0.00022930,0.00032862,0.0017
 4743,-0.00086661,-0.00048189,0.00001144,0.00004195,-0.00025390,0.00007
 282,0.00003620,0.00003025,-0.00000754,0.00001107,0.00000111,0.00000690
 ,0.00000144,0.00000224,0.00038741,0.00129202,-0.00032738,-0.01043244,-
 0.00167397,0.01904367,-0.09523721,-0.00188589,0.09807426,0.00953518,0.
 00112642,-0.02418656,-0.00013681,0.00000031,-0.00001080,0.00002808,-0.
 00003139,0.00000439,-0.00000746,-0.00000062,-0.00000667,0.00001029,-0.
 00000296,0.00000130,0.00000005,0.00001413,0.00000745,-0.00000478,0.000
 00525,0.00001350,-0.00000067,0.00000781,0.00000418,0.00000633,-0.00000
 963,0.00000396,0.00066312,-0.00039578,-0.00031458,-0.00003629,0.000115
 73,-0.00026877,0.00026247,0.00063244,-0.00013549,-0.00155224,-0.004088
 46,-0.00015721,-0.00810619,-0.00096709,0.01683600,0.10508255,-0.000134
 91,0.00015008,-0.00016005,-0.00032304,-0.00025118,0.00073833,0.0002338
 9,-0.00013818,-0.00013782,0.00004143,0.00000772,0.00003028,-0.00000795
 ,0.00001083,0.00001031,-0.00000349,-0.00000127,0.00002786,-0.00056628,
 0.00176776,0.00129423,-0.01297586,-0.00246603,0.02601402,-0.00139148,-
 0.05256759,0.00853637,-0.00029116,-0.00015302,0.00024508,-0.00006320,0
 .00010100,-0.00019819,0.00000918,-0.00002241,-0.00000091,0.00000126,0.
 00000090,-0.00001678,-0.00000188,0.00000507,-0.00000408,-0.00000585,-0
 .00000665,0.00000397,-0.00000923,-0.00002496,-0.00001137,0.00003704,-0
 .00000129,-0.00000731,-0.00000726,0.00001931,-0.00002236,0.00040709,-0
 .00039416,-0.00066820,0.00003660,0.00034145,-0.00038260,0.00064949,0.0
 0112708,-0.00043551,-0.00334131,-0.00450261,0.00057842,0.01148957,0.00
 173353,-0.02547552,0.00633190,0.05407962,-0.00129214,0.00041942,0.0003
 5451,0.00203759,-0.00171272,-0.00053259,-0.00006766,0.00038244,-0.0002
 6123,0.00010487,0.00000193,-0.00005230,-0.00005477,0.00002974,0.000016
 16,0.00002523,0.00005026,-0.00004455,-0.00031258,-0.00040659,-0.000017
 47,0.00114705,0.00015522,-0.00130111,0.09781642,0.00859237,-0.25539087
 ,0.00739581,0.00143941,-0.02138960,-0.00000905,-0.00004671,0.00015712,
 0.00000196,-0.00001352,0.00002154,-0.00001037,-0.00001418,0.00001817,0
 .00000483,0.00003382,-0.00000638,0.00001495,0.00000447,0.00000309,0.00
 001680,0.00003229,0.00001886,-0.00004783,-0.00001258,-0.00001981,-0.00
 001574,-0.00000892,0.00003674,-0.00029548,0.00066570,0.00030176,-0.000
 16917,0.00008429,0.00033442,0.00030563,0.00037832,0.00079963,0.0000881
 1,-0.00001835,0.00153753,0.00184952,-0.00060720,-0.00297239,-0.1045701
 8,-0.00953527,0.27982735,0.00187176,-0.00101843,0.00007522,0.01120071,
 0.01527171,-0.00245895,-0.00208792,0.00244849,0.00034001,0.00071947,0.
 00071157,0.00001516,-0.00021959,0.00018830,0.00003387,0.00000760,-0.00
 002667,-0.00008121,-0.00021642,0.00030327,-0.00000505,-0.00244366,0.00
 191927,-0.00436967,-0.01316572,-0.01706014,0.00411955,-0.15951152,-0.1
 3301230,0.02077439,-0.00008836,-0.00005206,-0.00004010,0.00008245,-0.0
 0005433,-0.00000080,-0.00000027,-0.00000757,-0.00001230,0.00005883,0.0
 0008901,-0.00003035,0.00002313,0.00003175,0.00001852,0.00000444,0.0000
 2197,0.00003010,-0.00000216,-0.00001994,0.00001482,-0.00000478,0.00000
 054,0.00002392,0.00006848,-0.00005531,0.00000787,0.00008851,-0.0001018
 1,0.00003993,-0.00071621,-0.00146866,-0.00009391,0.00031692,0.00038899
 ,0.00002683,0.00014722,0.00034152,0.00056312,0.00122343,0.00022127,0.0
 0001934,0.17097127,-0.00010730,0.00608435,-0.00068050,-0.02262728,-0.0
 2690715,0.00429121,0.00522312,-0.00318459,-0.00074898,-0.00169455,-0.0
 0068984,-0.00005232,0.00054148,-0.00035484,-0.00008937,0.00000601,-0.0
 0012639,0.00019472,0.00040172,0.00020774,0.00038256,0.00062822,0.00083
 214,0.00032840,0.00211046,0.00288316,-0.00122395,-0.12829300,-0.203083
 11,0.02455341,0.00015037,0.00052639,0.00015949,0.00003927,0.00001531,0
 .00007116,-0.00000417,0.00003377,0.00000898,-0.00009327,-0.00022546,0.
 00006752,-0.00003500,0.00000790,-0.00002381,-0.00000227,0.00001089,-0.
 00003266,0.00001183,0.00002880,-0.00007039,0.00006359,-0.00004111,-0.0
 0008055,-0.00005282,-0.00000697,-0.00011569,-0.00011640,0.00002392,-0.
 00008792,0.00013734,0.00022373,0.00017869,-0.00002386,-0.00006748,0.00
 005776,-0.00025981,0.00033427,-0.00043866,-0.00010206,0.00016284,-0.00
 038934,0.14104465,0.21984220,-0.00075619,0.00033319,-0.00122242,0.0002
 5718,-0.00296683,-0.00046576,0.00032228,0.00038581,0.00102414,0.000052
 96,-0.00003161,0.00041950,-0.00001027,-0.00004876,-0.00002840,-0.00007
 103,0.00005031,-0.00004064,-0.00011944,0.00059483,-0.00008267,-0.00305
 166,0.00136682,-0.00365529,-0.01481334,-0.01987878,0.00330891,0.020370
 57,0.02500692,-0.05431481,-0.00043721,-0.00027262,0.00031066,0.0000283
 9,-0.00005375,0.00000186,0.00001094,-0.00000118,0.00000021,0.00000170,
 -0.00000230,0.00000203,0.00001021,0.00001599,0.00001019,0.00001013,0.0
 0001245,0.00001665,0.00001208,-0.00000629,-0.00000569,-0.00000891,0.00
 001356,0.00003413,0.00004053,-0.00002135,-0.00001637,0.00013056,-0.000
 04792,0.00006334,-0.00098381,-0.00121930,0.00019851,-0.00029021,-0.000
 09472,0.00023879,0.00058019,0.00038156,0.00065426,0.00089165,-0.000386
 01,0.00086348,-0.02031849,-0.02641140,0.05547475,-0.00119348,0.0038293
 4,-0.00321885,-0.01078064,-0.00010157,0.01710253,0.00005125,-0.0002809
 9,-0.00078646,-0.00003852,0.00009731,-0.00039477,-0.00002649,0.0000296
 7,0.00003479,0.00002469,-0.00011592,0.00001881,-0.00016589,-0.00032957
 ,-0.00008515,0.00159574,0.00045356,-0.00017570,0.00939523,-0.00267049,
 -0.02526777,-0.09114148,0.00703452,0.10345922,0.00068312,0.00019504,-0
 .00036640,-0.00001226,-0.00005345,0.00007088,0.00001338,0.00000689,-0.
 00001193,-0.00000094,0.00002268,-0.00000054,0.00000934,0.00000561,-0.0
 0001165,0.00001065,0.00000942,-0.00000243,0.00001622,-0.00000529,-0.00
 003873,0.00001179,0.00000465,-0.00003442,-0.00011761,0.00006459,0.0000
 0247,-0.00001918,-0.00001926,-0.00002118,0.00017962,0.00041196,0.00019
 033,-0.00019164,-0.00002211,0.00049091,0.00159763,-0.00005946,0.000896
 58,-0.00333115,-0.00033582,-0.00398313,-0.00832763,0.00305373,0.018141
 17,0.10175825,0.00264583,-0.00286868,0.00352210,0.01227201,0.00132008,
 -0.02894549,-0.00126810,-0.00024251,0.00315870,0.00014153,0.00006373,0
 .00047237,0.00003620,-0.00002709,-0.00001845,-0.00004228,0.00009930,-0
 .00002664,0.00053959,0.00023572,0.00021385,0.00046247,0.00002783,-0.00
 103469,-0.00112292,0.00045503,0.00222070,0.00835061,-0.05331548,-0.024
 65369,-0.00046944,-0.00172651,0.00002483,-0.00002689,0.00009208,-0.000
 08380,-0.00000066,0.00000184,0.00000414,-0.00000482,-0.00002089,-0.000
 01306,-0.00001233,-0.00001918,0.00000347,-0.00001024,-0.00002703,-0.00
 001830,-0.00001850,0.00001046,0.00005975,-0.00003054,0.00000037,0.0000
 2668,0.00000610,0.00009360,0.00004725,0.00004688,-0.00000785,0.0000042
 7,-0.00002475,-0.00000518,0.00013486,-0.00022784,0.00009270,0.00003504
 ,-0.00054884,0.00019534,0.00037005,0.00063710,0.00102215,0.00049572,-0
 .01010512,0.00346952,0.02328138,-0.01122504,0.05108066,-0.00055504,-0.
 00071339,-0.00066370,0.00098225,0.00016428,0.00025419,0.00089484,0.000
 10352,-0.00072387,-0.00012940,-0.00019596,0.00026298,0.00001505,-0.000
 04299,-0.00002903,-0.00003917,0.00011331,-0.00004439,-0.00047463,-0.00
 002693,-0.00010425,0.00145708,0.00045457,0.00075756,0.00877595,-0.0016
 9685,-0.02498753,0.09919504,-0.01917498,-0.24554551,-0.00038088,0.0001
 3768,0.00065579,0.00001311,0.00003762,-0.00002548,-0.00000458,-0.00001
 473,0.00002487,-0.00000666,-0.00000535,0.00001262,0.00000277,0.0000005
 0,0.00000484,0.00000242,0.00000552,0.00000817,-0.00002080,0.00000239,0
 .00001964,-0.00001326,0.00000275,0.00004075,0.00000342,0.00017176,0.00
 014961,0.00001515,-0.00005587,0.00001741,-0.00014361,0.00020901,0.0004
 1500,-0.00076073,-0.00073007,0.00051518,0.00040117,0.00042051,0.001380
 24,-0.00452916,-0.00003688,-0.00230207,0.00130818,0.00015164,-0.002789
 35,-0.10600855,0.02071893,0.27269632\\-0.00005636,0.00001662,0.0000333
 9,0.00008589,-0.00008752,-0.00013169,-0.00004667,-0.00001791,0.0000391
 2,0.00007261,-0.00004216,0.00002675,0.00002349,0.00008542,-0.00005696,
 -0.00010901,0.00003937,0.00002750,-0.00000909,0.00006939,-0.00006042,0
 .00010070,-0.00004235,0.00012525,0.00002876,-0.00002054,-0.00007939,-0
 .00006733,0.00000900,-0.00002137,-0.00005019,-0.00002496,0.00005982,0.
 00002322,-0.00000995,0.00001754,-0.00000138,0.00006284,-0.00003773,0.0
 0002324,0.00001562,0.00001118,-0.00000130,-0.00001127,-0.00001652,-0.0
 0004027,-0.00002619,-0.00007349,-0.00004333,0.00007444,0.00004412,0.00
 002277,-0.00006597,0.00004566,0.00001804,-0.00000978,-0.00004843,0.000
 01956,0.00001337,0.00002593,0.00003248,0.00000301,0.00000564,0.0000001
 0,-0.00001202,0.00001706,0.00003631,-0.00002919,0.00004065,0.00001210,
 0.00001329,-0.00000380,-0.00003638,-0.00002175,-0.00001985,-0.00003794
 ,0.00001917,0.00003004\\\@


 THE BEST WAY TO CONVINCE A FOOL THAT HE IS WRONG 
 IS TO LET HIM HAVE HIS OWN WAY.

                                         JOSH BILLINGS
 Job cpu time:       0 days  0 hours  2 minutes  6.5 seconds.
 Elapsed time:       0 days  0 hours  2 minutes  7.3 seconds.
 File lengths (MBytes):  RWF=    106 Int=      0 D2E=      0 Chk=      5 Scr=      1
 Normal termination of Gaussian 16 at Wed Feb 21 19:36:16 2024.
