 Entering Gaussian System, Link 0=g16
 Input=/Volumes/SSD-PMU3/b3lyp_6-31gd_freq/SDJUYPUXVFDUFF-QMMMGPOBSA-N_calculating/gaussianinput1.gjf
 Output=/Volumes/SSD-PMU3/b3lyp_6-31gd_freq/SDJUYPUXVFDUFF-QMMMGPOBSA-N_calculating/gaussianinput1.log
 Initial command:
 /Applications/g16/l1.exe "/Users/macmini_m1_2022/PycharmProjects/sphere_model/sphere_model_lib/Gau-54532.inp" -scrdir="/Users/macmini_m1_2022/PycharmProjects/sphere_model/sphere_model_lib/"
 Entering Link 1 = /Applications/g16/l1.exe PID=     54533.
  
 Copyright (c) 1988,1990,1992,1993,1995,1998,2003,2009,2016,
            Gaussian, Inc.  All Rights Reserved.
  
 This is part of the Gaussian(R) 16 program.  It is based on
 the Gaussian(R) 09 system (copyright 2009, Gaussian, Inc.),
 the Gaussian(R) 03 system (copyright 2003, Gaussian, Inc.),
 the Gaussian(R) 98 system (copyright 1998, Gaussian, Inc.),
 the Gaussian(R) 94 system (copyright 1995, Gaussian, Inc.),
 the Gaussian 92(TM) system (copyright 1992, Gaussian, Inc.),
 the Gaussian 90(TM) system (copyright 1990, Gaussian, Inc.),
 the Gaussian 88(TM) system (copyright 1988, Gaussian, Inc.),
 the Gaussian 86(TM) system (copyright 1986, Carnegie Mellon
 University), and the Gaussian 82(TM) system (copyright 1983,
 Carnegie Mellon University). Gaussian is a federally registered
 trademark of Gaussian, Inc.
  
 This software contains proprietary and confidential information,
 including trade secrets, belonging to Gaussian, Inc.
  
 This software is provided under written license and may be
 used, copied, transmitted, or stored only in accord with that
 written license.
  
 The following legend is applicable only to US Government
 contracts under FAR:
  
                    RESTRICTED RIGHTS LEGEND
  
 Use, reproduction and disclosure by the US Government is
 subject to restrictions as set forth in subparagraphs (a)
 and (c) of the Commercial Computer Software - Restricted
 Rights clause in FAR 52.227-19.
  
 Gaussian, Inc.
 340 Quinnipiac St., Bldg. 40, Wallingford CT 06492
  
  
 ---------------------------------------------------------------
 Warning -- This program may not be used in any manner that
 competes with the business of Gaussian, Inc. or will provide
 assistance to any competitor of Gaussian, Inc.  The licensee
 of this program is prohibited from giving any competitor of
 Gaussian, Inc. access to this program.  By using this program,
 the user acknowledges that Gaussian, Inc. is engaged in the
 business of creating and licensing software in the field of
 computational chemistry and represents and warrants to the
 licensee that it is not a competitor of Gaussian, Inc. and that
 it will not use this program in any manner prohibited above.
 ---------------------------------------------------------------
  

 Cite this work as:
 Gaussian 16, Revision A.03,
 M. J. Frisch, G. W. Trucks, H. B. Schlegel, G. E. Scuseria, 
 M. A. Robb, J. R. Cheeseman, G. Scalmani, V. Barone, 
 G. A. Petersson, H. Nakatsuji, X. Li, M. Caricato, A. V. Marenich, 
 J. Bloino, B. G. Janesko, R. Gomperts, B. Mennucci, H. P. Hratchian, 
 J. V. Ortiz, A. F. Izmaylov, J. L. Sonnenberg, D. Williams-Young, 
 F. Ding, F. Lipparini, F. Egidi, J. Goings, B. Peng, A. Petrone, 
 T. Henderson, D. Ranasinghe, V. G. Zakrzewski, J. Gao, N. Rega, 
 G. Zheng, W. Liang, M. Hada, M. Ehara, K. Toyota, R. Fukuda, 
 J. Hasegawa, M. Ishida, T. Nakajima, Y. Honda, O. Kitao, H. Nakai, 
 T. Vreven, K. Throssell, J. A. Montgomery, Jr., J. E. Peralta, 
 F. Ogliaro, M. J. Bearpark, J. J. Heyd, E. N. Brothers, K. N. Kudin, 
 V. N. Staroverov, T. A. Keith, R. Kobayashi, J. Normand, 
 K. Raghavachari, A. P. Rendell, J. C. Burant, S. S. Iyengar, 
 J. Tomasi, M. Cossi, J. M. Millam, M. Klene, C. Adamo, R. Cammi, 
 J. W. Ochterski, R. L. Martin, K. Morokuma, O. Farkas, 
 J. B. Foresman, and D. J. Fox, Gaussian, Inc., Wallingford CT, 2016.
 
 ******************************************
 Gaussian 16:  EM64M-G16RevA.03 25-Dec-2016
                21-Feb-2024 
 ******************************************
 %nprocshared=8
 Will use up to    8 processors via shared memory.
 %mem=4GB
 %chk= 1.chk
 ---------------------
 # freq b3lyp/6-31g(d)
 ---------------------
 1/10=4,30=1,38=1/1,3;
 2/12=2,17=6,18=5,40=1/2;
 3/5=1,6=6,7=1,11=2,25=1,30=1,71=2,74=-5,140=1/1,2,3;
 4//1;
 5/5=2,38=5,98=1/2;
 8/6=4,10=90,11=11/1;
 11/6=1,8=1,9=11,15=111,16=1/1,2,10;
 10/6=1/2;
 6/7=2,8=2,9=2,10=2,28=1/1;
 7/8=1,10=1,25=1/1,2,3,16;
 1/10=4,30=1/3;
 99//99;
 ---------
 good luck
 ---------
 Symbolic Z-matrix:
 Charge =  0 Multiplicity = 1
 O                     1.21845   0.        0. 
 C                     0.        0.        0. 
 C                    -0.85852  -1.27018  -0.00201 
 C                    -0.08925  -2.61397   0.04309 
 C                     0.69082  -2.78398   1.35747 
 C                     0.82016  -2.86357  -1.17268 
 C                    -1.88266  -1.18562  -1.16607 
 C                    -2.72388   0.09694  -1.11421 
 C                    -1.83202   1.34467  -1.13816 
 C                    -0.78978   1.30688  -0.00201 
 H                    -1.45344  -1.20867   0.92607 
 H                    -0.87152  -3.38924   0.02909 
 H                     0.03785  -2.64757   2.22916 
 H                     1.50784  -2.0606    1.42505 
 H                     1.12044  -3.7908    1.42087 
 H                     0.266    -2.81903  -2.11723 
 H                     1.26742  -3.86251  -1.10615 
 H                     1.62887  -2.12962  -1.21294 
 H                    -1.35152  -1.22775  -2.12628 
 H                    -2.53058  -2.07067  -1.12915 
 H                    -3.33369   0.09907  -0.19871 
 H                    -3.42566   0.11872  -1.95733 
 H                    -2.43523   2.257    -1.0575 
 H                    -1.30856   1.39914  -2.10281 
 H                    -0.07842   2.13513  -0.06978 
 H                    -1.31047   1.38909   0.96419 
 

 GradGradGradGradGradGradGradGradGradGradGradGradGradGradGradGradGradGrad
 Berny optimization.
 Initialization pass.
 Trust Radius=3.00D-01 FncErr=1.00D-07 GrdErr=1.00D-07 EigMax=2.50D+02 EigMin=1.00D-04
 Number of steps in this run=      2 maximum allowed number of steps=      2.
 GradGradGradGradGradGradGradGradGradGradGradGradGradGradGradGradGradGrad

                          Input orientation:                          
 ---------------------------------------------------------------------
 Center     Atomic      Atomic             Coordinates (Angstroms)
 Number     Number       Type             X           Y           Z
 ---------------------------------------------------------------------
      1          8           0        1.218449    0.000000    0.000000
      2          6           0        0.000000    0.000000    0.000000
      3          6           0       -0.858518   -1.270179   -0.002011
      4          6           0       -0.089250   -2.613971    0.043086
      5          6           0        0.690824   -2.783984    1.357474
      6          6           0        0.820156   -2.863568   -1.172681
      7          6           0       -1.882655   -1.185618   -1.166072
      8          6           0       -2.723882    0.096940   -1.114215
      9          6           0       -1.832020    1.344674   -1.138163
     10          6           0       -0.789779    1.306880   -0.002011
     11          1           0       -1.453443   -1.208669    0.926067
     12          1           0       -0.871522   -3.389240    0.029092
     13          1           0        0.037853   -2.647574    2.229158
     14          1           0        1.507843   -2.060601    1.425045
     15          1           0        1.120438   -3.790798    1.420869
     16          1           0        0.265997   -2.819030   -2.117230
     17          1           0        1.267419   -3.862513   -1.106146
     18          1           0        1.628874   -2.129621   -1.212940
     19          1           0       -1.351520   -1.227746   -2.126278
     20          1           0       -2.530577   -2.070667   -1.129147
     21          1           0       -3.333694    0.099071   -0.198707
     22          1           0       -3.425658    0.118723   -1.957327
     23          1           0       -2.435230    2.257000   -1.057499
     24          1           0       -1.308562    1.399140   -2.102805
     25          1           0       -0.078422    2.135131   -0.069775
     26          1           0       -1.310473    1.389087    0.964192
 ---------------------------------------------------------------------
                    Distance matrix (angstroms):
                    1          2          3          4          5
     1  O    0.000000
     2  C    1.218449   0.000000
     3  C    2.434574   1.533105   0.000000
     4  C    2.923145   2.615849   1.549059   0.000000
     5  C    3.141925   3.173411   2.557394   1.537867   0.000000
     6  C    3.119910   3.201228   2.593705   1.538638   2.534708
     7  C    3.518844   2.511932   1.552754   2.592018   3.942823
     8  C    4.097908   2.944555   2.566241   3.953438   5.105799
     9  C    3.522630   2.541626   3.012641   4.483689   5.444149
    10  C    2.396022   1.526987   2.577976   3.983196   4.558021
    11  H    3.075303   2.104989   1.104105   2.148384   2.695480
    12  H    3.981931   3.499621   2.119329   1.101448   2.138190
    13  H    3.656857   3.461246   2.771067   2.190022   1.097639
    14  H    2.522019   2.924110   2.874182   2.183285   1.093329
    15  H    4.049521   4.200524   3.506333   2.178658   1.096477
    16  H    3.651953   3.535583   2.852652   2.198912   3.500753
    17  H    4.018080   4.212946   3.529719   2.172589   2.750475
    18  H    2.484946   2.942744   2.896914   2.182692   2.813389
    19  H    3.554316   2.802682   2.181138   2.867244   4.327768
    20  H    4.429202   3.459256   2.169562   2.762134   4.131529
    21  H    4.557555   3.341080   2.835495   4.236210   5.189456
    22  H    5.041126   3.947196   3.513192   4.754039   6.029846
    23  H    4.422864   3.484637   4.005130   5.517361   6.404360
    24  H    3.572837   2.844594   3.426535   4.711330   5.785292
    25  H    2.499105   2.137710   3.494178   4.750455   5.179428
    26  H    3.042150   2.139292   2.865224   4.285358   4.644823
                    6          7          8          9         10
     6  C    0.000000
     7  C    3.181312   0.000000
     8  C    4.618250   1.534701   0.000000
     9  C    4.974387   2.530952   1.533894   0.000000
    10  C    4.621147   2.960061   2.538052   1.542250   0.000000
    11  H    3.508944   2.135837   2.735211   3.305136   2.762203
    12  H    2.140646   2.703101   4.109968   4.969405   4.696934
    13  H    3.497308   4.165724   5.132025   5.547371   4.615279
    14  H    2.804612   4.356026   5.386123   5.414852   4.319199
    15  H    2.770636   4.743184   6.026604   6.452808   5.626708
    16  H    1.096015   2.861720   4.295148   4.764103   4.755202
    17  H    1.096523   4.134286   5.622083   6.059896   5.672195
    18  H    1.092851   3.636506   4.890174   4.904498   4.373302
    19  H    2.881222   1.098123   2.159269   2.797248   3.354459
    20  H    3.443545   1.097487   2.176261   3.486060   3.963412
    21  H    5.194259   2.166041   1.100014   2.165440   2.822941
    22  H    5.247539   2.169850   1.097179   2.171098   3.490392
    23  H    6.068857   3.488373   2.179999   1.096680   2.173544
    24  H    4.854611   2.808563   2.162444   1.098867   2.165868
    25  H    5.197195   3.935035   3.499076   2.200314   1.093901
    26  H    5.214488   3.390357   2.826154   2.166536   1.100649
                   11         12         13         14         15
    11  H    0.000000
    12  H    2.428598   0.000000
    13  H    2.447950   2.493456   0.000000
    14  H    3.121535   3.061918   1.775389   0.000000
    15  H    3.679277   2.462965   1.769826   1.773043   0.000000
    16  H    3.848557   2.495153   4.355747   3.829505   3.767300
    17  H    4.309973   2.467351   3.756616   3.116347   2.532302
    18  H    3.863183   3.062885   3.827226   2.641662   3.155149
    19  H    3.054106   3.089996   4.787075   4.634814   5.026138
    20  H    2.475311   2.415081   4.267068   4.778372   4.774028
    21  H    2.551596   4.275804   4.980554   5.544478   6.131346
    22  H    3.737053   4.772345   6.097128   6.366265   6.882118
    23  H    4.112092   5.958682   6.401023   6.352364   7.440493
    24  H    3.999465   5.259712   6.079032   5.687501   6.726944
    25  H    3.750118   5.581887   5.307813   4.728096   6.227031
    26  H    2.601967   4.888711   4.439905   4.478352   5.740130
                   16         17         18         19         20
    16  H    0.000000
    17  H    1.764651   0.000000
    18  H    1.774953   1.773406   0.000000
    19  H    2.269059   3.852468   3.245044   0.000000
    20  H    3.058951   4.199526   4.160713   1.759250   0.000000
    21  H    5.015358   6.139042   5.533789   3.066755   2.493688
    22  H    4.720623   6.212867   5.581886   2.478623   2.506089
    23  H    5.846857   7.152651   5.981935   3.802653   4.329310
    24  H    4.502488   5.942558   4.676809   2.627342   3.805377
    25  H    5.371630   6.233545   4.733899   4.142333   4.982376
    26  H    5.448731   6.205734   5.075527   4.049754   4.223816
                   21         22         23         24         25
    21  H    0.000000
    22  H    1.761133   0.000000
    23  H    2.490265   2.522472   0.000000
    24  H    3.068701   2.478453   1.760105   0.000000
    25  H    3.841739   4.339671   2.558319   2.487597   0.000000
    26  H    2.666439   3.824017   2.470948   3.067014   1.773025
                   26
    26  H    0.000000
 Stoichiometry    C9H16O
 Framework group  C1[X(C9H16O)]
 Deg. of freedom    72
 Full point group                 C1      NOp   1
 Largest Abelian subgroup         C1      NOp   1
 Largest concise Abelian subgroup C1      NOp   1
                         Standard orientation:                         
 ---------------------------------------------------------------------
 Center     Atomic      Atomic             Coordinates (Angstroms)
 Number     Number       Type             X           Y           Z
 ---------------------------------------------------------------------
      1          8           0       -0.401726    1.833266    0.632663
      2          6           0        0.283287    1.013526    0.046658
      3          6           0       -0.239868   -0.333324   -0.465901
      4          6           0       -1.747661   -0.609511   -0.242595
      5          6           0       -2.632728    0.372265   -1.028603
      6          6           0       -2.168251   -0.666494    1.236345
      7          6           0        0.679049   -1.466969    0.064652
      8          6           0        2.155785   -1.234943   -0.282802
      9          6           0        2.648570    0.109705    0.266666
     10          6           0        1.763146    1.271935   -0.227078
     11          1           0       -0.076841   -0.301083   -1.557427
     12          1           0       -1.918749   -1.610769   -0.668506
     13          1           0       -2.364349    0.386747   -2.092828
     14          1           0       -2.534991    1.388330   -0.636902
     15          1           0       -3.686939    0.079219   -0.957722
     16          1           0       -1.597339   -1.414669    1.798076
     17          1           0       -3.226896   -0.941569    1.313600
     18          1           0       -2.031898    0.304451    1.719044
     19          1           0        0.574862   -1.544085    1.155098
     20          1           0        0.333377   -2.422564   -0.349867
     21          1           0        2.283121   -1.253993   -1.375255
     22          1           0        2.767595   -2.052994    0.117551
     23          1           0        3.691344    0.290156   -0.021028
     24          1           0        2.626277    0.083970    1.365006
     25          1           0        2.035473    2.222712    0.240341
     26          1           0        1.891793    1.382875   -1.314538
 ---------------------------------------------------------------------
 Rotational constants (GHZ):           2.1213688           0.9743670           0.8107465
 Standard basis: 6-31G(d) (6D, 7F)
 There are   182 symmetry adapted cartesian basis functions of A   symmetry.
 There are   182 symmetry adapted basis functions of A   symmetry.
   182 basis functions,   344 primitive gaussians,   182 cartesian basis functions
    39 alpha electrons       39 beta electrons
       nuclear repulsion energy       568.9442935701 Hartrees.
 NAtoms=   26 NActive=   26 NUniq=   26 SFac= 1.00D+00 NAtFMM=   60 NAOKFM=F Big=F
 Integral buffers will be    131072 words long.
 Raffenetti 2 integral format.
 Two-electron integral symmetry is turned on.
 One-electron integrals computed using PRISM.
 NBasis=   182 RedAO= T EigKep=  2.75D-03  NBF=   182
 NBsUse=   182 1.00D-06 EigRej= -1.00D+00 NBFU=   182
 ExpMin= 1.61D-01 ExpMax= 5.48D+03 ExpMxC= 8.25D+02 IAcc=3 IRadAn=         5 AccDes= 0.00D+00
 Harris functional with IExCor=  402 and IRadAn=       5 diagonalized for initial guess.
 HarFok:  IExCor=  402 AccDes= 0.00D+00 IRadAn=         5 IDoV= 1 UseB2=F ITyADJ=14
 ICtDFT=  3500011 ScaDFX=  1.000000  1.000000  1.000000  1.000000
 FoFCou: FMM=F IPFlag=           0 FMFlag=      100000 FMFlg1=           0
         NFxFlg=           0 DoJE=T BraDBF=F KetDBF=T FulRan=T
         wScrn=  0.000000 ICntrl=       500 IOpCl=  0 I1Cent=   200000004 NGrid=           0
         NMat0=    1 NMatS0=      1 NMatT0=    0 NMatD0=    1 NMtDS0=    0 NMtDT0=    0
 Petite list used in FoFCou.
 Requested convergence on RMS density matrix=1.00D-08 within 128 cycles.
 Requested convergence on MAX density matrix=1.00D-06.
 Requested convergence on             energy=1.00D-06.
 No special actions if energy rises.
 Integral accuracy reduced to 1.0D-05 until final iterations.
 Initial convergence to 1.0D-05 achieved.  Increase integral accuracy.
 SCF Done:  E(RB3LYP) =  -427.830751633     A.U. after   13 cycles
            NFock= 13  Conv=0.66D-08     -V/T= 2.0098
 DoSCS=F DFT=T ScalE2(SS,OS)=  1.000000  1.000000
 Range of M.O.s used for correlation:     1   182
 NBasis=   182 NAE=    39 NBE=    39 NFC=     0 NFV=     0
 NROrb=    182 NOA=    39 NOB=    39 NVA=   143 NVB=   143
 Symmetrizing basis deriv contribution to polar:
 IMax=3 JMax=2 DiffMx= 0.00D+00
 G2DrvN: will do    27 centers at a time, making    1 passes.
 Calling FoFCou, ICntrl=  3107 FMM=F I1Cent=   0 AccDes= 0.00D+00.
 End of G2Drv F.D. properties file   721 does not exist.
 End of G2Drv F.D. properties file   722 does not exist.
 End of G2Drv F.D. properties file   788 does not exist.
          IDoAtm=11111111111111111111111111
          Differentiating once with respect to electric field.
                with respect to dipole field.
          Differentiating once with respect to nuclear coordinates.
 Keep R1 ints in memory in canonical form, NReq=146744189.
          There are    81 degrees of freedom in the 1st order CPHF.  IDoFFX=6 NUNeed=     3.
     78 vectors produced by pass  0 Test12= 6.89D-15 1.23D-09 XBig12= 6.22D+01 1.98D+00.
 AX will form    78 AO Fock derivatives at one time.
     78 vectors produced by pass  1 Test12= 6.89D-15 1.23D-09 XBig12= 5.56D+00 6.05D-01.
     78 vectors produced by pass  2 Test12= 6.89D-15 1.23D-09 XBig12= 2.60D-02 2.44D-02.
     78 vectors produced by pass  3 Test12= 6.89D-15 1.23D-09 XBig12= 5.06D-05 1.02D-03.
     78 vectors produced by pass  4 Test12= 6.89D-15 1.23D-09 XBig12= 5.67D-08 2.37D-05.
     34 vectors produced by pass  5 Test12= 6.89D-15 1.23D-09 XBig12= 3.73D-11 5.82D-07.
      3 vectors produced by pass  6 Test12= 6.89D-15 1.23D-09 XBig12= 2.12D-14 1.47D-08.
 InvSVY:  IOpt=1 It=  1 EMax= 7.11D-15
 Solved reduced A of dimension   427 with    81 vectors.
 Isotropic polarizability for W=    0.000000       93.05 Bohr**3.
 End of Minotr F.D. properties file   721 does not exist.
 End of Minotr F.D. properties file   722 does not exist.
 End of Minotr F.D. properties file   788 does not exist.

 **********************************************************************

            Population analysis using the SCF density.

 **********************************************************************

 Orbital symmetries:
       Occupied  (A) (A) (A) (A) (A) (A) (A) (A) (A) (A) (A) (A)
                 (A) (A) (A) (A) (A) (A) (A) (A) (A) (A) (A) (A)
                 (A) (A) (A) (A) (A) (A) (A) (A) (A) (A) (A) (A)
                 (A) (A) (A)
       Virtual   (A) (A) (A) (A) (A) (A) (A) (A) (A) (A) (A) (A)
                 (A) (A) (A) (A) (A) (A) (A) (A) (A) (A) (A) (A)
                 (A) (A) (A) (A) (A) (A) (A) (A) (A) (A) (A) (A)
                 (A) (A) (A) (A) (A) (A) (A) (A) (A) (A) (A) (A)
                 (A) (A) (A) (A) (A) (A) (A) (A) (A) (A) (A) (A)
                 (A) (A) (A) (A) (A) (A) (A) (A) (A) (A) (A) (A)
                 (A) (A) (A) (A) (A) (A) (A) (A) (A) (A) (A) (A)
                 (A) (A) (A) (A) (A) (A) (A) (A) (A) (A) (A) (A)
                 (A) (A) (A) (A) (A) (A) (A) (A) (A) (A) (A) (A)
                 (A) (A) (A) (A) (A) (A) (A) (A) (A) (A) (A) (A)
                 (A) (A) (A) (A) (A) (A) (A) (A) (A) (A) (A) (A)
                 (A) (A) (A) (A) (A) (A) (A) (A) (A) (A) (A)
 The electronic state is 1-A.
 Alpha  occ. eigenvalues --  -19.13499 -10.26900 -10.19464 -10.19397 -10.19154
 Alpha  occ. eigenvalues --  -10.19038 -10.18982 -10.18723 -10.16323 -10.16237
 Alpha  occ. eigenvalues --   -1.03331  -0.83613  -0.79279  -0.73958  -0.71675
 Alpha  occ. eigenvalues --   -0.67300  -0.62614  -0.59426  -0.56931  -0.51694
 Alpha  occ. eigenvalues --   -0.47376  -0.46727  -0.45030  -0.43709  -0.43327
 Alpha  occ. eigenvalues --   -0.41298  -0.40853  -0.39665  -0.38562  -0.37349
 Alpha  occ. eigenvalues --   -0.36482  -0.35516  -0.34761  -0.33378  -0.32713
 Alpha  occ. eigenvalues --   -0.32456  -0.31533  -0.30608  -0.23250
 Alpha virt. eigenvalues --   -0.01428   0.08450   0.09820   0.10531   0.13001
 Alpha virt. eigenvalues --    0.14087   0.14658   0.15311   0.15623   0.16551
 Alpha virt. eigenvalues --    0.16854   0.17425   0.18107   0.18446   0.19562
 Alpha virt. eigenvalues --    0.20381   0.20673   0.21918   0.22736   0.24038
 Alpha virt. eigenvalues --    0.24719   0.26556   0.27444   0.28862   0.29052
 Alpha virt. eigenvalues --    0.33032   0.37876   0.49340   0.50963   0.51571
 Alpha virt. eigenvalues --    0.52865   0.53789   0.54451   0.55638   0.57667
 Alpha virt. eigenvalues --    0.59040   0.60791   0.62981   0.63749   0.66425
 Alpha virt. eigenvalues --    0.67094   0.69163   0.70290   0.71292   0.74078
 Alpha virt. eigenvalues --    0.74520   0.78649   0.78813   0.81215   0.82456
 Alpha virt. eigenvalues --    0.84451   0.85100   0.86599   0.86776   0.87961
 Alpha virt. eigenvalues --    0.89073   0.90401   0.91225   0.91780   0.92302
 Alpha virt. eigenvalues --    0.92597   0.93899   0.94556   0.95478   0.96633
 Alpha virt. eigenvalues --    0.98688   0.98996   1.01664   1.02944   1.08228
 Alpha virt. eigenvalues --    1.10594   1.12036   1.16497   1.19648   1.20696
 Alpha virt. eigenvalues --    1.27944   1.35062   1.38729   1.44163   1.46107
 Alpha virt. eigenvalues --    1.47487   1.47976   1.53964   1.60769   1.64881
 Alpha virt. eigenvalues --    1.66454   1.70013   1.71452   1.76137   1.76915
 Alpha virt. eigenvalues --    1.79586   1.81117   1.82315   1.84534   1.86029
 Alpha virt. eigenvalues --    1.89133   1.90726   1.92313   1.95387   1.95510
 Alpha virt. eigenvalues --    1.97971   2.00720   2.01106   2.03739   2.07108
 Alpha virt. eigenvalues --    2.08717   2.11548   2.11862   2.14862   2.16450
 Alpha virt. eigenvalues --    2.22993   2.26670   2.27695   2.31568   2.33865
 Alpha virt. eigenvalues --    2.35235   2.37666   2.39237   2.41624   2.44215
 Alpha virt. eigenvalues --    2.45695   2.50559   2.55373   2.59356   2.60767
 Alpha virt. eigenvalues --    2.63439   2.66009   2.72577   2.74068   2.80070
 Alpha virt. eigenvalues --    2.85700   2.99685   3.03889   4.03109   4.10802
 Alpha virt. eigenvalues --    4.20434   4.26127   4.30082   4.33081   4.52900
 Alpha virt. eigenvalues --    4.55719   4.58675   4.66448
          Condensed to atoms (all electrons):
               1          2          3          4          5          6
     1  O    8.020562   0.565167  -0.085995   0.006475  -0.006599  -0.007115
     2  C    0.565167   4.539968   0.287864  -0.029420  -0.003134  -0.006329
     3  C   -0.085995   0.287864   5.286245   0.358107  -0.038361  -0.041224
     4  C    0.006475  -0.029420   0.358107   4.853875   0.371774   0.377430
     5  C   -0.006599  -0.003134  -0.038361   0.371774   5.133705  -0.049957
     6  C   -0.007115  -0.006329  -0.041224   0.377430  -0.049957   5.133059
     7  C    0.000343  -0.023389   0.352471  -0.036450   0.004106  -0.005195
     8  C    0.000148  -0.013173  -0.035271   0.003472  -0.000135   0.000199
     9  C    0.000933  -0.027288  -0.003010   0.000090   0.000002  -0.000031
    10  C   -0.073141   0.341258  -0.129139   0.005090  -0.000200  -0.000055
    11  H    0.001679  -0.039534   0.348869  -0.038584  -0.004932   0.005528
    12  H    0.000040   0.005247  -0.046030   0.376219  -0.047015  -0.048902
    13  H    0.000108  -0.000284  -0.004674  -0.032102   0.365409   0.005201
    14  H    0.010195   0.004029  -0.009213  -0.029300   0.372942  -0.005423
    15  H    0.000178   0.000078   0.004466  -0.029128   0.365888  -0.003918
    16  H    0.000080  -0.000104  -0.005025  -0.030896   0.005044   0.366708
    17  H    0.000206   0.000098   0.004847  -0.030698  -0.004621   0.366208
    18  H    0.011423   0.003799  -0.008787  -0.030492  -0.005233   0.373504
    19  H    0.000507  -0.004972  -0.040986  -0.004742   0.000011   0.002477
    20  H   -0.000074   0.003430  -0.033915  -0.002907   0.000037  -0.000743
    21  H   -0.000008  -0.001792  -0.004699   0.000016  -0.000006  -0.000001
    22  H    0.000002   0.000301   0.004152  -0.000113   0.000002   0.000003
    23  H   -0.000063   0.003422  -0.000240   0.000006  -0.000000   0.000000
    24  H    0.000479  -0.002797  -0.000045  -0.000029  -0.000000  -0.000001
    25  H    0.005620  -0.023851   0.006550  -0.000128   0.000002   0.000003
    26  H    0.001301  -0.030393   0.003083  -0.000095   0.000011   0.000001
               7          8          9         10         11         12
     1  O    0.000343   0.000148   0.000933  -0.073141   0.001679   0.000040
     2  C   -0.023389  -0.013173  -0.027288   0.341258  -0.039534   0.005247
     3  C    0.352471  -0.035271  -0.003010  -0.129139   0.348869  -0.046030
     4  C   -0.036450   0.003472   0.000090   0.005090  -0.038584   0.376219
     5  C    0.004106  -0.000135   0.000002  -0.000200  -0.004932  -0.047015
     6  C   -0.005195   0.000199  -0.000031  -0.000055   0.005528  -0.048902
     7  C    5.051617   0.366306  -0.045148  -0.007486  -0.043887  -0.006122
     8  C    0.366306   5.012727   0.378522  -0.045735  -0.002558   0.000062
     9  C   -0.045148   0.378522   5.016617   0.340443  -0.002109   0.000002
    10  C   -0.007486  -0.045735   0.340443   5.285606   0.002262  -0.000177
    11  H   -0.043887  -0.002558  -0.002109   0.002262   0.627860  -0.003744
    12  H   -0.006122   0.000062   0.000002  -0.000177  -0.003744   0.652675
    13  H    0.000034  -0.000002  -0.000000  -0.000011   0.006007  -0.003165
    14  H    0.000063   0.000001  -0.000002   0.000188  -0.000338   0.005260
    15  H   -0.000116   0.000002   0.000000   0.000005  -0.000047  -0.004329
    16  H    0.002011  -0.000065   0.000005   0.000005  -0.000055  -0.003337
    17  H    0.000054  -0.000001  -0.000000   0.000004  -0.000132  -0.004109
    18  H   -0.000191  -0.000013  -0.000019   0.000191   0.000058   0.005298
    19  H    0.371512  -0.038870  -0.005512   0.000208   0.006371  -0.000179
    20  H    0.367013  -0.030143   0.004885  -0.000288  -0.006424   0.006445
    21  H   -0.041151   0.373230  -0.042297  -0.003209   0.005788  -0.000003
    22  H   -0.030481   0.366628  -0.031751   0.004713   0.000021  -0.000006
    23  H    0.004868  -0.030617   0.368803  -0.029025  -0.000036  -0.000000
    24  H   -0.004805  -0.039538   0.376447  -0.043104   0.000130   0.000000
    25  H   -0.000096   0.004193  -0.025139   0.342491  -0.000126   0.000003
    26  H   -0.001036  -0.003298  -0.035950   0.349496   0.001850   0.000001
              13         14         15         16         17         18
     1  O    0.000108   0.010195   0.000178   0.000080   0.000206   0.011423
     2  C   -0.000284   0.004029   0.000078  -0.000104   0.000098   0.003799
     3  C   -0.004674  -0.009213   0.004466  -0.005025   0.004847  -0.008787
     4  C   -0.032102  -0.029300  -0.029128  -0.030896  -0.030698  -0.030492
     5  C    0.365409   0.372942   0.365888   0.005044  -0.004621  -0.005233
     6  C    0.005201  -0.005423  -0.003918   0.366708   0.366208   0.373504
     7  C    0.000034   0.000063  -0.000116   0.002011   0.000054  -0.000191
     8  C   -0.000002   0.000001   0.000002  -0.000065  -0.000001  -0.000013
     9  C   -0.000000  -0.000002   0.000000   0.000005  -0.000000  -0.000019
    10  C   -0.000011   0.000188   0.000005   0.000005   0.000004   0.000191
    11  H    0.006007  -0.000338  -0.000047  -0.000055  -0.000132   0.000058
    12  H   -0.003165   0.005260  -0.004329  -0.003337  -0.004109   0.005298
    13  H    0.595602  -0.029562  -0.030767  -0.000189  -0.000012  -0.000004
    14  H   -0.029562   0.530665  -0.027526  -0.000004  -0.000049   0.003996
    15  H   -0.030767  -0.027526   0.584024  -0.000041   0.004387  -0.000075
    16  H   -0.000189  -0.000004  -0.000041   0.588293  -0.030901  -0.029661
    17  H   -0.000012  -0.000049   0.004387  -0.030901   0.585748  -0.027171
    18  H   -0.000004   0.003996  -0.000075  -0.029661  -0.027171   0.526768
    19  H    0.000001   0.000001   0.000002   0.003515  -0.000089   0.000301
    20  H   -0.000010  -0.000001  -0.000009   0.000314  -0.000048   0.000034
    21  H   -0.000001   0.000000   0.000000  -0.000001   0.000000   0.000000
    22  H    0.000000   0.000000  -0.000000   0.000006  -0.000000  -0.000000
    23  H   -0.000000   0.000000   0.000000  -0.000000   0.000000   0.000000
    24  H   -0.000000  -0.000000  -0.000000  -0.000007   0.000000  -0.000000
    25  H    0.000000   0.000001  -0.000000   0.000000  -0.000000   0.000002
    26  H   -0.000004  -0.000030  -0.000001  -0.000001   0.000000  -0.000003
              19         20         21         22         23         24
     1  O    0.000507  -0.000074  -0.000008   0.000002  -0.000063   0.000479
     2  C   -0.004972   0.003430  -0.001792   0.000301   0.003422  -0.002797
     3  C   -0.040986  -0.033915  -0.004699   0.004152  -0.000240  -0.000045
     4  C   -0.004742  -0.002907   0.000016  -0.000113   0.000006  -0.000029
     5  C    0.000011   0.000037  -0.000006   0.000002  -0.000000  -0.000000
     6  C    0.002477  -0.000743  -0.000001   0.000003   0.000000  -0.000001
     7  C    0.371512   0.367013  -0.041151  -0.030481   0.004868  -0.004805
     8  C   -0.038870  -0.030143   0.373230   0.366628  -0.030617  -0.039538
     9  C   -0.005512   0.004885  -0.042297  -0.031751   0.368803   0.376447
    10  C    0.000208  -0.000288  -0.003209   0.004713  -0.029025  -0.043104
    11  H    0.006371  -0.006424   0.005788   0.000021  -0.000036   0.000130
    12  H   -0.000179   0.006445  -0.000003  -0.000006  -0.000000   0.000000
    13  H    0.000001  -0.000010  -0.000001   0.000000  -0.000000  -0.000000
    14  H    0.000001  -0.000001   0.000000   0.000000   0.000000  -0.000000
    15  H    0.000002  -0.000009   0.000000  -0.000000   0.000000  -0.000000
    16  H    0.003515   0.000314  -0.000001   0.000006  -0.000000  -0.000007
    17  H   -0.000089  -0.000048   0.000000  -0.000000   0.000000   0.000000
    18  H    0.000301   0.000034   0.000000  -0.000000   0.000000  -0.000000
    19  H    0.595181  -0.037029   0.005747  -0.003727  -0.000020   0.004748
    20  H   -0.037029   0.595566  -0.003954  -0.002486  -0.000185  -0.000004
    21  H    0.005747  -0.003954   0.610085  -0.036159  -0.004229   0.005817
    22  H   -0.003727  -0.002486  -0.036159   0.595645  -0.002111  -0.004289
    23  H   -0.000020  -0.000185  -0.004229  -0.002111   0.592062  -0.036694
    24  H    0.004748  -0.000004   0.005817  -0.004289  -0.036694   0.596223
    25  H   -0.000041   0.000018  -0.000034  -0.000146  -0.002504  -0.003346
    26  H    0.000112  -0.000010   0.004573  -0.000044  -0.006368   0.005776
              25         26
     1  O    0.005620   0.001301
     2  C   -0.023851  -0.030393
     3  C    0.006550   0.003083
     4  C   -0.000128  -0.000095
     5  C    0.000002   0.000011
     6  C    0.000003   0.000001
     7  C   -0.000096  -0.001036
     8  C    0.004193  -0.003298
     9  C   -0.025139  -0.035950
    10  C    0.342491   0.349496
    11  H   -0.000126   0.001850
    12  H    0.000003   0.000001
    13  H    0.000000  -0.000004
    14  H    0.000001  -0.000030
    15  H   -0.000000  -0.000001
    16  H    0.000000  -0.000001
    17  H   -0.000000   0.000000
    18  H    0.000002  -0.000003
    19  H   -0.000041   0.000112
    20  H    0.000018  -0.000010
    21  H   -0.000034   0.004573
    22  H   -0.000146  -0.000044
    23  H   -0.002504  -0.006368
    24  H   -0.003346   0.005776
    25  H    0.561295  -0.026860
    26  H   -0.026860   0.586185
 Mulliken charges:
               1
     1  O   -0.452450
     2  C    0.451801
     3  C   -0.170041
     4  C   -0.057472
     5  C   -0.458741
     6  C   -0.461425
     7  C   -0.274845
     8  C   -0.266073
     9  C   -0.268492
    10  C   -0.340389
    11  H    0.136085
    12  H    0.115865
    13  H    0.128427
    14  H    0.174108
    15  H    0.136927
    16  H    0.134306
    17  H    0.136281
    18  H    0.176273
    19  H    0.145474
    20  H    0.140488
    21  H    0.132286
    22  H    0.139842
    23  H    0.142930
    24  H    0.145040
    25  H    0.162092
    26  H    0.151704
 Sum of Mulliken charges =  -0.00000
 Mulliken charges with hydrogens summed into heavy atoms:
               1
     1  O   -0.452450
     2  C    0.451801
     3  C   -0.033956
     4  C    0.058393
     5  C   -0.019279
     6  C   -0.014566
     7  C    0.011117
     8  C    0.006055
     9  C    0.019478
    10  C   -0.026593
 APT charges:
               1
     1  O   -0.639691
     2  C    0.695697
     3  C   -0.057772
     4  C    0.160761
     5  C    0.045028
     6  C    0.029697
     7  C    0.111521
     8  C    0.113346
     9  C    0.143691
    10  C   -0.060288
    11  H   -0.042590
    12  H   -0.086747
    13  H   -0.036148
    14  H    0.021762
    15  H   -0.038497
    16  H   -0.028210
    17  H   -0.033188
    18  H    0.025670
    19  H   -0.031285
    20  H   -0.048262
    21  H   -0.050577
    22  H   -0.057079
    23  H   -0.053467
    24  H   -0.040903
    25  H   -0.027963
    26  H   -0.014505
 Sum of APT charges =   0.00000
 APT charges with hydrogens summed into heavy atoms:
               1
     1  O   -0.639691
     2  C    0.695697
     3  C   -0.100362
     4  C    0.074013
     5  C   -0.007855
     6  C   -0.006031
     7  C    0.031974
     8  C    0.005690
     9  C    0.049321
    10  C   -0.102756
 Electronic spatial extent (au):  <R**2>=           1622.9269
 Charge=             -0.0000 electrons
 Dipole moment (field-independent basis, Debye):
    X=              1.7457    Y=             -1.8994    Z=             -1.1606  Tot=              2.8288
 Quadrupole moment (field-independent basis, Debye-Ang):
   XX=            -61.2075   YY=            -66.8174   ZZ=            -62.8320
   XY=              2.0632   XZ=              0.4418   YZ=             -2.1374
 Traceless Quadrupole moment (field-independent basis, Debye-Ang):
   XX=              2.4114   YY=             -3.1984   ZZ=              0.7869
   XY=              2.0632   XZ=              0.4418   YZ=             -2.1374
 Octapole moment (field-independent basis, Debye-Ang**2):
  XXX=              3.4981  YYY=             -2.5102  ZZZ=              0.9834  XYY=              4.6685
  XXY=              2.7724  XXZ=              1.3852  XZZ=              2.7863  YZZ=              1.4983
  YYZ=             -3.3634  XYZ=             -0.1590
 Hexadecapole moment (field-independent basis, Debye-Ang**3):
 XXXX=          -1368.0048 YYYY=           -541.4116 ZZZZ=           -276.4931 XXXY=              3.8347
 XXXZ=             -5.2717 YYYX=              2.7247 YYYZ=             -2.3670 ZZZX=             -0.7577
 ZZZY=              4.0492 XXYY=           -316.8484 XXZZ=           -282.5063 YYZZ=           -136.7329
 XXYZ=              1.9294 YYXZ=              2.8998 ZZXY=             -0.3567
 N-N= 5.689442935701D+02 E-N=-2.130077048663D+03  KE= 4.236630287611D+02
  Exact polarizability: 107.132  -1.378  89.993  -1.630   0.979  82.019
 Approx polarizability: 133.166  -6.354 132.038  -5.983   7.086 126.246
 Calling FoFJK, ICntrl=    100127 FMM=F ISym2X=0 I1Cent= 0 IOpClX= 0 NMat=1 NMatS=1 NMatT=0.
 Full mass-weighted force constant matrix:
 Low frequencies ---   -5.8771   -4.3877   -0.0009    0.0003    0.0004    7.8982
 Low frequencies ---   68.6202   96.2872  139.9465
 Diagonal vibrational polarizability:
        6.3730372       4.7151233       9.3663834
 Harmonic frequencies (cm**-1), IR intensities (KM/Mole), Raman scattering
 activities (A**4/AMU), depolarization ratios for plane and unpolarized
 incident light, reduced masses (AMU), force constants (mDyne/A),
 and normal coordinates:
                      1                      2                      3
                      A                      A                      A
 Frequencies --     68.6182                96.2866               139.9461
 Red. masses --      3.1329                 2.8055                 2.6317
 Frc consts  --      0.0087                 0.0153                 0.0304
 IR Inten    --      0.9126                 0.8901                 1.1931
  Atom  AN      X      Y      Z        X      Y      Z        X      Y      Z
     1   8     0.07  -0.08   0.17     0.02  -0.06   0.17     0.07  -0.10   0.12
     2   6     0.00  -0.01  -0.00     0.00  -0.02   0.09     0.01  -0.02  -0.06
     3   6     0.00  -0.02   0.03    -0.00   0.00   0.04    -0.02   0.00  -0.09
     4   6    -0.01   0.00  -0.05     0.00  -0.01   0.03    -0.01   0.01  -0.00
     5   6     0.06   0.10  -0.02     0.03  -0.14  -0.16    -0.05  -0.01   0.01
     6   6    -0.08  -0.10  -0.08    -0.08   0.19   0.01     0.07   0.08   0.02
     7   6    -0.01   0.04   0.17     0.02  -0.00  -0.00    -0.02  -0.03  -0.14
     8   6    -0.01  -0.00   0.09    -0.00   0.01  -0.09     0.03   0.03   0.10
     9   6     0.01   0.08  -0.12     0.03  -0.00  -0.10    -0.08   0.06   0.14
    10   6    -0.04   0.01  -0.19    -0.02   0.02   0.03    -0.02  -0.01  -0.14
    11   1     0.06  -0.10   0.03     0.00   0.03   0.05    -0.06   0.03  -0.10
    12   1    -0.02   0.04  -0.14     0.04  -0.07   0.16    -0.04  -0.01   0.05
    13   1     0.13   0.19  -0.00     0.02  -0.36  -0.17    -0.16  -0.11  -0.02
    14   1     0.06   0.06   0.08     0.07  -0.06  -0.37     0.04   0.01  -0.08
    15   1     0.05   0.12  -0.12     0.02  -0.08  -0.10    -0.05   0.04   0.15
    16   1    -0.17  -0.20  -0.13     0.01   0.39   0.18     0.13   0.15   0.05
    17   1    -0.11  -0.03  -0.15    -0.04   0.03  -0.00     0.09   0.04   0.09
    18   1    -0.03  -0.16   0.02    -0.26   0.30  -0.15     0.05   0.12  -0.05
    19   1     0.02   0.19   0.18     0.07  -0.01   0.00    -0.15  -0.16  -0.16
    20   1    -0.02  -0.02   0.30    -0.00   0.00   0.01     0.06   0.01  -0.29
    21   1    -0.05  -0.17   0.09    -0.08   0.03  -0.10     0.22   0.01   0.12
    22   1     0.00   0.06   0.19     0.03   0.00  -0.15    -0.02   0.05   0.22
    23   1    -0.01   0.05  -0.23     0.01   0.01  -0.18    -0.03   0.05   0.34
    24   1     0.10   0.22  -0.12     0.13  -0.04  -0.09    -0.32   0.13   0.13
    25   1    -0.01   0.06  -0.31     0.00  -0.01   0.07    -0.03   0.07  -0.29
    26   1    -0.14  -0.11  -0.21    -0.08   0.09   0.03     0.03  -0.23  -0.15
                      4                      5                      6
                      A                      A                      A
 Frequencies --    198.1324               230.3045               236.5825
 Red. masses --      3.4068                 1.1776                 1.5006
 Frc consts  --      0.0788                 0.0368                 0.0495
 IR Inten    --      2.4901                 0.1313                 1.0467
  Atom  AN      X      Y      Z        X      Y      Z        X      Y      Z
     1   8    -0.15  -0.14  -0.06     0.00  -0.01   0.03    -0.04  -0.05   0.01
     2   6    -0.06  -0.10  -0.01    -0.00   0.01   0.01    -0.02  -0.01  -0.02
     3   6     0.02  -0.13   0.02    -0.00   0.01  -0.02    -0.00   0.01  -0.07
     4   6    -0.00   0.02   0.05     0.00  -0.00  -0.01     0.00   0.01  -0.05
     5   6     0.19   0.18   0.02    -0.03  -0.06  -0.04    -0.03   0.02  -0.01
     6   6     0.00   0.12   0.05     0.07   0.04   0.01     0.13  -0.00  -0.02
     7   6     0.07  -0.10  -0.02    -0.02   0.01   0.00    -0.03   0.04   0.06
     8   6     0.05   0.04  -0.04    -0.02  -0.00  -0.00    -0.03  -0.02   0.03
     9   6    -0.03   0.06  -0.01    -0.01  -0.01  -0.00     0.02  -0.01  -0.03
    10   6    -0.09   0.02   0.02    -0.00   0.01   0.01    -0.01   0.01   0.06
    11   1    -0.01  -0.14   0.01     0.01   0.01  -0.02     0.05  -0.03  -0.06
    12   1    -0.16   0.04   0.06     0.01  -0.02   0.03    -0.03   0.01  -0.05
    13   1     0.24   0.14   0.03     0.10   0.05  -0.01    -0.37  -0.32  -0.10
    14   1     0.35   0.15   0.04    -0.21  -0.07   0.03     0.32   0.09  -0.29
    15   1     0.13   0.36  -0.04     0.00  -0.20  -0.19    -0.07   0.27   0.41
    16   1    -0.15  -0.00   0.05    -0.26  -0.31  -0.12     0.16  -0.02  -0.09
    17   1    -0.06   0.35   0.07    -0.06   0.56   0.06     0.13   0.01   0.07
    18   1     0.21   0.09   0.04     0.57  -0.08   0.11     0.18  -0.02  -0.01
    19   1     0.09  -0.15  -0.02    -0.02   0.04   0.01    -0.02   0.19   0.07
    20   1     0.14  -0.11  -0.05    -0.03   0.01   0.02    -0.05  -0.00   0.19
    21   1     0.03   0.09  -0.04    -0.02  -0.01  -0.00    -0.05  -0.08   0.03
    22   1     0.13   0.08  -0.09    -0.02  -0.01  -0.00    -0.05  -0.02   0.06
    23   1    -0.04   0.13  -0.00    -0.01  -0.01  -0.02    -0.01  -0.02  -0.11
    24   1    -0.03   0.03  -0.01     0.01  -0.01  -0.00     0.11  -0.01  -0.02
    25   1    -0.17   0.02   0.05    -0.00  -0.01   0.04    -0.03  -0.03   0.15
    26   1    -0.09   0.06   0.02     0.00   0.03   0.02     0.01   0.11   0.07
                      7                      8                      9
                      A                      A                      A
 Frequencies --    250.8492               292.2043               308.2410
 Red. masses --      1.5036                 2.8928                 1.8359
 Frc consts  --      0.0557                 0.1455                 0.1028
 IR Inten    --      0.8133                 0.1113                 0.1568
  Atom  AN      X      Y      Z        X      Y      Z        X      Y      Z
     1   8     0.05   0.09  -0.01    -0.04   0.09   0.04    -0.05   0.06  -0.01
     2   6     0.01   0.03   0.03    -0.05   0.07   0.05    -0.03   0.02   0.08
     3   6    -0.01   0.01   0.07     0.01   0.03   0.05     0.01   0.03   0.02
     4   6    -0.01  -0.03   0.04     0.07  -0.01  -0.00     0.01   0.01  -0.00
     5   6     0.06  -0.02  -0.03     0.17  -0.00  -0.08     0.00   0.00   0.00
     6   6    -0.08  -0.08   0.02     0.20  -0.05   0.03     0.01   0.00  -0.00
     7   6     0.01  -0.02  -0.03    -0.07  -0.03   0.02    -0.02  -0.06  -0.11
     8   6     0.00   0.02  -0.03    -0.11  -0.05  -0.03     0.05  -0.08   0.13
     9   6    -0.02   0.01   0.02    -0.16  -0.04  -0.01     0.06   0.02  -0.10
    10   6     0.00  -0.01  -0.04    -0.08   0.00  -0.05    -0.04   0.00   0.02
    11   1    -0.04   0.05   0.06     0.07   0.07   0.06     0.00   0.15   0.02
    12   1     0.00  -0.02   0.02     0.09  -0.01  -0.01     0.02   0.01  -0.01
    13   1    -0.15  -0.38  -0.09     0.37   0.02  -0.03    -0.01  -0.01  -0.00
    14   1     0.39   0.06  -0.32     0.11  -0.01  -0.04     0.01   0.01  -0.01
    15   1    -0.00   0.26   0.26     0.16   0.00  -0.29     0.00   0.00   0.02
    16   1    -0.28  -0.29  -0.05     0.41   0.08  -0.02    -0.01  -0.02  -0.01
    17   1    -0.15   0.18  -0.05     0.26  -0.27   0.16     0.00   0.03  -0.00
    18   1     0.14  -0.16   0.14     0.07  -0.01  -0.01     0.03  -0.00   0.01
    19   1     0.02  -0.12  -0.04    -0.04  -0.06   0.02    -0.18  -0.28  -0.14
    20   1     0.02   0.01  -0.12    -0.16   0.01  -0.01     0.03   0.03  -0.34
    21   1    -0.00   0.08  -0.03    -0.14  -0.04  -0.03     0.25  -0.35   0.16
    22   1     0.02   0.01  -0.08    -0.07  -0.04  -0.05    -0.04  -0.00   0.42
    23   1    -0.00   0.01   0.10    -0.13  -0.06   0.09    -0.01   0.02  -0.34
    24   1    -0.10  -0.00   0.02    -0.26  -0.05  -0.01     0.30   0.13  -0.10
    25   1     0.03   0.02  -0.11     0.03   0.01  -0.13     0.01  -0.01   0.01
    26   1    -0.02  -0.09  -0.05    -0.13  -0.09  -0.07    -0.16   0.05   0.00
                     10                     11                     12
                      A                      A                      A
 Frequencies --    393.5226               415.3803               436.6650
 Red. masses --      2.6593                 2.5955                 2.9812
 Frc consts  --      0.2426                 0.2639                 0.3349
 IR Inten    --      0.5995                 2.6802                 0.4506
  Atom  AN      X      Y      Z        X      Y      Z        X      Y      Z
     1   8     0.02  -0.10  -0.02    -0.02  -0.03   0.01    -0.12  -0.01   0.04
     2   6     0.05   0.01  -0.13     0.05   0.07  -0.04    -0.09   0.06  -0.03
     3   6    -0.03   0.03  -0.08     0.11   0.01  -0.01    -0.01   0.11  -0.11
     4   6    -0.01   0.04   0.12     0.15  -0.04  -0.02     0.06  -0.04   0.04
     5   6     0.10  -0.02  -0.06     0.04  -0.06   0.14     0.10  -0.03   0.07
     6   6    -0.05  -0.09   0.14    -0.06   0.06  -0.08    -0.06   0.02   0.03
     7   6    -0.10   0.05  -0.06    -0.03  -0.07   0.01     0.06   0.21  -0.06
     8   6    -0.08   0.02   0.05    -0.07  -0.07  -0.00     0.10  -0.09  -0.04
     9   6     0.01   0.02  -0.02    -0.14  -0.01  -0.05     0.02  -0.10   0.02
    10   6     0.08   0.10   0.03     0.02   0.14  -0.02    -0.04  -0.12  -0.01
    11   1    -0.17  -0.06  -0.10     0.14  -0.02  -0.00    -0.10   0.14  -0.12
    12   1     0.00   0.03   0.15     0.19  -0.04  -0.02     0.09  -0.06   0.07
    13   1     0.32  -0.15  -0.00    -0.17   0.02   0.09     0.12  -0.01   0.07
    14   1     0.06   0.02  -0.16     0.07  -0.09   0.20     0.16  -0.05   0.10
    15   1     0.08   0.02  -0.25     0.06  -0.10   0.34     0.08   0.03   0.04
    16   1    -0.04  -0.14   0.06    -0.28   0.04   0.11    -0.20  -0.01   0.13
    17   1    -0.04  -0.17   0.05    -0.11   0.19  -0.31    -0.09   0.09  -0.13
    18   1    -0.13  -0.15   0.28    -0.08   0.09  -0.14    -0.09   0.02   0.01
    19   1    -0.19   0.06  -0.07    -0.07  -0.08   0.01     0.11   0.48  -0.03
    20   1    -0.08   0.06  -0.08    -0.10  -0.03  -0.03    -0.08   0.14   0.22
    21   1    -0.01  -0.08   0.06    -0.07  -0.15  -0.00     0.24  -0.18  -0.02
    22   1    -0.15   0.02   0.15    -0.00   0.02   0.07    -0.07  -0.13   0.13
    23   1     0.02  -0.08  -0.09    -0.09  -0.08   0.08     0.02   0.02   0.11
    24   1     0.08   0.05  -0.02    -0.25  -0.02  -0.05    -0.07  -0.16   0.02
    25   1    -0.02   0.01   0.27     0.05   0.03   0.19     0.08  -0.08  -0.15
    26   1     0.23   0.33   0.07     0.10   0.33   0.02    -0.07  -0.26  -0.03
                     13                     14                     15
                      A                      A                      A
 Frequencies --    447.6784               499.1523               615.8433
 Red. masses --      3.0239                 2.1023                 3.2303
 Frc consts  --      0.3571                 0.3086                 0.7218
 IR Inten    --      2.7000                 2.1574                 7.3838
  Atom  AN      X      Y      Z        X      Y      Z        X      Y      Z
     1   8    -0.16  -0.11  -0.02     0.08   0.06   0.04    -0.16  -0.02   0.05
     2   6     0.05   0.03   0.03    -0.03   0.03  -0.06     0.01   0.15  -0.01
     3   6     0.11   0.07   0.08    -0.02  -0.04  -0.01    -0.04   0.00   0.08
     4   6     0.06   0.24   0.06    -0.08   0.01   0.01    -0.16  -0.16  -0.05
     5   6    -0.11   0.03  -0.08    -0.05   0.04  -0.05    -0.03   0.02  -0.02
     6   6    -0.01  -0.03   0.04    -0.01  -0.02   0.04    -0.00  -0.00   0.00
     7   6     0.05  -0.04   0.03     0.11  -0.03   0.01     0.01  -0.02   0.01
     8   6     0.05  -0.06  -0.03     0.13  -0.11  -0.03     0.02  -0.04  -0.01
     9   6    -0.02  -0.04  -0.00    -0.10  -0.02  -0.05     0.09  -0.05   0.01
    10   6     0.05   0.02  -0.07    -0.05   0.05   0.02     0.22   0.12  -0.09
    11   1     0.11   0.05   0.08    -0.04  -0.08  -0.01    -0.03  -0.03   0.08
    12   1     0.10   0.24   0.03    -0.12   0.02   0.01    -0.10  -0.15  -0.07
    13   1    -0.16  -0.16  -0.09     0.01   0.01  -0.04     0.05   0.11  -0.00
    14   1    -0.33   0.15  -0.32    -0.07   0.05  -0.08     0.20  -0.06   0.12
    15   1    -0.04  -0.20   0.02    -0.06   0.04  -0.11    -0.10   0.26  -0.12
    16   1    -0.01  -0.17  -0.14     0.06  -0.02  -0.04     0.12   0.10   0.02
    17   1     0.01  -0.12  -0.10     0.00  -0.06   0.12     0.00   0.07   0.33
    18   1    -0.09  -0.16   0.32     0.01  -0.03   0.06     0.18   0.09  -0.23
    19   1     0.11  -0.07   0.03     0.23   0.11   0.03     0.04  -0.13   0.01
    20   1    -0.03   0.00   0.00     0.04  -0.08   0.18     0.01   0.02  -0.07
    21   1     0.03  -0.06  -0.03     0.27  -0.32  -0.01     0.02  -0.06  -0.01
    22   1     0.07  -0.04  -0.03     0.12   0.02   0.24    -0.01  -0.06  -0.00
    23   1     0.02  -0.04   0.15    -0.05   0.10   0.21     0.16  -0.18   0.19
    24   1    -0.17  -0.05  -0.00    -0.32  -0.09  -0.05    -0.09  -0.04   0.01
    25   1     0.19   0.04  -0.21    -0.11  -0.09   0.34     0.36   0.09  -0.09
    26   1    -0.03  -0.14  -0.10     0.08   0.38   0.07     0.26   0.08  -0.08
                     16                     17                     18
                      A                      A                      A
 Frequencies --    671.5922               735.8131               822.8708
 Red. masses --      2.7465                 2.4476                 2.5866
 Frc consts  --      0.7299                 0.7808                 1.0319
 IR Inten    --      2.6408                 2.8371                 2.8515
  Atom  AN      X      Y      Z        X      Y      Z        X      Y      Z
     1   8     0.03  -0.07  -0.11     0.02  -0.06  -0.00     0.02  -0.04  -0.03
     2   6     0.13  -0.17   0.20    -0.07  -0.04  -0.13     0.07   0.01  -0.02
     3   6    -0.02   0.03   0.09    -0.06   0.10   0.21     0.15   0.10  -0.02
     4   6    -0.04  -0.04  -0.01     0.01   0.02   0.01     0.00  -0.11  -0.06
     5   6    -0.00  -0.01  -0.00     0.02  -0.01   0.02    -0.09   0.06  -0.09
     6   6     0.00  -0.00  -0.02     0.03   0.01  -0.09    -0.05  -0.04   0.16
     7   6    -0.05   0.12  -0.06     0.01   0.11   0.04     0.07   0.06   0.03
     8   6    -0.03   0.03  -0.04     0.03   0.02   0.01    -0.01   0.01   0.05
     9   6    -0.05   0.05  -0.06     0.03  -0.04  -0.02    -0.12  -0.04  -0.03
    10   6     0.04   0.03  -0.01    -0.04  -0.09  -0.05    -0.06  -0.05   0.02
    11   1    -0.02   0.28   0.09    -0.02  -0.02   0.21     0.28   0.10  -0.01
    12   1     0.04  -0.04  -0.05     0.14   0.03  -0.06     0.16  -0.12  -0.07
    13   1     0.01   0.03   0.00    -0.01  -0.02   0.01    -0.11   0.24  -0.10
    14   1     0.07  -0.03   0.05     0.00  -0.01   0.01     0.12  -0.03   0.09
    15   1    -0.02   0.07  -0.02     0.03  -0.05   0.07    -0.14   0.26  -0.10
    16   1     0.04   0.04  -0.01     0.07   0.02  -0.11    -0.07   0.06   0.32
    17   1     0.00   0.04   0.10     0.03   0.02  -0.00    -0.07   0.07   0.27
    18   1     0.08   0.04  -0.11     0.09   0.02  -0.12     0.03   0.05  -0.05
    19   1     0.08   0.27  -0.03    -0.00  -0.36  -0.00    -0.11  -0.15  -0.00
    20   1    -0.08   0.05   0.15     0.00   0.31  -0.39     0.06   0.19  -0.24
    21   1     0.21  -0.28  -0.00    -0.02   0.01   0.01    -0.19   0.14   0.03
    22   1    -0.18   0.11   0.34    -0.07  -0.06  -0.01     0.12   0.01  -0.14
    23   1     0.06  -0.02   0.30     0.04   0.04   0.08    -0.18   0.02  -0.20
    24   1    -0.40  -0.01  -0.06    -0.08  -0.01  -0.02     0.06   0.03  -0.02
    25   1    -0.00   0.03   0.00    -0.23  -0.22   0.32     0.04  -0.09   0.04
    26   1    -0.20   0.10  -0.03     0.22   0.29   0.02    -0.07  -0.04   0.02
                     19                     20                     21
                      A                      A                      A
 Frequencies --    848.3840               865.2518               905.6927
 Red. masses --      1.6602                 2.4802                 1.7721
 Frc consts  --      0.7041                 1.0940                 0.8564
 IR Inten    --     10.7035                 0.2550                 4.7136
  Atom  AN      X      Y      Z        X      Y      Z        X      Y      Z
     1   8    -0.02   0.05   0.01    -0.03   0.03   0.03    -0.01  -0.02  -0.02
     2   6    -0.06  -0.05   0.09    -0.03   0.03   0.01     0.06   0.00   0.05
     3   6    -0.00  -0.02  -0.10    -0.00  -0.11  -0.03    -0.03   0.08  -0.02
     4   6     0.03   0.00  -0.02     0.01   0.01   0.01    -0.08   0.03   0.04
     5   6    -0.00   0.01  -0.01     0.01   0.01   0.00     0.02  -0.05   0.06
     6   6     0.01   0.00   0.05     0.01   0.01  -0.01    -0.01   0.02  -0.08
     7   6    -0.02   0.00   0.04     0.11   0.05  -0.00     0.05  -0.04  -0.02
     8   6     0.03   0.00   0.05    -0.09   0.20   0.04     0.05  -0.02   0.09
     9   6     0.09  -0.01  -0.05    -0.11  -0.08  -0.10    -0.11  -0.02  -0.01
    10   6     0.02  -0.03  -0.09     0.10  -0.11   0.02     0.02  -0.03  -0.05
    11   1     0.10   0.09  -0.08    -0.00  -0.17  -0.03    -0.15   0.25  -0.04
    12   1    -0.05  -0.01   0.04    -0.12   0.02   0.05    -0.04   0.02   0.04
    13   1    -0.02   0.02  -0.02    -0.03  -0.02  -0.01     0.19  -0.15   0.11
    14   1    -0.02   0.01  -0.01    -0.08   0.04  -0.04     0.09  -0.03  -0.00
    15   1     0.01  -0.02   0.00     0.04  -0.09   0.04    -0.02   0.05  -0.08
    16   1    -0.08  -0.03   0.09    -0.01  -0.03  -0.05     0.11  -0.01  -0.24
    17   1     0.00  -0.02  -0.10     0.01  -0.03  -0.09     0.02  -0.03   0.05
    18   1    -0.09  -0.02   0.11    -0.05  -0.03   0.08     0.06  -0.02  -0.03
    19   1    -0.28  -0.06   0.01     0.09  -0.08  -0.02    -0.01   0.18  -0.01
    20   1     0.11   0.02  -0.10     0.43  -0.02  -0.12     0.02  -0.10   0.15
    21   1    -0.26   0.12   0.02     0.07  -0.08   0.07    -0.07   0.39   0.06
    22   1     0.08  -0.10  -0.22    -0.12   0.33   0.35     0.27  -0.03  -0.27
    23   1     0.22  -0.05   0.39    -0.07  -0.25  -0.08    -0.17  -0.07  -0.24
    24   1    -0.38   0.11  -0.05    -0.12  -0.13  -0.10     0.10   0.27   0.00
    25   1    -0.04  -0.17   0.23     0.35  -0.22   0.09     0.16  -0.18   0.18
    26   1    -0.11   0.39  -0.06     0.09  -0.05   0.02     0.02   0.19  -0.02
                     22                     23                     24
                      A                      A                      A
 Frequencies --    917.3870               942.2962               961.1958
 Red. masses --      1.7010                 1.1795                 2.3512
 Frc consts  --      0.8435                 0.6170                 1.2799
 IR Inten    --      1.4269                 2.3713                 1.3540
  Atom  AN      X      Y      Z        X      Y      Z        X      Y      Z
     1   8     0.01  -0.02  -0.01    -0.00   0.00   0.00     0.03   0.00  -0.01
     2   6     0.06   0.03  -0.02    -0.01  -0.01   0.00     0.02  -0.02   0.03
     3   6    -0.01   0.06  -0.07     0.00  -0.01   0.02     0.07  -0.08  -0.02
     4   6    -0.08   0.03   0.01     0.00   0.01  -0.03    -0.07   0.01   0.03
     5   6     0.01  -0.06   0.05     0.01  -0.05  -0.06     0.01  -0.01   0.05
     6   6    -0.01   0.03  -0.05    -0.02   0.07   0.02    -0.02   0.02  -0.05
     7   6    -0.03  -0.00   0.11     0.01   0.00  -0.02     0.13   0.14  -0.02
     8   6     0.06  -0.00  -0.03    -0.02  -0.00  -0.00    -0.07  -0.07   0.05
     9   6    -0.00   0.04  -0.07     0.00  -0.01   0.02     0.02  -0.11   0.04
    10   6    -0.01  -0.02   0.10    -0.00   0.01  -0.02    -0.09   0.16  -0.01
    11   1     0.03  -0.17  -0.07     0.04   0.02   0.02     0.05  -0.13  -0.03
    12   1    -0.03  -0.03   0.13     0.07  -0.15   0.32    -0.22   0.03   0.03
    13   1     0.15  -0.05   0.08    -0.20   0.36  -0.10     0.10  -0.16   0.07
    14   1     0.17  -0.09   0.09     0.22  -0.22   0.33    -0.07   0.05  -0.09
    15   1    -0.04   0.12  -0.07    -0.02   0.11   0.15     0.02  -0.06  -0.04
    16   1     0.08  -0.05  -0.24     0.09  -0.13  -0.36     0.10  -0.01  -0.21
    17   1     0.02  -0.07   0.00     0.04  -0.17  -0.01     0.01  -0.05   0.08
    18   1    -0.00  -0.05   0.11    -0.08  -0.13   0.43     0.04  -0.02   0.01
    19   1    -0.22  -0.30   0.06     0.09   0.03  -0.01     0.02  -0.10  -0.05
    20   1     0.04   0.13  -0.25    -0.01  -0.02   0.04     0.30   0.17  -0.24
    21   1    -0.17  -0.22  -0.05     0.05   0.03   0.01    -0.22   0.03   0.03
    22   1     0.18   0.12   0.02    -0.06  -0.03   0.01    -0.26  -0.30  -0.13
    23   1     0.03   0.24   0.19    -0.00  -0.06  -0.04     0.04  -0.26  -0.01
    24   1    -0.21  -0.20  -0.08     0.05   0.04   0.02     0.04  -0.08   0.04
    25   1     0.13   0.07  -0.16    -0.05   0.00   0.02    -0.15   0.25  -0.15
    26   1    -0.21  -0.26   0.05     0.04   0.05  -0.01    -0.28   0.04  -0.05
                     25                     26                     27
                      A                      A                      A
 Frequencies --    977.9087              1031.2441              1037.9302
 Red. masses --      1.5184                 1.9025                 1.8065
 Frc consts  --      0.8555                 1.1921                 1.1467
 IR Inten    --      0.1103                 5.4500                 2.6249
  Atom  AN      X      Y      Z        X      Y      Z        X      Y      Z
     1   8    -0.00   0.00   0.00     0.00   0.00   0.00    -0.02   0.02   0.02
     2   6     0.00   0.01  -0.00    -0.05  -0.03  -0.02     0.00   0.03   0.01
     3   6     0.02  -0.01  -0.01     0.04   0.13  -0.04     0.17  -0.06  -0.00
     4   6    -0.03   0.05  -0.09    -0.03   0.05  -0.04    -0.06  -0.00  -0.01
     5   6     0.12  -0.03   0.02    -0.01  -0.05   0.06    -0.03  -0.02   0.07
     6   6    -0.11  -0.01   0.06    -0.03  -0.01   0.02    -0.02   0.02  -0.01
     7   6    -0.02   0.00  -0.00     0.06  -0.12   0.03    -0.06   0.03  -0.02
     8   6     0.01   0.00  -0.00    -0.08   0.08  -0.02    -0.03  -0.00  -0.06
     9   6    -0.00   0.01  -0.01     0.07  -0.04   0.02     0.02   0.07   0.04
    10   6     0.00  -0.02   0.01    -0.04   0.00  -0.04     0.00  -0.09  -0.04
    11   1     0.05  -0.00  -0.01     0.22   0.32  -0.01     0.48  -0.16   0.04
    12   1    -0.09   0.13  -0.27     0.13   0.06  -0.12    -0.22   0.00   0.04
    13   1    -0.20  -0.01  -0.06     0.23  -0.13   0.11     0.24  -0.21   0.13
    14   1    -0.17  -0.00   0.02     0.16  -0.05   0.00     0.05   0.03  -0.09
    15   1     0.25  -0.40   0.31    -0.08   0.16  -0.15    -0.09   0.12  -0.19
    16   1     0.20   0.07  -0.15     0.04   0.03  -0.01     0.04  -0.03  -0.13
    17   1    -0.07  -0.01   0.58    -0.03   0.03   0.15     0.00  -0.05   0.03
    18   1     0.18   0.00  -0.03     0.05   0.01  -0.03    -0.02  -0.03   0.09
    19   1    -0.04   0.01  -0.00     0.17  -0.01   0.04     0.11  -0.01  -0.01
    20   1    -0.03   0.01   0.00     0.11  -0.18   0.12    -0.24   0.10  -0.02
    21   1    -0.01   0.01  -0.00     0.04  -0.16   0.01     0.18  -0.00  -0.03
    22   1     0.03   0.01  -0.01    -0.04   0.22   0.21    -0.25  -0.10   0.06
    23   1     0.00   0.05   0.02     0.13  -0.32   0.07    -0.03   0.24  -0.02
    24   1    -0.03   0.01  -0.01     0.01  -0.22   0.01     0.04   0.22   0.04
    25   1     0.04  -0.03   0.02    -0.38   0.09  -0.01     0.03  -0.20   0.16
    26   1    -0.00  -0.00   0.01     0.08   0.03  -0.02     0.13   0.11   0.00
                     28                     29                     30
                      A                      A                      A
 Frequencies --   1067.5912              1085.2365              1107.3364
 Red. masses --      1.7297                 1.7464                 1.5558
 Frc consts  --      1.1615                 1.2119                 1.1240
 IR Inten    --     19.8016                 2.3911                 0.0255
  Atom  AN      X      Y      Z        X      Y      Z        X      Y      Z
     1   8     0.01   0.01  -0.01    -0.01   0.00   0.00     0.00  -0.01  -0.01
     2   6    -0.07  -0.10   0.06    -0.03  -0.03   0.01     0.03   0.00   0.02
     3   6    -0.04   0.00  -0.03    -0.02   0.03  -0.01    -0.12   0.06  -0.05
     4   6    -0.03  -0.01  -0.07     0.00  -0.01   0.01    -0.01   0.05  -0.08
     5   6     0.03  -0.01   0.03     0.01   0.01  -0.00     0.02  -0.04   0.01
     6   6     0.04   0.02   0.05    -0.00   0.00  -0.01     0.03  -0.01   0.06
     7   6    -0.01   0.05   0.06     0.12  -0.01  -0.01     0.06  -0.01   0.04
     8   6     0.07  -0.02  -0.04    -0.11  -0.10  -0.01    -0.04  -0.04  -0.03
     9   6    -0.08  -0.01   0.03    -0.01   0.14   0.01    -0.01   0.03   0.03
    10   6     0.07   0.07  -0.04     0.06  -0.05   0.01     0.02  -0.00   0.01
    11   1     0.29   0.17   0.03    -0.11   0.32  -0.02     0.07  -0.30  -0.03
    12   1    -0.26   0.02  -0.04     0.01  -0.01   0.01     0.02   0.07  -0.15
    13   1     0.04  -0.10   0.03    -0.03   0.01  -0.01     0.03  -0.01   0.02
    14   1    -0.05   0.03  -0.05    -0.03   0.02  -0.01     0.07  -0.06   0.05
    15   1     0.06  -0.12   0.02     0.02  -0.03   0.02     0.02  -0.02   0.02
    16   1    -0.11  -0.06   0.09     0.01  -0.00  -0.03    -0.11  -0.00   0.21
    17   1     0.03  -0.03  -0.22     0.00  -0.01   0.01    -0.00   0.06  -0.16
    18   1    -0.15  -0.01   0.17     0.01  -0.00   0.00    -0.10   0.02   0.03
    19   1    -0.11  -0.14   0.03     0.01   0.01  -0.02     0.44  -0.29   0.06
    20   1    -0.13   0.19  -0.16     0.31  -0.08  -0.01     0.02   0.05  -0.07
    21   1     0.04  -0.06  -0.04    -0.44  -0.31  -0.04     0.22   0.09  -0.00
    22   1     0.23   0.13   0.02    -0.20  -0.19  -0.05    -0.25  -0.18   0.01
    23   1    -0.14  -0.08  -0.22    -0.05   0.40   0.03    -0.02  -0.06  -0.04
    24   1     0.23  -0.20   0.03    -0.01   0.08   0.01     0.00   0.37   0.04
    25   1    -0.07   0.12  -0.06     0.01  -0.03   0.01     0.15  -0.05   0.02
    26   1     0.45  -0.10  -0.01     0.39  -0.14   0.05    -0.30   0.10  -0.02
                     31                     32                     33
                      A                      A                      A
 Frequencies --   1144.1034              1153.4368              1171.1740
 Red. masses --      1.8504                 1.7389                 2.2523
 Frc consts  --      1.4270                 1.3630                 1.8202
 IR Inten    --     12.1851                14.4522                 4.2847
  Atom  AN      X      Y      Z        X      Y      Z        X      Y      Z
     1   8    -0.00  -0.04  -0.01     0.02  -0.02   0.00     0.02   0.01   0.01
     2   6     0.12   0.11  -0.03    -0.06   0.01  -0.09    -0.11  -0.05  -0.05
     3   6    -0.03  -0.01   0.07     0.03   0.05   0.06     0.00  -0.10   0.09
     4   6    -0.07  -0.02  -0.10    -0.05  -0.08  -0.03     0.03   0.14  -0.11
     5   6     0.03  -0.02   0.02     0.03   0.04   0.01    -0.05  -0.10   0.04
     6   6     0.06   0.03   0.05     0.03   0.04   0.01    -0.00  -0.01   0.05
     7   6    -0.04  -0.02  -0.02     0.04  -0.02  -0.06    -0.01   0.04  -0.08
     8   6     0.02   0.04   0.02    -0.04  -0.03   0.05     0.04  -0.02   0.07
     9   6     0.03  -0.07   0.00     0.02   0.05  -0.07    -0.02   0.01  -0.08
    10   6    -0.09  -0.00  -0.02     0.04  -0.02   0.10     0.04   0.05   0.07
    11   1     0.07   0.29   0.08     0.15   0.20   0.08     0.07  -0.02   0.10
    12   1    -0.29   0.03  -0.11    -0.31  -0.06   0.03     0.26   0.18  -0.31
    13   1    -0.00  -0.06   0.01    -0.05  -0.10  -0.01     0.25  -0.02   0.11
    14   1    -0.02  -0.01   0.00    -0.16   0.09  -0.09     0.32  -0.16   0.10
    15   1     0.06  -0.11   0.04     0.08  -0.17   0.04    -0.15   0.26  -0.15
    16   1    -0.16  -0.08   0.14    -0.07  -0.08  -0.04    -0.03   0.03   0.14
    17   1     0.05  -0.03  -0.30     0.04  -0.07  -0.20    -0.02   0.06   0.04
    18   1    -0.19  -0.01   0.19    -0.12  -0.03   0.18    -0.03   0.01   0.03
    19   1    -0.12   0.12  -0.01     0.14   0.11  -0.04    -0.12   0.21  -0.08
    20   1     0.39  -0.23   0.12    -0.31   0.06   0.07     0.09  -0.06   0.07
    21   1    -0.06  -0.03   0.01    -0.08   0.11   0.04    -0.11   0.14   0.04
    22   1    -0.17  -0.10  -0.00     0.19   0.09  -0.06    -0.01  -0.16  -0.15
    23   1    -0.04   0.38   0.03     0.14  -0.34   0.14     0.02   0.02   0.07
    24   1     0.01  -0.22  -0.00    -0.21   0.21  -0.06    -0.12  -0.01  -0.08
    25   1     0.00  -0.07   0.05    -0.00   0.09  -0.12     0.27   0.07  -0.13
    26   1    -0.01   0.05  -0.00    -0.26  -0.13   0.04     0.04  -0.18   0.04
                     34                     35                     36
                      A                      A                      A
 Frequencies --   1221.5488              1243.4488              1273.5742
 Red. masses --      1.8335                 1.5148                 1.3760
 Frc consts  --      1.6120                 1.3799                 1.3149
 IR Inten    --      0.3486                13.6094                 0.9811
  Atom  AN      X      Y      Z        X      Y      Z        X      Y      Z
     1   8     0.02  -0.01  -0.01     0.04  -0.01  -0.01    -0.02   0.01   0.00
     2   6    -0.02  -0.02  -0.01    -0.10  -0.06  -0.03     0.04  -0.00   0.05
     3   6    -0.06   0.02  -0.00     0.03   0.04  -0.03    -0.04   0.04  -0.03
     4   6     0.13  -0.13  -0.07    -0.04   0.01   0.08     0.00  -0.02   0.01
     5   6    -0.05   0.08   0.07     0.03   0.01  -0.03     0.01   0.02   0.00
     6   6    -0.06   0.09   0.02     0.00  -0.04  -0.03    -0.01  -0.00  -0.00
     7   6    -0.03  -0.01   0.03    -0.03  -0.04   0.04    -0.02  -0.01  -0.05
     8   6     0.02   0.01  -0.01     0.02   0.04   0.01    -0.00   0.00   0.10
     9   6    -0.01  -0.02  -0.00     0.00  -0.04  -0.03     0.00  -0.01  -0.10
    10   6     0.00   0.03   0.01    -0.01   0.07   0.02    -0.02   0.01   0.01
    11   1    -0.03   0.08   0.00     0.32   0.33   0.02     0.22  -0.37   0.00
    12   1     0.33  -0.15  -0.09    -0.08  -0.06   0.26     0.06  -0.05   0.07
    13   1     0.15  -0.26   0.10    -0.10   0.08  -0.06    -0.01  -0.02  -0.00
    14   1    -0.13   0.23  -0.30    -0.06  -0.01   0.05    -0.04   0.03  -0.03
    15   1    -0.04  -0.02  -0.22     0.05  -0.04   0.10     0.02  -0.03   0.01
    16   1     0.10  -0.06  -0.34     0.02   0.03   0.04     0.02   0.00  -0.02
    17   1     0.02  -0.18   0.17    -0.02   0.05   0.00    -0.01   0.01  -0.01
    18   1     0.04  -0.09   0.34     0.05   0.03  -0.19     0.01   0.00  -0.02
    19   1     0.02  -0.07   0.03     0.07  -0.07   0.05     0.38  -0.04  -0.01
    20   1     0.14  -0.07   0.02     0.07  -0.07   0.03    -0.09  -0.03   0.07
    21   1     0.12   0.07   0.00     0.22   0.16   0.03     0.02   0.27   0.10
    22   1    -0.15  -0.12  -0.01    -0.33  -0.23  -0.01    -0.05  -0.13  -0.11
    23   1    -0.03   0.11  -0.01    -0.02   0.22   0.03     0.02   0.19   0.08
    24   1     0.01   0.01  -0.00    -0.03  -0.02  -0.03    -0.14  -0.24  -0.11
    25   1     0.22  -0.01  -0.02     0.50  -0.04  -0.06    -0.30   0.11  -0.03
    26   1    -0.07   0.01  -0.01    -0.02  -0.05   0.01     0.46  -0.21   0.04
                     37                     38                     39
                      A                      A                      A
 Frequencies --   1292.0137              1320.3293              1344.5026
 Red. masses --      1.2741                 1.1951                 1.5357
 Frc consts  --      1.2531                 1.2275                 1.6356
 IR Inten    --      0.4825                 0.5888                14.6680
  Atom  AN      X      Y      Z        X      Y      Z        X      Y      Z
     1   8     0.01  -0.00  -0.01     0.00  -0.00  -0.00     0.00  -0.02  -0.00
     2   6    -0.02  -0.04   0.02    -0.02  -0.01  -0.01     0.03   0.05  -0.02
     3   6     0.00   0.02  -0.00    -0.06   0.04   0.03    -0.09  -0.09  -0.02
     4   6    -0.01  -0.01  -0.01    -0.02   0.01   0.00     0.12   0.04  -0.02
     5   6    -0.00  -0.00   0.00     0.01   0.03   0.00    -0.03  -0.01   0.01
     6   6     0.01   0.01   0.01    -0.00  -0.02  -0.01    -0.05  -0.04  -0.00
     7   6     0.06  -0.03  -0.04    -0.02   0.01  -0.07    -0.02   0.04  -0.01
     8   6    -0.04   0.03   0.05     0.01  -0.02  -0.00    -0.02  -0.03   0.03
     9   6     0.04  -0.01   0.04    -0.01   0.02   0.05     0.01  -0.01   0.01
    10   6    -0.05   0.04  -0.05     0.03  -0.01  -0.01     0.01  -0.01   0.00
    11   1    -0.15  -0.19  -0.03     0.57  -0.34   0.11     0.23   0.47   0.04
    12   1     0.00   0.03  -0.11     0.20  -0.13   0.25    -0.34  -0.03   0.32
    13   1     0.00  -0.01   0.00     0.00  -0.05   0.01     0.09   0.03   0.03
    14   1     0.01  -0.00   0.00    -0.06   0.04  -0.02     0.08  -0.01  -0.03
    15   1     0.00  -0.01  -0.01     0.04  -0.07   0.04    -0.05   0.07  -0.05
    16   1    -0.01  -0.02  -0.01     0.02   0.01   0.01     0.11   0.09   0.01
    17   1     0.01  -0.01  -0.04    -0.01   0.03   0.01    -0.05   0.05   0.11
    18   1    -0.03  -0.00   0.05     0.02   0.01  -0.08     0.13  -0.01  -0.11
    19   1     0.18   0.04  -0.03    -0.10   0.18  -0.06     0.40  -0.19   0.02
    20   1    -0.45   0.14   0.01     0.28  -0.16   0.07    -0.10   0.08  -0.02
    21   1    -0.27  -0.12   0.03    -0.22  -0.19  -0.03    -0.11   0.00   0.02
    22   1     0.13   0.16   0.05     0.17   0.09  -0.03     0.24   0.17   0.02
    23   1    -0.01   0.28   0.04    -0.03  -0.03  -0.04    -0.01   0.14   0.02
    24   1     0.11  -0.35   0.04     0.11  -0.07   0.05     0.03  -0.06   0.01
    25   1     0.48  -0.18   0.07     0.04  -0.02   0.00    -0.04   0.02  -0.02
    26   1    -0.07   0.13  -0.04    -0.25   0.13  -0.03    -0.14   0.08  -0.01
                     40                     41                     42
                      A                      A                      A
 Frequencies --   1357.3541              1379.4416              1384.3533
 Red. masses --      1.3782                 1.3952                 1.4126
 Frc consts  --      1.4961                 1.5642                 1.5950
 IR Inten    --      3.5331                 7.5740                 5.9970
  Atom  AN      X      Y      Z        X      Y      Z        X      Y      Z
     1   8    -0.01   0.01   0.01    -0.00  -0.01  -0.00    -0.00   0.01   0.01
     2   6    -0.03  -0.01  -0.02     0.04   0.02   0.01    -0.01  -0.01  -0.01
     3   6     0.02   0.02   0.00    -0.04   0.00   0.02     0.06  -0.05  -0.00
     4   6     0.01  -0.01   0.01     0.03   0.03  -0.09    -0.10   0.05  -0.09
     5   6    -0.00  -0.01  -0.01    -0.01   0.02   0.02     0.02   0.05   0.03
     6   6     0.00   0.01  -0.00    -0.01  -0.04  -0.02     0.03  -0.03  -0.00
     7   6     0.02  -0.03   0.01     0.08  -0.05   0.01    -0.01   0.02   0.02
     8   6     0.02   0.02   0.03     0.05   0.05  -0.00    -0.05  -0.03   0.00
     9   6    -0.06   0.02  -0.00    -0.02   0.05  -0.01     0.01  -0.03  -0.01
    10   6     0.15  -0.04  -0.01    -0.03  -0.01  -0.00     0.03  -0.00  -0.00
    11   1    -0.08   0.01  -0.01    -0.05  -0.07   0.01    -0.28   0.15  -0.05
    12   1    -0.11   0.06  -0.10    -0.13  -0.18   0.49     0.54  -0.29   0.43
    13   1    -0.01   0.03  -0.01     0.08  -0.08   0.04     0.02  -0.19   0.03
    14   1     0.01  -0.02   0.01     0.05   0.03  -0.03    -0.03   0.06  -0.00
    15   1    -0.01   0.03  -0.00     0.02  -0.09  -0.02     0.08  -0.18   0.00
    16   1    -0.00  -0.00  -0.01    -0.02   0.07   0.15    -0.09  -0.01   0.14
    17   1     0.01  -0.02   0.00    -0.02   0.05   0.16    -0.01   0.09   0.03
    18   1     0.00  -0.01   0.02     0.01  -0.04  -0.01    -0.11   0.00  -0.01
    19   1    -0.05   0.01   0.01    -0.35   0.13  -0.02     0.11  -0.09   0.02
    20   1    -0.11   0.02   0.02    -0.34   0.10   0.00    -0.01   0.04  -0.03
    21   1     0.06   0.15   0.04    -0.04  -0.06  -0.01     0.12   0.15   0.02
    22   1    -0.24  -0.19  -0.01    -0.35  -0.26  -0.03     0.14   0.14   0.05
    23   1    -0.12   0.29  -0.06     0.03  -0.28  -0.04    -0.02   0.23   0.02
    24   1     0.12  -0.47  -0.01    -0.02  -0.13  -0.02    -0.00  -0.00  -0.00
    25   1    -0.37   0.15  -0.07     0.03  -0.05   0.04    -0.08   0.04  -0.02
    26   1    -0.49   0.23  -0.07     0.08  -0.05   0.01    -0.06   0.04  -0.01
                     43                     44                     45
                      A                      A                      A
 Frequencies --   1388.0335              1399.1357              1417.9065
 Red. masses --      1.4471                 1.4788                 1.4287
 Frc consts  --      1.6426                 1.7056                 1.6923
 IR Inten    --      5.0927                 1.7269                 3.2574
  Atom  AN      X      Y      Z        X      Y      Z        X      Y      Z
     1   8    -0.00   0.00  -0.00    -0.00   0.01   0.00    -0.01  -0.00   0.00
     2   6    -0.01  -0.02   0.01    -0.01  -0.02  -0.00     0.05   0.04  -0.01
     3   6    -0.04   0.03   0.02     0.02   0.01  -0.00    -0.08  -0.10  -0.03
     4   6     0.04   0.00  -0.01    -0.01   0.00  -0.01    -0.05   0.00   0.06
     5   6    -0.02  -0.00  -0.01     0.00   0.00   0.01     0.01   0.01  -0.01
     6   6    -0.01  -0.00  -0.02     0.00  -0.00   0.01    -0.01   0.02   0.05
     7   6     0.09  -0.03   0.00    -0.03  -0.03  -0.02     0.08  -0.01   0.01
     8   6    -0.09  -0.01  -0.03     0.10   0.11   0.01    -0.00   0.02  -0.00
     9   6     0.03  -0.11  -0.01    -0.02  -0.12   0.01     0.00  -0.01  -0.00
    10   6     0.02   0.03   0.01     0.05   0.02   0.02    -0.01  -0.01   0.01
    11   1     0.11  -0.19   0.04    -0.08  -0.01  -0.02     0.37   0.28   0.04
    12   1    -0.22   0.03   0.05     0.02  -0.03   0.05     0.50   0.03  -0.23
    13   1     0.06   0.00   0.01    -0.02  -0.01  -0.00    -0.02  -0.02  -0.01
    14   1     0.07  -0.02   0.02    -0.01   0.01  -0.02    -0.06  -0.00   0.04
    15   1    -0.01  -0.02   0.02     0.00  -0.01  -0.02     0.02  -0.00   0.06
    16   1    -0.02   0.03   0.04     0.01  -0.01  -0.01     0.09  -0.10  -0.23
    17   1     0.01  -0.03   0.09    -0.01   0.02  -0.03     0.00  -0.07  -0.28
    18   1     0.03  -0.03   0.03    -0.01   0.01  -0.02     0.08   0.11  -0.18
    19   1    -0.45   0.22  -0.04     0.23  -0.00   0.00    -0.21   0.02  -0.02
    20   1    -0.08   0.06  -0.04    -0.19   0.02   0.01    -0.36   0.15  -0.01
    21   1     0.29   0.14   0.02    -0.50  -0.40  -0.05     0.01   0.01   0.00
    22   1     0.14   0.21   0.07    -0.17  -0.09   0.02    -0.10  -0.04   0.02
    23   1    -0.06   0.49   0.02    -0.09   0.19  -0.04    -0.01   0.01  -0.02
    24   1    -0.10   0.35  -0.00    -0.04   0.54   0.02    -0.05   0.01  -0.01
    25   1    -0.10   0.09  -0.05    -0.22   0.11  -0.01    -0.07   0.02  -0.03
    26   1     0.03  -0.03   0.00    -0.04  -0.09  -0.00    -0.00   0.02   0.01
                     46                     47                     48
                      A                      A                      A
 Frequencies --   1426.3118              1447.2175              1498.3379
 Red. masses --      1.2830                 1.2530                 1.0906
 Frc consts  --      1.5378                 1.5462                 1.4425
 IR Inten    --      8.8124                11.0236                 6.2274
  Atom  AN      X      Y      Z        X      Y      Z        X      Y      Z
     1   8    -0.00  -0.00   0.00     0.00  -0.01  -0.00    -0.00   0.00   0.00
     2   6     0.01   0.01  -0.00     0.01   0.02   0.00    -0.00   0.00  -0.01
     3   6    -0.02  -0.02  -0.02    -0.03  -0.03  -0.01    -0.00  -0.01   0.00
     4   6    -0.00  -0.02   0.06    -0.02   0.00   0.03    -0.00   0.00   0.00
     5   6    -0.06   0.07  -0.07     0.06  -0.06   0.04     0.00  -0.00  -0.00
     6   6     0.02   0.02  -0.08     0.03   0.01  -0.10     0.00   0.00  -0.00
     7   6    -0.00   0.00  -0.00     0.02   0.00  -0.00     0.00   0.00   0.00
     8   6     0.01   0.01   0.00     0.00   0.00   0.00    -0.02   0.00   0.01
     9   6    -0.00  -0.00   0.00     0.00  -0.01   0.00    -0.00   0.01  -0.01
    10   6    -0.00  -0.00   0.00    -0.00  -0.00   0.00     0.03   0.06  -0.04
    11   1     0.14   0.10   0.01     0.17   0.08   0.02     0.03   0.05   0.01
    12   1     0.08   0.07  -0.20     0.16   0.02  -0.09     0.02   0.00  -0.01
    13   1     0.30  -0.28   0.03    -0.26   0.24  -0.05    -0.00   0.00  -0.00
    14   1     0.27  -0.14   0.35    -0.30   0.09  -0.23    -0.01   0.00   0.00
    15   1     0.09  -0.33   0.28    -0.07   0.32  -0.15    -0.00   0.01   0.00
    16   1    -0.17   0.08   0.22    -0.21   0.10   0.29    -0.01  -0.00   0.01
    17   1     0.04   0.00   0.31     0.04   0.07   0.39     0.00  -0.01   0.01
    18   1    -0.11  -0.15   0.31    -0.19  -0.17   0.35     0.00  -0.00   0.01
    19   1     0.07  -0.05   0.00    -0.01  -0.02  -0.01     0.00   0.02   0.00
    20   1    -0.05   0.01   0.01    -0.10   0.03   0.01     0.00   0.01  -0.02
    21   1    -0.05  -0.04  -0.00    -0.02  -0.01   0.00     0.12  -0.09   0.02
    22   1    -0.02  -0.02  -0.01    -0.00   0.00   0.00     0.05  -0.02  -0.14
    23   1    -0.00  -0.02  -0.01    -0.00   0.01  -0.01     0.02   0.02   0.07
    24   1    -0.00   0.00   0.00    -0.01   0.02  -0.00     0.08  -0.03  -0.00
    25   1    -0.01   0.00  -0.01    -0.01   0.01  -0.02    -0.12  -0.24   0.63
    26   1    -0.00   0.01   0.00    -0.00   0.02   0.01    -0.24  -0.62  -0.12
                     49                     50                     51
                      A                      A                      A
 Frequencies --   1518.6371              1519.2556              1519.8905
 Red. masses --      1.0715                 1.0715                 1.0724
 Frc consts  --      1.4560                 1.4572                 1.4596
 IR Inten    --      3.3196                 2.5061                 4.6884
  Atom  AN      X      Y      Z        X      Y      Z        X      Y      Z
     1   8    -0.00  -0.00  -0.00    -0.00  -0.00  -0.00    -0.00  -0.00   0.00
     2   6     0.01   0.01   0.00     0.00   0.00  -0.00     0.01   0.00   0.00
     3   6    -0.01  -0.01  -0.00    -0.01   0.00   0.00    -0.01  -0.01  -0.00
     4   6    -0.00   0.00  -0.01     0.00  -0.00   0.01     0.00  -0.00   0.01
[...]
 00009948,-0.11009073,0.00087188,0.10860640,-0.01117811,0.00160623,0.01
 727829,0.00047669,-0.00119685,-0.00034923,-0.00003064,0.00000633,-0.00
 018984,-0.00258795,0.00018873,-0.00439703,-0.00003199,0.00016390,0.000
 01855,0.00000194,-0.00005095,0.00014937,0.00001712,-0.00000337,0.00000
 595,-0.00005114,0.00005534,0.00010565,-0.00107067,0.00100470,-0.000241
 82,0.00002805,-0.00002332,-0.00001683,-0.00010715,-0.00003061,-0.00002
 961,0.12196361,0.00027413,0.00006551,0.00014156,0.00015490,-0.00013960
 ,-0.00082885,-0.00064913,-0.00005686,0.00045800,-0.00058793,0.00008549
 ,0.00039039,0.00016695,-0.00000495,-0.00007621,0.00071287,-0.00011573,
 0.00064147,0.00078160,-0.05155023,-0.00658048,0.01523017,-0.00247614,-
 0.02555064,0.00058657,0.00179440,-0.00117048,-0.00020700,-0.00014451,0
 .00015893,0.00053341,0.00068818,0.00000359,0.00005264,0.00004595,0.000
 05048,-0.00001514,-0.00000892,-0.00010701,-0.00000758,0.00002189,-0.00
 001472,0.00000731,-0.00002770,0.00001729,0.00098452,-0.00070705,-0.000
 26653,-0.00016632,-0.00003564,-0.00015826,-0.00010791,0.00008301,-0.00
 009707,-0.00682802,0.05444513,-0.00155781,-0.00036940,0.00035334,0.002
 70120,0.00197469,-0.00045186,0.00960102,-0.00154037,-0.02245315,0.0010
 1761,-0.00091415,-0.00010186,-0.00019351,0.00018069,0.00003104,-0.0000
 5156,-0.00045632,-0.00071932,0.10855704,-0.00626139,-0.24168311,0.0007
 2694,-0.00006086,-0.00058489,-0.00025526,0.00037475,-0.00002866,-0.000
 07572,-0.00040931,-0.00031628,-0.00385064,-0.00024356,-0.00315108,-0.0
 0011680,0.00007677,-0.00000473,-0.00004861,-0.00000893,0.00030236,0.00
 001311,-0.00003075,-0.00000439,-0.00013374,0.00012716,-0.00001983,0.00
 034371,0.00028730,0.00125466,0.00015991,-0.00006920,0.00057312,-0.0000
 3152,-0.00003155,0.00002091,-0.11744709,0.00783357,0.26497387,-0.00178
 635,-0.00142238,0.00074917,-0.00020628,0.00427517,-0.00396638,-0.01512
 687,-0.01788099,-0.00222313,-0.00000005,-0.00206752,0.00051025,0.00036
 918,0.00033054,-0.00010434,-0.00013079,0.00041731,0.00002260,-0.139741
 71,-0.12390731,0.00970948,0.01278893,0.01696443,-0.00096239,-0.0023092
 6,0.00269903,0.00018675,-0.00003385,0.00000680,0.00066434,0.00131751,0
 .00065069,0.00038595,0.00021560,0.00129874,-0.00030780,-0.00001621,-0.
 00003443,0.00004460,0.00020729,-0.00009752,0.00026893,-0.00001018,0.00
 005429,-0.00000667,-0.00013360,-0.00014925,0.00014081,-0.00003781,0.00
 007910,0.00001176,0.00029357,-0.00007766,-0.00004377,-0.00982604,-0.01
 305789,0.00093828,0.15174808,-0.00024476,0.00028259,-0.00017167,0.0011
 9814,0.00026342,0.00009721,0.00059702,0.00091780,0.00001393,0.00096901
 ,0.00053667,0.00047735,0.00006090,0.00031074,-0.00009678,-0.00015023,0
 .00008683,0.00001227,-0.12308860,-0.21366178,0.00909454,-0.01720538,-0
 .02204599,0.00165389,0.00567727,-0.00367326,-0.00045454,0.00023546,0.0
 0069252,0.00031242,-0.00000045,0.00006191,-0.00042523,-0.00007178,0.00
 052000,0.00008350,-0.00000142,-0.00002028,-0.00002189,0.00013081,-0.00
 001123,0.00005816,-0.00003445,0.00002237,-0.00004735,-0.00009535,-0.00
 003566,-0.00000786,-0.00003020,0.00002149,-0.00001590,0.00003629,-0.00
 000508,0.00002134,0.00088197,0.00143269,0.00049263,0.13243390,0.233690
 32,-0.00240178,-0.00186624,0.00108321,-0.00138166,0.00417394,-0.004428
 66,-0.01837737,-0.02171624,-0.00233220,0.00034117,-0.00125899,0.000866
 10,0.00025412,-0.00010504,-0.00007870,0.00003552,0.00006265,0.00006252
 ,0.00967422,0.00955539,-0.04994431,-0.00059828,-0.00202722,-0.00081478
 ,0.00004177,-0.00022447,0.00036034,0.00034982,0.00013210,0.00044857,0.
 00085884,-0.00030597,0.00143411,0.00024778,0.00071660,0.00008349,-0.00
 001956,-0.00002748,-0.00003850,0.00012095,-0.00005309,0.00012840,0.000
 05802,0.00002544,0.00004055,0.00000922,0.00012995,-0.00003977,0.000003
 22,-0.00001794,0.00008406,0.00001458,-0.00005014,-0.00018144,0.0172007
 3,0.02413079,-0.00088539,-0.00590866,-0.01100212,0.05297473,0.00021781
 ,0.00001203,0.00007611,-0.00039218,-0.00006406,-0.00005598,0.00052055,
 -0.00062863,0.00149231,0.00018904,0.00015657,-0.00018630,-0.00001310,-
 0.00000739,-0.00000015,0.00005178,-0.00002511,0.00016820,-0.01093477,0
 .00092086,0.01571441,-0.12551099,0.00008716,0.11179949,-0.01144339,-0.
 00076143,0.01691309,0.00057640,0.00077969,0.00109502,-0.00011853,0.000
 18151,-0.00094895,-0.00000833,-0.00002656,0.00002812,0.00000348,0.0000
 1128,-0.00005772,-0.00000594,0.00000471,-0.00000287,0.00001043,-0.0000
 1646,-0.00000804,-0.00001549,-0.00005888,-0.00018277,-0.00001577,-0.00
 000173,-0.00010737,-0.00000769,0.00000586,-0.00000876,-0.00124929,0.00
 325250,-0.00004874,0.00082710,-0.00010919,-0.00052042,0.13517617,-0.00
 005478,0.00021464,-0.00000264,0.00001928,-0.00058788,-0.00002074,-0.00
 093246,0.00107625,-0.00113868,-0.00020820,-0.00008959,-0.00005328,-0.0
 0003307,0.00000733,0.00002357,-0.00004867,-0.00011176,-0.00021339,0.01
 723714,-0.00155198,-0.02550440,0.00007038,-0.04813947,-0.00028112,-0.0
 1666390,-0.00142694,0.02533089,0.00099585,0.00102394,0.00061062,-0.000
 10182,0.00011200,0.00083384,-0.00000436,-0.00002567,-0.00003059,0.0000
 0359,0.00000087,0.00004140,0.00000451,-0.00000150,0.00000602,0.0000032
 5,0.00000498,-0.00000186,0.00001371,0.00008869,0.00026065,0.00006954,-
 0.00001211,0.00012369,0.00002857,-0.00000652,0.00001938,0.00386890,-0.
 00462543,0.00020787,-0.00080372,0.00109740,-0.00005608,-0.00017067,0.0
 5670527,0.00012887,-0.00003141,-0.00012738,-0.00028736,0.00003873,0.00
 019546,-0.00047597,0.00033733,0.00076151,-0.00000208,0.00000426,0.0003
 0798,0.00004225,-0.00005752,-0.00004240,-0.00010624,0.00009994,-0.0001
 0438,0.00043850,-0.00067926,-0.00188606,0.11251506,-0.00030495,-0.2256
 1390,-0.00001133,0.00066457,-0.00122723,-0.00032463,-0.00023511,0.0008
 5160,0.00035291,-0.00001883,0.00061295,0.00000219,-0.00001607,-0.00002
 581,-0.00000874,0.00000365,0.00002094,-0.00000593,0.00000802,-0.000001
 85,0.00002224,-0.00001891,0.00002615,0.00001854,0.00002194,0.00004477,
 -0.00002148,-0.00001038,0.00003455,-0.00000530,0.00000246,0.00001362,-
 0.00026496,-0.00052585,0.00144756,-0.00006090,-0.00056038,0.00023121,-
 0.12608210,0.00033857,0.24362559,-0.00048464,0.00008410,0.00004278,0.0
 0116466,-0.00010906,0.00033436,-0.00090641,0.00327041,0.00160798,-0.00
 040004,-0.00056274,-0.00101264,-0.00016768,0.00039390,0.00016658,0.000
 00619,-0.00000238,-0.00013761,-0.01200639,0.00055778,-0.01408651,-0.15
 182082,0.00323806,-0.12494052,-0.01269060,0.00034331,-0.01503939,-0.00
 147206,-0.00365772,0.00135801,0.00024075,-0.00000337,-0.00015919,0.000
 03451,0.00003907,0.00001144,0.00002812,-0.00001376,0.00000029,0.000011
 02,-0.00002971,0.00000670,-0.00009431,0.00005434,-0.00013753,0.0000296
 1,-0.00000468,0.00005609,-0.00002037,0.00003617,0.00004091,0.00000900,
 -0.00001944,-0.00000566,0.00018817,-0.00063070,0.00024233,0.00076827,0
 .00001882,0.00024616,0.01272417,-0.00037584,0.01403827,0.16432298,-0.0
 0000056,0.00092606,-0.00000637,-0.00002417,-0.00234948,0.00008372,0.00
 291445,-0.00472451,-0.00172481,0.00113165,0.00079534,0.00137671,0.0001
 9533,-0.00060246,-0.00020077,-0.00006122,-0.00005695,0.00016330,0.0183
 9175,-0.00067122,0.02358017,0.00328698,-0.04786909,0.00395334,-0.01781
 352,0.00081993,-0.02308238,-0.00339192,-0.00455846,0.00140415,-0.00042
 532,-0.00001868,-0.00034900,-0.00008126,0.00005616,-0.00000011,-0.0000
 3532,0.00001500,-0.00000263,0.00003233,0.00001243,0.00001612,0.0001489
 0,-0.00005955,0.00020411,-0.00001456,0.00001481,-0.00005182,0.00005809
 ,-0.00003292,-0.00005809,0.00003539,-0.00000844,-0.00002890,-0.0005880
 6,0.00114542,-0.00039527,-0.00083311,0.00082478,0.00026027,-0.00005889
 ,-0.00040165,-0.00003211,-0.00337994,0.05460422,-0.00006286,0.00000668
 ,-0.00009746,0.00024979,-0.00002891,0.00011015,0.00048086,0.00031252,0
 .00089150,-0.00009423,-0.00036456,0.00021373,0.00000684,0.00002251,0.0
 0003737,-0.00004724,0.00013487,-0.00004181,0.00251075,-0.00011247,0.00
 162750,-0.12589357,0.00387430,-0.20623732,0.00212311,0.00009262,0.0011
 0308,0.00033593,-0.00046331,0.00119808,0.00007102,-0.00008205,0.000522
 06,0.00001199,0.00001239,-0.00000710,0.00000293,-0.00001321,-0.0000019
 9,0.00000015,-0.00000634,-0.00000092,-0.00000982,0.00001339,-0.0000116
 6,0.00001283,-0.00002314,-0.00001546,-0.00004388,0.00002926,0.00002618
 ,0.00000276,-0.00001019,-0.00000071,-0.00015532,0.00038427,0.00079384,
 -0.00005634,0.00051649,0.00000872,-0.01731476,0.00051205,-0.02163381,0
 .13807704,-0.00424410,0.22019631,-0.00184808,0.00166456,0.00077227,-0.
 00043826,-0.00454760,-0.00390500,-0.00014568,0.00002844,0.00057180,0.0
 0015532,-0.00001795,0.00017905,-0.00000352,-0.00004421,-0.00000888,-0.
 00008621,0.00000425,-0.00001509,-0.00270611,-0.00265565,0.00013241,0.0
 1299971,-0.01836920,-0.00184385,-0.12888424,0.12014150,0.01430133,-0.0
 1330566,0.01959749,-0.00063957,-0.00003372,-0.00002440,0.00001156,0.00
 001544,0.00015722,-0.00002826,0.00000863,-0.00000195,-0.00000220,0.000
 05149,-0.00002857,0.00005169,0.00001359,0.00002915,0.00001360,0.000000
 45,0.00000352,0.00003926,0.00001794,0.00004925,0.00001253,0.00009834,-
 0.00005839,-0.00005173,-0.00001657,-0.00002555,-0.00018989,0.00077621,
 -0.00119697,0.00002729,0.00088016,0.00080893,-0.00002653,0.00074793,0.
 00087296,-0.00007623,0.13918108,0.00012023,0.00004299,0.00011773,-0.00
 045854,0.00073480,-0.00011812,-0.00031813,0.00064443,-0.00019670,0.000
 05129,0.00011669,0.00007754,0.00004106,-0.00004653,-0.00005585,-0.0000
 0860,-0.00003079,0.00000166,-0.00571918,-0.00331702,0.00026052,0.01582
 902,-0.02178020,-0.00253906,0.11893984,-0.22676366,-0.01798579,-0.0002
 4540,0.00115088,0.00002528,0.00001636,-0.00002847,0.00005163,-0.000011
 36,0.00009451,-0.00003765,-0.00001383,0.00000426,0.00000792,0.00001816
 ,0.00001218,0.00000724,0.00002981,-0.00002824,0.00003021,-0.00002425,0
 .00002144,0.00005546,0.00003147,-0.00003147,0.00000291,0.00001773,0.00
 000177,0.00000392,-0.00009241,0.00036236,-0.00009160,0.00110642,-0.001
 64417,-0.00000940,0.00014464,0.00106288,0.00058604,-0.00003431,0.00077
 076,-0.00049208,-0.12866721,0.24627089,-0.00254495,0.00187701,0.001021
 64,-0.00151600,-0.00383727,-0.00432224,0.00015984,-0.00011667,0.000424
 52,0.00013459,-0.00000181,0.00008527,-0.00002163,-0.00002501,0.0000070
 2,-0.00006785,-0.00001251,-0.00002070,-0.00002582,0.00010527,0.0003869
 3,0.00002865,0.00160591,-0.00090210,0.01442463,-0.01886444,-0.05156759
 ,-0.01597239,0.02377820,-0.00084639,-0.00003206,-0.00002222,0.00000408
 ,0.00001193,0.00009593,0.00000543,0.00000864,-0.00000025,0.00000126,0.
 00003273,-0.00002198,0.00003736,0.00000966,0.00002192,0.00000264,0.000
 02441,0.00003347,0.00003484,0.00001410,0.00002047,0.00002720,0.0000424
 5,-0.00003012,-0.00006163,-0.00029097,0.00040430,0.00029359,0.00004593
 ,-0.00000885,0.00055795,-0.00049299,0.00012477,0.00026451,0.00021983,-
 0.00023584,-0.00004185,-0.01185313,0.02014254,0.05450892,-0.00011223,-
 0.00028677,0.00033819,0.00167776,-0.00076657,-0.00048322,0.00003423,0.
 00002476,-0.00023563,0.00006364,0.00003868,0.00003202,0.00001598,-0.00
 002823,-0.00000921,0.00001811,-0.00000997,0.00001175,0.00040733,0.0012
 6751,-0.00028119,-0.01183681,-0.00171541,0.01857280,-0.10789890,-0.002
 88794,0.10740087,0.01034902,0.00120443,-0.02221971,-0.00014222,0.00000
 230,-0.00002582,0.00000016,0.00002567,0.00000360,-0.00000988,-0.000005
 78,0.00000282,0.00000679,-0.00000242,-0.00000589,0.00000752,-0.0000044
 9,0.00001611,-0.00000879,0.00000560,0.00001335,0.00000560,-0.00001188,
 0.00000020,-0.00000322,0.00000926,0.00000360,0.00069309,-0.00045395,-0
 .00028894,-0.00000395,0.00010237,-0.00028578,-0.00159696,-0.00412680,-
 0.00035921,0.00027958,0.00061871,-0.00016430,-0.00908096,-0.00097097,0
 .01618290,0.11879733,-0.00011417,0.00014784,-0.00018181,-0.00042486,-0
 .00022559,0.00076775,0.00021889,-0.00015178,-0.00012082,0.00003229,0.0
 0000267,0.00003702,-0.00000177,-0.00001346,-0.00000324,-0.00000285,-0.
 00000441,0.00003105,-0.00058093,0.00174502,0.00120340,-0.01450157,-0.0
 0250006,0.02497207,-0.00241573,-0.05277239,0.00916292,-0.00047477,-0.0
 0018654,0.00066814,-0.00004700,0.00009993,-0.00020577,0.00000407,0.000
 01182,0.00000416,0.00000329,0.00000011,-0.00001073,0.00001149,-0.00000
 813,0.00001392,0.00000186,0.00000820,0.00000224,-0.00000722,-0.0000288
 1,-0.00002655,-0.00000228,0.00001876,-0.00002115,0.00002266,-0.0000075
 7,0.00000030,0.00043535,-0.00036218,-0.00060988,0.00006874,0.00033234,
 -0.00039236,-0.00339155,-0.00442578,0.00033116,0.00068552,0.00113324,-
 0.00038317,0.01311726,0.00185868,-0.02486098,0.00737387,0.05414033,-0.
 00139161,0.00038777,0.00039731,0.00228905,-0.00178567,-0.00055646,-0.0
 0004648,0.00037655,-0.00026969,0.00010261,-0.00001147,-0.00002999,-0.0
 0001664,0.00001385,0.00000693,-0.00001265,0.00001753,-0.00005018,-0.00
 029648,-0.00026152,-0.00005999,0.00032742,0.00002286,0.00019483,0.1071
 6972,0.00918954,-0.24274270,0.00923237,0.00168843,-0.02237124,-0.00003
 442,-0.00005158,0.00015345,-0.00002008,0.00005373,0.00001474,-0.000006
 35,-0.00001200,0.00002491,0.00002363,-0.00001728,0.00000176,-0.0000065
 3,0.00002577,-0.00000627,0.00002599,0.00003356,0.00004076,-0.00001327,
 -0.00000265,0.00003384,-0.00002408,-0.00000105,-0.00002715,-0.00025904
 ,0.00060942,0.00022210,-0.00018230,0.00009982,0.00028934,-0.00016156,-
 0.00032318,0.00153440,0.00026999,0.00040918,0.00083100,0.00157911,-0.0
 0063354,-0.00208758,-0.11457539,-0.01001889,0.26633776,0.00186988,-0.0
 0097602,0.00000223,0.01108762,0.01517630,-0.00149821,-0.00199979,0.002
 52961,0.00020200,0.00074948,0.00060455,0.00005624,0.00006503,-0.000043
 21,0.00007875,0.00005693,-0.00004561,-0.00008558,-0.00022719,0.0002969
 4,-0.00001695,-0.00195413,0.00187850,-0.00426661,-0.01268399,-0.015858
 90,0.00292137,-0.16332693,-0.13485228,0.01362640,-0.00006487,-0.000006
 53,-0.00007448,-0.00009196,0.00033487,-0.00001842,-0.00000298,0.000001
 42,-0.00001324,-0.00000572,-0.00001723,-0.00001408,-0.00000454,-0.0000
 1056,-0.00000094,-0.00000660,0.00000987,0.00003539,-0.00001095,-0.0000
 1160,0.00001228,-0.00000952,-0.00001763,0.00001818,0.00006617,-0.00005
 688,0.00000930,0.00007422,-0.00009519,0.00004095,0.00033447,0.00038351
 ,0.00003955,-0.00066651,-0.00137977,-0.00015184,0.00009707,0.00031291,
 0.00053980,0.00117010,0.00023873,0.00004601,0.17487637,-0.00011554,0.0
 0619123,-0.00047199,-0.02301974,-0.02670324,0.00291162,0.00525153,-0.0
 0356556,-0.00036766,-0.00176979,-0.00056268,-0.00019367,-0.00010651,0.
 00001901,-0.00018585,-0.00008580,-0.00006024,0.00017699,0.00044155,0.0
 0024795,0.00041586,0.00066196,0.00075567,0.00046506,0.00251324,0.00323
 053,-0.00108754,-0.12991381,-0.20180937,0.01509825,0.00017505,0.000514
 65,0.00013886,0.00026235,-0.00065480,0.00000211,0.00000143,0.00001394,
 0.00001020,0.00007277,0.00001700,0.00007742,0.00007107,-0.00001445,0.0
 0005526,-0.00000078,0.00001244,-0.00002568,0.00008774,-0.00001897,-0.0
 0006589,0.00007138,0.00001446,-0.00006691,-0.00005118,-0.00000507,-0.0
 0011913,-0.00010075,-0.00000036,-0.00008231,-0.00003408,-0.00007440,0.
 00005205,0.00012618,0.00025455,0.00018838,-0.00023981,0.00034452,-0.00
 046327,-0.00009529,0.00016654,-0.00039725,0.14283407,0.21842490,-0.000
 53190,0.00030251,-0.00127487,0.00043139,-0.00211820,-0.00054033,0.0003
 0474,0.00053639,0.00106785,-0.00001328,-0.00005567,0.00042397,0.000032
 55,-0.00002126,-0.00001323,-0.00003945,0.00007613,-0.00004599,-0.00013
 795,0.00064186,-0.00011233,-0.00290609,0.00147159,-0.00405579,-0.01595
 544,-0.02069060,0.00228736,0.01336083,0.01543307,-0.05213483,-0.000488
 53,-0.00023449,0.00030244,0.00000989,0.00003035,-0.00003248,0.00000306
 ,-0.00000778,0.00000685,0.00000456,-0.00001399,0.00001691,-0.00000135,
 0.00000495,0.00001026,-0.00000038,-0.00000050,0.00001939,-0.00001695,0
 .00000996,0.00002909,0.00001523,-0.00000584,0.00000562,0.00004137,-0.0
 0002658,-0.00001465,0.00013099,-0.00005969,0.00007549,-0.00029179,-0.0
 0007511,0.00021477,-0.00104012,-0.00127677,0.00011508,0.00055194,0.000
 38949,0.00073142,0.00089499,-0.00039239,0.00091993,-0.01221144,-0.0164
 6288,0.05331093,-0.00138595,0.00416508,-0.00296819,-0.01141951,-0.0005
 7366,0.01619042,-0.00006728,-0.00039648,-0.00076572,0.00001786,0.00006
 541,-0.00034040,-0.00012192,0.00002391,-0.00001367,-0.00002708,-0.0001
 3335,0.00001773,-0.00012806,-0.00031313,-0.00008085,0.00154195,0.00037
 124,-0.00010146,0.01029407,-0.00232861,-0.02321049,-0.10357280,0.00681
 357,0.11207439,0.00078138,0.00011974,-0.00039801,-0.00001752,0.0000292
 1,0.00000618,0.00005784,0.00004509,-0.00004472,0.00006716,-0.00002970,
 0.00012139,0.00003082,0.00002820,-0.00003692,0.00000686,0.00000525,-0.
 00001384,0.00002704,0.00001333,-0.00003451,0.00003081,-0.00002606,-0.0
 0003264,-0.00011866,0.00005645,-0.00002062,-0.00002298,-0.00001799,-0.
 00003086,-0.00019913,0.00001713,0.00044437,0.00017487,0.00040106,0.000
 18441,0.00150566,-0.00009475,0.00093770,-0.00283233,-0.00024932,-0.004
 01902,-0.00939166,0.00296277,0.01785315,0.11476854,0.00309042,-0.00317
 523,0.00351098,0.01334671,0.00204000,-0.02814843,-0.00131703,-0.000191
 31,0.00294470,0.00008996,0.00005768,0.00041584,0.00012690,-0.00001031,
 0.00002851,0.00003737,0.00012886,-0.00000003,0.00050964,0.00018738,0.0
 0022911,0.00049580,0.00005022,-0.00097744,-0.00148136,0.00048055,0.002
 62819,0.00811833,-0.05343376,-0.02198063,-0.00049568,-0.00176063,0.000
 00026,0.00000830,0.00001762,-0.00003253,-0.00004845,-0.00003654,0.0000
 3447,-0.00010136,0.00006011,-0.00012820,-0.00003631,-0.00003619,0.0000
 2053,-0.00001452,-0.00001338,-0.00001053,-0.00003721,-0.00000360,0.000
 02474,-0.00003365,0.00003250,0.00004434,0.00000901,0.00008996,0.000056
 25,0.00004736,0.00000395,0.00000795,-0.00020219,0.00008642,0.00000203,
 -0.00002402,-0.00001927,0.00012381,-0.00059705,0.00017650,0.00029144,0
 .00069331,0.00102121,0.00058805,-0.01122987,0.00326173,0.02254546,-0.0
 1095440,0.05098553,-0.00050269,-0.00059174,-0.00082799,0.00046453,0.00
 044128,0.00081257,0.00093912,0.00014002,-0.00067666,-0.00017977,-0.000
 20294,0.00022966,0.00007583,0.00001502,0.00000128,-0.00000817,0.000114
 13,-0.00005378,-0.00050087,-0.00004463,-0.00015018,0.00151174,0.000422
 27,0.00086271,0.01088662,-0.00159945,-0.02576019,0.10794464,-0.0170493
 6,-0.23456620,-0.00042556,0.00017573,0.00066286,0.00001989,-0.00005011
 ,0.00000161,-0.00000477,-0.00000418,0.00002546,-0.00003295,-0.00001701
 ,0.00000223,-0.00002307,-0.00000015,-0.00000157,0.00000651,0.00000403,
 0.00001231,-0.00003167,-0.00000561,0.00003681,-0.00003604,0.00001730,0
 .00000809,-0.00000424,0.00017863,0.00015277,0.00001286,-0.00006129,0.0
 0001494,-0.00081547,-0.00073225,0.00047522,-0.00015960,0.00023790,0.00
 041549,0.00039651,0.00039971,0.00145552,-0.00453891,0.00003361,-0.0028
 0183,0.00072335,0.00039798,-0.00131287,-0.11571781,0.01778112,0.260981
 74\\0.00004407,0.00003379,0.00000408,0.00000443,-0.00003490,0.00001534
 ,0.00002673,-0.00002190,0.00000123,-0.00003737,-0.00000400,-0.00001779
 ,0.00001679,0.00001040,0.00003972,0.00003670,-0.00000418,-0.00003438,-
 0.00000343,0.00001481,-0.00003183,-0.00000043,-0.00000300,0.00000229,-
 0.00000189,0.00002301,0.00000601,-0.00001610,-0.00001021,-0.00000979,0
 .00000157,-0.00000072,-0.00001695,-0.00000072,0.00000686,0.00000266,-0
 .00000028,-0.00000615,-0.00000609,-0.00001065,-0.00000202,-0.00000730,
 -0.00000799,-0.00000182,-0.00001036,0.00000208,-0.00000852,0.00000331,
 -0.00001043,-0.00000088,0.00000494,-0.00001660,-0.00000368,0.00001004,
 -0.00000588,0.00000473,0.00002591,0.00000033,0.00000307,0.00000434,-0.
 00000958,0.00000724,0.00000831,-0.00000021,-0.00000042,0.00000560,-0.0
 0000641,-0.00000526,-0.00000394,-0.00000617,0.00000462,0.00000731,-0.0
 0000469,0.00000006,0.00000376,0.00000614,-0.00000096,-0.00000640\\\@


 A people that values its privileges above its principles soon loses both.
 -- Dwight D. Eisenhower
 Job cpu time:       0 days  0 hours  2 minutes  8.9 seconds.
 Elapsed time:       0 days  0 hours  2 minutes  9.1 seconds.
 File lengths (MBytes):  RWF=    106 Int=      0 D2E=      0 Chk=      4 Scr=      1
 Normal termination of Gaussian 16 at Wed Feb 21 19:38:29 2024.
