 Entering Gaussian System, Link 0=g16
 Input=/Volumes/SSD-PMU3/b3lyp_6-31gd_freq/BDRPBIDNZZQJOI-ZXFLCMHBSA-N_calculating/gaussianinput0.gjf
 Output=/Volumes/SSD-PMU3/b3lyp_6-31gd_freq/BDRPBIDNZZQJOI-ZXFLCMHBSA-N_calculating/gaussianinput0.log
 Initial command:
 /Applications/g16/l1.exe "/Users/macmini_m1_2022/PycharmProjects/sphere_model/sphere_model_lib/Gau-53795.inp" -scrdir="/Users/macmini_m1_2022/PycharmProjects/sphere_model/sphere_model_lib/"
 Entering Link 1 = /Applications/g16/l1.exe PID=     53796.
  
 Copyright (c) 1988,1990,1992,1993,1995,1998,2003,2009,2016,
            Gaussian, Inc.  All Rights Reserved.
  
 This is part of the Gaussian(R) 16 program.  It is based on
 the Gaussian(R) 09 system (copyright 2009, Gaussian, Inc.),
 the Gaussian(R) 03 system (copyright 2003, Gaussian, Inc.),
 the Gaussian(R) 98 system (copyright 1998, Gaussian, Inc.),
 the Gaussian(R) 94 system (copyright 1995, Gaussian, Inc.),
 the Gaussian 92(TM) system (copyright 1992, Gaussian, Inc.),
 the Gaussian 90(TM) system (copyright 1990, Gaussian, Inc.),
 the Gaussian 88(TM) system (copyright 1988, Gaussian, Inc.),
 the Gaussian 86(TM) system (copyright 1986, Carnegie Mellon
 University), and the Gaussian 82(TM) system (copyright 1983,
 Carnegie Mellon University). Gaussian is a federally registered
 trademark of Gaussian, Inc.
  
 This software contains proprietary and confidential information,
 including trade secrets, belonging to Gaussian, Inc.
  
 This software is provided under written license and may be
 used, copied, transmitted, or stored only in accord with that
 written license.
  
 The following legend is applicable only to US Government
 contracts under FAR:
  
                    RESTRICTED RIGHTS LEGEND
  
 Use, reproduction and disclosure by the US Government is
 subject to restrictions as set forth in subparagraphs (a)
 and (c) of the Commercial Computer Software - Restricted
 Rights clause in FAR 52.227-19.
  
 Gaussian, Inc.
 340 Quinnipiac St., Bldg. 40, Wallingford CT 06492
  
  
 ---------------------------------------------------------------
 Warning -- This program may not be used in any manner that
 competes with the business of Gaussian, Inc. or will provide
 assistance to any competitor of Gaussian, Inc.  The licensee
 of this program is prohibited from giving any competitor of
 Gaussian, Inc. access to this program.  By using this program,
 the user acknowledges that Gaussian, Inc. is engaged in the
 business of creating and licensing software in the field of
 computational chemistry and represents and warrants to the
 licensee that it is not a competitor of Gaussian, Inc. and that
 it will not use this program in any manner prohibited above.
 ---------------------------------------------------------------
  

 Cite this work as:
 Gaussian 16, Revision A.03,
 M. J. Frisch, G. W. Trucks, H. B. Schlegel, G. E. Scuseria, 
 M. A. Robb, J. R. Cheeseman, G. Scalmani, V. Barone, 
 G. A. Petersson, H. Nakatsuji, X. Li, M. Caricato, A. V. Marenich, 
 J. Bloino, B. G. Janesko, R. Gomperts, B. Mennucci, H. P. Hratchian, 
 J. V. Ortiz, A. F. Izmaylov, J. L. Sonnenberg, D. Williams-Young, 
 F. Ding, F. Lipparini, F. Egidi, J. Goings, B. Peng, A. Petrone, 
 T. Henderson, D. Ranasinghe, V. G. Zakrzewski, J. Gao, N. Rega, 
 G. Zheng, W. Liang, M. Hada, M. Ehara, K. Toyota, R. Fukuda, 
 J. Hasegawa, M. Ishida, T. Nakajima, Y. Honda, O. Kitao, H. Nakai, 
 T. Vreven, K. Throssell, J. A. Montgomery, Jr., J. E. Peralta, 
 F. Ogliaro, M. J. Bearpark, J. J. Heyd, E. N. Brothers, K. N. Kudin, 
 V. N. Staroverov, T. A. Keith, R. Kobayashi, J. Normand, 
 K. Raghavachari, A. P. Rendell, J. C. Burant, S. S. Iyengar, 
 J. Tomasi, M. Cossi, J. M. Millam, M. Klene, C. Adamo, R. Cammi, 
 J. W. Ochterski, R. L. Martin, K. Morokuma, O. Farkas, 
 J. B. Foresman, and D. J. Fox, Gaussian, Inc., Wallingford CT, 2016.
 
 ******************************************
 Gaussian 16:  EM64M-G16RevA.03 25-Dec-2016
                21-Feb-2024 
 ******************************************
 %nprocshared=8
 Will use up to    8 processors via shared memory.
 %mem=4GB
 %chk= 0.chk
 ---------------------
 # freq b3lyp/6-31g(d)
 ---------------------
 1/10=4,30=1,38=1/1,3;
 2/12=2,17=6,18=5,40=1/2;
 3/5=1,6=6,7=1,11=2,25=1,30=1,71=2,74=-5,140=1/1,2,3;
 4//1;
 5/5=2,38=5,98=1/2;
 8/6=4,10=90,11=11/1;
 11/6=1,8=1,9=11,15=111,16=1/1,2,10;
 10/6=1/2;
 6/7=2,8=2,9=2,10=2,28=1/1;
 7/8=1,10=1,25=1/1,2,3,16;
 1/10=4,30=1/3;
 99//99;
 ---------
 good luck
 ---------
 Symbolic Z-matrix:
 Charge =  0 Multiplicity = 1
 O                     1.212     0.        0. 
 C                     0.        0.        0. 
 C                    -0.91961  -1.22842  -0.00475 
 C                    -0.2444   -2.51031   0.44829 
 C                    -2.12572  -0.66235   0.81001 
 C                    -3.33503  -1.58179   0.97902 
 C                    -1.50138  -1.24889  -1.45899 
 C                    -2.47114  -0.02884  -1.50293 
 C                    -2.31805   0.58821  -0.09104 
 C                    -0.91977   1.23315  -0.00475 
 H                     0.08472  -2.4368    1.49119 
 H                     0.64541  -2.70793  -0.1588 
 H                    -0.91871  -3.36983   0.36124 
 H                    -1.7873   -0.35652   1.81126 
 H                    -3.08189  -2.45155   1.59594 
 H                    -4.15212  -1.04917   1.48045 
 H                    -3.72191  -1.95495   0.02517 
 H                    -2.0299   -2.19386  -1.62619 
 H                    -0.70615  -1.19297  -2.20984 
 H                    -2.21113   0.68841  -2.28884 
 H                    -3.50252  -0.34612  -1.68808 
 H                    -3.13569   1.25513   0.19865 
 H                    -0.67058   1.91278  -0.82733 
 H                    -0.77866   1.78672   0.93302 
 

 GradGradGradGradGradGradGradGradGradGradGradGradGradGradGradGradGradGrad
 Berny optimization.
 Initialization pass.
 Trust Radius=3.00D-01 FncErr=1.00D-07 GrdErr=1.00D-07 EigMax=2.50D+02 EigMin=1.00D-04
 Number of steps in this run=      2 maximum allowed number of steps=      2.
 GradGradGradGradGradGradGradGradGradGradGradGradGradGradGradGradGradGrad

                          Input orientation:                          
 ---------------------------------------------------------------------
 Center     Atomic      Atomic             Coordinates (Angstroms)
 Number     Number       Type             X           Y           Z
 ---------------------------------------------------------------------
      1          8           0        1.212005    0.000000    0.000000
      2          6           0        0.000000    0.000000    0.000000
      3          6           0       -0.919608   -1.228420   -0.004750
      4          6           0       -0.244401   -2.510309    0.448291
      5          6           0       -2.125715   -0.662348    0.810005
      6          6           0       -3.335035   -1.581787    0.979018
      7          6           0       -1.501376   -1.248887   -1.458987
      8          6           0       -2.471138   -0.028836   -1.502925
      9          6           0       -2.318054    0.588207   -0.091036
     10          6           0       -0.919767    1.233153   -0.004750
     11          1           0        0.084721   -2.436802    1.491189
     12          1           0        0.645411   -2.707931   -0.158804
     13          1           0       -0.918707   -3.369825    0.361239
     14          1           0       -1.787296   -0.356518    1.811256
     15          1           0       -3.081892   -2.451553    1.595942
     16          1           0       -4.152115   -1.049168    1.480451
     17          1           0       -3.721907   -1.954947    0.025174
     18          1           0       -2.029901   -2.193855   -1.626189
     19          1           0       -0.706148   -1.192966   -2.209837
     20          1           0       -2.211131    0.688409   -2.288838
     21          1           0       -3.502522   -0.346117   -1.688077
     22          1           0       -3.135687    1.255129    0.198648
     23          1           0       -0.670577    1.912781   -0.827330
     24          1           0       -0.778657    1.786724    0.933021
 ---------------------------------------------------------------------
                    Distance matrix (angstroms):
                    1          2          3          4          5
     1  O    0.000000
     2  C    1.212005   0.000000
     3  C    2.460246   1.534509   0.000000
     4  C    2.936620   2.561708   1.518022   0.000000
     5  C    3.497883   2.369278   1.561716   2.661792   0.000000
     6  C    4.912850   3.818767   2.631911   3.270450   1.528525
     7  C    3.324274   2.437723   1.566422   2.609383   2.425315
     8  C    3.978085   2.892428   2.467950   3.863070   2.422870
     9  C    3.579887   2.393251   2.294173   3.767189   1.553305
    10  C    2.462751   1.538395   2.461573   3.830780   2.389782
    11  H    3.071224   2.858116   2.169492   1.096066   2.915257
    12  H    2.771126   2.788309   2.159160   1.095164   3.578008
    13  H    4.003267   3.511444   2.172456   1.095917   2.998115
    14  H    3.521869   2.569471   2.193393   2.979432   1.100256
    15  H    5.195642   4.249141   2.955290   3.061358   2.175598
    16  H    5.662709   4.531285   3.561889   4.297734   2.169199
    17  H    5.307159   4.204170   2.895102   3.546900   2.198773
    18  H    4.238802   3.402644   2.189493   2.755290   2.879190
    19  H    3.160041   2.608676   2.215678   3.002374   3.378783
    20  H    4.174991   3.256038   3.249511   4.646687   3.381519
    21  H    5.019578   3.903468   3.206789   4.456809   2.869846
    22  H    4.529596   3.383392   3.334725   4.753986   2.251781
    23  H    2.808437   2.189265   3.256654   4.623047   3.380766
    24  H    2.832957   2.160837   3.160755   4.357165   2.797794
                    6          7          8          9         10
     6  C    0.000000
     7  C    3.068712   0.000000
     8  C    3.052543   1.559132   0.000000
     9  C    2.624527   2.431700   1.548421   0.000000
    10  C    3.837344   2.934893   2.498779   1.542273   0.000000
    11  H    3.562036   3.553925   4.614698   4.174619   4.088447
    12  H    4.290313   2.903098   4.324013   4.432972   4.243307
    13  H    3.068774   2.855014   4.128845   4.222410   4.617505
    14  H    2.142289   3.401847   3.399825   2.189275   2.564671
    15  H    1.095979   3.643766   3.980648   3.559422   4.562243
    16  H    1.096694   3.963155   3.573135   2.917936   4.226451
    17  H    1.094868   2.762610   2.758516   2.907222   4.244628
    18  H    2.977433   1.095564   2.212960   3.190548   3.950423
    19  H    4.151027   1.095121   2.229375   3.203145   3.285437
    20  H    4.134711   2.223853   1.095310   2.202682   2.679818
    21  H    2.944202   2.207275   1.094852   2.196922   3.463857
    22  H    2.949035   3.418892   2.232833   1.094178   2.225344
    23  H    4.751235   3.329469   2.732824   2.238483   1.095732
    24  H    4.228954   3.931788   3.477727   2.203379   1.098074
                   11         12         13         14         15
    11  H    0.000000
    12  H    1.763622   0.000000
    13  H    1.776003   1.776236   0.000000
    14  H    2.816819   3.915143   3.454999   0.000000
    15  H    3.168380   4.127669   2.654634   2.472147   0.000000
    16  H    4.458298   5.334314   4.134370   2.486275   1.767880
    17  H    4.107530   4.435572   3.157966   3.080225   1.767356
    18  H    3.774744   3.094315   2.562719   3.905214   3.399297
    19  H    3.983741   2.885926   3.375549   4.247083   4.659630
    20  H    5.415393   4.922601   5.016227   4.252326   5.070414
    21  H    5.229437   5.012204   4.474216   3.897107   3.923592
    22  H    5.066759   5.489109   5.131436   2.648786   3.961668
    23  H    4.986469   4.850745   5.420350   3.654985   5.543834
    24  H    4.346855   4.839626   5.190043   2.526289   4.869019
                   16         17         18         19         20
    16  H    0.000000
    17  H    1.767299   0.000000
    18  H    3.932596   2.376334   0.000000
    19  H    5.051098   3.830234   1.759189   0.000000
    20  H    4.581935   3.824190   2.963004   2.410557   0.000000
    21  H    3.309958   2.360443   2.363594   2.968012   1.760355
    22  H    2.825939   3.267772   4.055648   4.206736   2.713588
    23  H    5.120557   4.999670   4.398909   3.399743   2.451204
    24  H    4.440966   4.846340   4.894913   4.331439   3.693055
                   21         22         23         24
    21  H    0.000000
    22  H    2.501657   0.000000
    23  H    3.723361   2.749892   0.000000
    24  H    4.340346   2.525369   1.768165   0.000000
 Stoichiometry    C9H14O
 Framework group  C1[X(C9H14O)]
 Deg. of freedom    66
 Full point group                 C1      NOp   1
 Largest Abelian subgroup         C1      NOp   1
 Largest concise Abelian subgroup C1      NOp   1
                         Standard orientation:                         
 ---------------------------------------------------------------------
 Center     Atomic      Atomic             Coordinates (Angstroms)
 Number     Number       Type             X           Y           Z
 ---------------------------------------------------------------------
      1          8           0        2.578367    0.043655   -0.222375
      2          6           0        1.397544   -0.228828   -0.241520
      3          6           0        0.234071    0.695899    0.140485
      4          6           0        0.586549    2.172401    0.130951
      5          6           0       -0.864189    0.158787   -0.831263
      6          6           0       -2.252498    0.788034   -0.717095
      7          6           0       -0.254039    0.126820    1.515830
      8          6           0       -0.930367   -1.230263    1.152789
      9          6           0       -0.727437   -1.321093   -0.379588
     10          6           0        0.770540   -1.574436   -0.645087
     11          1           0        0.863596    2.506451   -0.875536
     12          1           0        1.445100    2.363865    0.783344
     13          1           0       -0.252806    2.786165    0.477089
     14          1           0       -0.525056    0.267564   -1.872282
     15          1           0       -2.230752    1.841067   -1.020109
     16          1           0       -2.961117    0.270739   -1.375124
     17          1           0       -2.656225    0.745365    0.299724
     18          1           0       -0.965409    0.826974    1.967489
     19          1           0        0.575853    0.017986    2.222034
     20          1           0       -0.475752   -2.080385    1.672713
     21          1           0       -1.993796   -1.227718    1.413198
     22          1           0       -1.395209   -2.028947   -0.879838
     23          1           0        1.208513   -2.403822   -0.078584
     24          1           0        0.975077   -1.758465   -1.708132
 ---------------------------------------------------------------------
 Rotational constants (GHZ):           1.8333631           1.4240316           1.1329812
 Standard basis: 6-31G(d) (6D, 7F)
 There are   178 symmetry adapted cartesian basis functions of A   symmetry.
 There are   178 symmetry adapted basis functions of A   symmetry.
   178 basis functions,   336 primitive gaussians,   178 cartesian basis functions
    38 alpha electrons       38 beta electrons
       nuclear repulsion energy       573.2013883633 Hartrees.
 NAtoms=   24 NActive=   24 NUniq=   24 SFac= 1.00D+00 NAtFMM=   60 NAOKFM=F Big=F
 Integral buffers will be    131072 words long.
 Raffenetti 2 integral format.
 Two-electron integral symmetry is turned on.
 One-electron integrals computed using PRISM.
 NBasis=   178 RedAO= T EigKep=  1.68D-03  NBF=   178
 NBsUse=   178 1.00D-06 EigRej= -1.00D+00 NBFU=   178
 ExpMin= 1.61D-01 ExpMax= 5.48D+03 ExpMxC= 8.25D+02 IAcc=3 IRadAn=         5 AccDes= 0.00D+00
 Harris functional with IExCor=  402 and IRadAn=       5 diagonalized for initial guess.
 HarFok:  IExCor=  402 AccDes= 0.00D+00 IRadAn=         5 IDoV= 1 UseB2=F ITyADJ=14
 ICtDFT=  3500011 ScaDFX=  1.000000  1.000000  1.000000  1.000000
 FoFCou: FMM=F IPFlag=           0 FMFlag=      100000 FMFlg1=           0
         NFxFlg=           0 DoJE=T BraDBF=F KetDBF=T FulRan=T
         wScrn=  0.000000 ICntrl=       500 IOpCl=  0 I1Cent=   200000004 NGrid=           0
         NMat0=    1 NMatS0=      1 NMatT0=    0 NMatD0=    1 NMtDS0=    0 NMtDT0=    0
 Petite list used in FoFCou.
 Requested convergence on RMS density matrix=1.00D-08 within 128 cycles.
 Requested convergence on MAX density matrix=1.00D-06.
 Requested convergence on             energy=1.00D-06.
 No special actions if energy rises.
 Integral accuracy reduced to 1.0D-05 until final iterations.
 Initial convergence to 1.0D-05 achieved.  Increase integral accuracy.
 SCF Done:  E(RB3LYP) =  -426.613437933     A.U. after   13 cycles
            NFock= 13  Conv=0.91D-08     -V/T= 2.0096
 DoSCS=F DFT=T ScalE2(SS,OS)=  1.000000  1.000000
 Range of M.O.s used for correlation:     1   178
 NBasis=   178 NAE=    38 NBE=    38 NFC=     0 NFV=     0
 NROrb=    178 NOA=    38 NOB=    38 NVA=   140 NVB=   140
 Symmetrizing basis deriv contribution to polar:
 IMax=3 JMax=2 DiffMx= 0.00D+00
 G2DrvN: will do    25 centers at a time, making    1 passes.
 Calling FoFCou, ICntrl=  3107 FMM=F I1Cent=   0 AccDes= 0.00D+00.
 End of G2Drv F.D. properties file   721 does not exist.
 End of G2Drv F.D. properties file   722 does not exist.
 End of G2Drv F.D. properties file   788 does not exist.
          IDoAtm=111111111111111111111111
          Differentiating once with respect to electric field.
                with respect to dipole field.
          Differentiating once with respect to nuclear coordinates.
 Keep R1 ints in memory in canonical form, NReq=134943929.
          There are    75 degrees of freedom in the 1st order CPHF.  IDoFFX=6 NUNeed=     3.
     72 vectors produced by pass  0 Test12= 7.09D-15 1.33D-09 XBig12= 6.84D+01 2.21D+00.
 AX will form    72 AO Fock derivatives at one time.
     72 vectors produced by pass  1 Test12= 7.09D-15 1.33D-09 XBig12= 1.25D+01 7.85D-01.
     72 vectors produced by pass  2 Test12= 7.09D-15 1.33D-09 XBig12= 1.16D-01 4.03D-02.
     72 vectors produced by pass  3 Test12= 7.09D-15 1.33D-09 XBig12= 3.28D-04 2.70D-03.
     72 vectors produced by pass  4 Test12= 7.09D-15 1.33D-09 XBig12= 3.61D-07 6.50D-05.
     33 vectors produced by pass  5 Test12= 7.09D-15 1.33D-09 XBig12= 2.41D-10 1.41D-06.
      4 vectors produced by pass  6 Test12= 7.09D-15 1.33D-09 XBig12= 1.68D-13 6.60D-08.
      1 vectors produced by pass  7 Test12= 7.09D-15 1.33D-09 XBig12= 1.31D-16 1.92D-09.
 InvSVY:  IOpt=1 It=  1 EMax= 7.11D-15
 Solved reduced A of dimension   398 with    75 vectors.
 Isotropic polarizability for W=    0.000000       88.63 Bohr**3.
 End of Minotr F.D. properties file   721 does not exist.
 End of Minotr F.D. properties file   722 does not exist.
 End of Minotr F.D. properties file   788 does not exist.

 **********************************************************************

            Population analysis using the SCF density.

 **********************************************************************

 Orbital symmetries:
       Occupied  (A) (A) (A) (A) (A) (A) (A) (A) (A) (A) (A) (A)
                 (A) (A) (A) (A) (A) (A) (A) (A) (A) (A) (A) (A)
                 (A) (A) (A) (A) (A) (A) (A) (A) (A) (A) (A) (A)
                 (A) (A)
       Virtual   (A) (A) (A) (A) (A) (A) (A) (A) (A) (A) (A) (A)
                 (A) (A) (A) (A) (A) (A) (A) (A) (A) (A) (A) (A)
                 (A) (A) (A) (A) (A) (A) (A) (A) (A) (A) (A) (A)
                 (A) (A) (A) (A) (A) (A) (A) (A) (A) (A) (A) (A)
                 (A) (A) (A) (A) (A) (A) (A) (A) (A) (A) (A) (A)
                 (A) (A) (A) (A) (A) (A) (A) (A) (A) (A) (A) (A)
                 (A) (A) (A) (A) (A) (A) (A) (A) (A) (A) (A) (A)
                 (A) (A) (A) (A) (A) (A) (A) (A) (A) (A) (A) (A)
                 (A) (A) (A) (A) (A) (A) (A) (A) (A) (A) (A) (A)
                 (A) (A) (A) (A) (A) (A) (A) (A) (A) (A) (A) (A)
                 (A) (A) (A) (A) (A) (A) (A) (A) (A) (A) (A) (A)
                 (A) (A) (A) (A) (A) (A) (A) (A)
 The electronic state is 1-A.
 Alpha  occ. eigenvalues --  -19.13299 -10.26402 -10.19664 -10.19529 -10.19466
 Alpha  occ. eigenvalues --  -10.19052 -10.18827 -10.18736 -10.18196 -10.17427
 Alpha  occ. eigenvalues --   -1.03190  -0.87922  -0.76135  -0.74412  -0.73363
 Alpha  occ. eigenvalues --   -0.66516  -0.64631  -0.58401  -0.54978  -0.50481
 Alpha  occ. eigenvalues --   -0.49071  -0.47562  -0.45383  -0.43367  -0.41558
 Alpha  occ. eigenvalues --   -0.40493  -0.39963  -0.39568  -0.38904  -0.37765
 Alpha  occ. eigenvalues --   -0.35622  -0.34967  -0.34589  -0.33491  -0.32493
 Alpha  occ. eigenvalues --   -0.31201  -0.30137  -0.22947
 Alpha virt. eigenvalues --   -0.00854   0.07284   0.10228   0.11025   0.12373
 Alpha virt. eigenvalues --    0.13508   0.14570   0.15137   0.15968   0.16432
 Alpha virt. eigenvalues --    0.16699   0.18432   0.18628   0.19590   0.20043
 Alpha virt. eigenvalues --    0.20869   0.21363   0.22599   0.23779   0.25725
 Alpha virt. eigenvalues --    0.26542   0.27489   0.29534   0.30907   0.32399
 Alpha virt. eigenvalues --    0.35623   0.49222   0.50605   0.51754   0.52380
 Alpha virt. eigenvalues --    0.54883   0.55885   0.58481   0.59931   0.61786
 Alpha virt. eigenvalues --    0.62773   0.63632   0.65501   0.67526   0.68136
 Alpha virt. eigenvalues --    0.68537   0.71134   0.72149   0.75456   0.77384
 Alpha virt. eigenvalues --    0.77907   0.80587   0.83247   0.84422   0.85123
 Alpha virt. eigenvalues --    0.87098   0.87177   0.87319   0.88617   0.89161
 Alpha virt. eigenvalues --    0.89719   0.90641   0.92027   0.93125   0.93786
 Alpha virt. eigenvalues --    0.94678   0.95236   0.97045   0.98443   0.98857
 Alpha virt. eigenvalues --    1.00098   1.01948   1.06985   1.11800   1.14308
 Alpha virt. eigenvalues --    1.22936   1.26257   1.31980   1.32910   1.41881
 Alpha virt. eigenvalues --    1.45351   1.48009   1.50995   1.52671   1.62026
 Alpha virt. eigenvalues --    1.64641   1.65857   1.70506   1.73753   1.74540
 Alpha virt. eigenvalues --    1.76504   1.77785   1.79477   1.82553   1.84645
 Alpha virt. eigenvalues --    1.86656   1.90200   1.90982   1.92419   1.95312
 Alpha virt. eigenvalues --    1.96462   1.97833   2.00157   2.03231   2.03564
 Alpha virt. eigenvalues --    2.08217   2.10254   2.13186   2.14885   2.17444
 Alpha virt. eigenvalues --    2.19858   2.20353   2.23707   2.27576   2.28122
 Alpha virt. eigenvalues --    2.29123   2.32564   2.35600   2.38815   2.39485
 Alpha virt. eigenvalues --    2.43048   2.47886   2.50208   2.55433   2.59726
 Alpha virt. eigenvalues --    2.63668   2.69288   2.71977   2.73806   2.75056
 Alpha virt. eigenvalues --    2.78624   2.84869   2.86899   3.03443   3.07323
 Alpha virt. eigenvalues --    4.10305   4.16010   4.26146   4.27936   4.33793
 Alpha virt. eigenvalues --    4.46275   4.50311   4.65751   4.72539   4.83123
          Condensed to atoms (all electrons):
               1          2          3          4          5          6
     1  O    8.015076   0.578255  -0.074666   0.003247   0.001830  -0.000053
     2  C    0.578255   4.564491   0.339006  -0.039873  -0.056973   0.003546
     3  C   -0.074666   0.339006   5.102415   0.356463   0.339134  -0.035799
     4  C    0.003247  -0.039873   0.356463   5.132224  -0.046407  -0.001284
     5  C    0.001830  -0.056973   0.339134  -0.046407   5.081977   0.369389
     6  C   -0.000053   0.003546  -0.035799  -0.001284   0.369389   5.097228
     7  C   -0.002654  -0.035364   0.372207  -0.046506  -0.076048  -0.008898
     8  C   -0.000029  -0.017156  -0.062625   0.006393  -0.066708  -0.003308
     9  C    0.003342  -0.048251   0.004914   0.003467   0.348083  -0.038946
    10  C   -0.072492   0.311853  -0.174940   0.010631  -0.051855   0.003867
    11  H    0.001209  -0.003162  -0.027951   0.368730  -0.003895  -0.000374
    12  H    0.006941  -0.005560  -0.028472   0.367217   0.004966  -0.000053
    13  H    0.000174   0.004620  -0.026646   0.363036  -0.004734   0.001755
    14  H    0.000125  -0.005139  -0.045204  -0.001729   0.371561  -0.044306
    15  H   -0.000000  -0.000026  -0.004663   0.002323  -0.027153   0.370779
    16  H    0.000000  -0.000047   0.004218  -0.000011  -0.028765   0.370588
    17  H   -0.000000   0.000059  -0.006936  -0.000301  -0.032875   0.375405
    18  H   -0.000049   0.004031  -0.033978  -0.004339  -0.003457   0.002067
    19  H    0.001813  -0.004691  -0.035647   0.000617   0.006722   0.000093
    20  H   -0.000015   0.000402   0.001842  -0.000110   0.005394   0.000123
    21  H    0.000001   0.000226   0.001203  -0.000127  -0.001821   0.001050
    22  H   -0.000054   0.004437   0.003930  -0.000181  -0.033474  -0.001982
    23  H    0.000632  -0.019679   0.004331  -0.000101   0.004954  -0.000144
    24  H   -0.000684  -0.019489   0.002994  -0.000243  -0.001335   0.000103
               7          8          9         10         11         12
     1  O   -0.002654  -0.000029   0.003342  -0.072492   0.001209   0.006941
     2  C   -0.035364  -0.017156  -0.048251   0.311853  -0.003162  -0.005560
     3  C    0.372207  -0.062625   0.004914  -0.174940  -0.027951  -0.028472
     4  C   -0.046506   0.006393   0.003467   0.010631   0.368730   0.367217
     5  C   -0.076048  -0.066708   0.348083  -0.051855  -0.003895   0.004966
     6  C   -0.008898  -0.003308  -0.038946   0.003867  -0.000374  -0.000053
     7  C    5.136289   0.345987  -0.070176  -0.007527   0.004871  -0.002513
     8  C    0.345987   5.081174   0.375869  -0.031991  -0.000206  -0.000080
     9  C   -0.070176   0.375869   5.022575   0.318389   0.000185  -0.000214
    10  C   -0.007527  -0.031991   0.318389   5.381620   0.000027   0.000309
    11  H    0.004871  -0.000206   0.000185   0.000027   0.568115  -0.027989
    12  H   -0.002513  -0.000080  -0.000214   0.000309  -0.027989   0.550425
    13  H   -0.005497   0.000017   0.000116  -0.000200  -0.031262  -0.030796
    14  H    0.007407   0.006189  -0.046649   0.000225   0.002870  -0.000058
    15  H   -0.000274   0.000005   0.004414  -0.000176   0.000345  -0.000065
    16  H    0.000139  -0.000560  -0.003413   0.000044  -0.000016   0.000002
    17  H    0.003793   0.003098  -0.006833   0.000122   0.000047  -0.000015
    18  H    0.368643  -0.028567   0.002508  -0.000598   0.000006  -0.000560
    19  H    0.365202  -0.028532   0.001538   0.001999  -0.000139   0.002367
    20  H   -0.029279   0.368639  -0.032751  -0.007930   0.000003  -0.000004
    21  H   -0.028927   0.369252  -0.031561   0.004496   0.000004   0.000002
    22  H    0.006583  -0.038370   0.362478  -0.031623   0.000001   0.000004
    23  H   -0.000423  -0.006350  -0.026653   0.348160  -0.000002  -0.000009
    24  H    0.000286   0.004667  -0.030743   0.350101   0.000003  -0.000007
              13         14         15         16         17         18
     1  O    0.000174   0.000125  -0.000000   0.000000  -0.000000  -0.000049
     2  C    0.004620  -0.005139  -0.000026  -0.000047   0.000059   0.004031
     3  C   -0.026646  -0.045204  -0.004663   0.004218  -0.006936  -0.033978
     4  C    0.363036  -0.001729   0.002323  -0.000011  -0.000301  -0.004339
     5  C   -0.004734   0.371561  -0.027153  -0.028765  -0.032875  -0.003457
     6  C    0.001755  -0.044306   0.370779   0.370588   0.375405   0.002067
     7  C   -0.005497   0.007407  -0.000274   0.000139   0.003793   0.368643
     8  C    0.000017   0.006189   0.000005  -0.000560   0.003098  -0.028567
     9  C    0.000116  -0.046649   0.004414  -0.003413  -0.006833   0.002508
    10  C   -0.000200   0.000225  -0.000176   0.000044   0.000122  -0.000598
    11  H   -0.031262   0.002870   0.000345  -0.000016   0.000047   0.000006
    12  H   -0.030796  -0.000058  -0.000065   0.000002  -0.000015  -0.000560
    13  H    0.584590  -0.000114   0.001397  -0.000035   0.000188   0.004476
    14  H   -0.000114   0.627424  -0.003370  -0.002859   0.005320  -0.000072
    15  H    0.001397  -0.003370   0.566084  -0.030761  -0.030817   0.000132
    16  H   -0.000035  -0.002859  -0.030761   0.572109  -0.031096  -0.000113
    17  H    0.000188   0.005320  -0.030817  -0.031096   0.570221   0.001849
    18  H    0.004476  -0.000072   0.000132  -0.000113   0.001849   0.582014
    19  H   -0.000207  -0.000179  -0.000008   0.000002  -0.000082  -0.035080
    20  H    0.000001  -0.000174   0.000001  -0.000010  -0.000071   0.003532
    21  H   -0.000021  -0.000059  -0.000055   0.000223   0.001933  -0.010879
    22  H    0.000001  -0.000862  -0.000067   0.002874  -0.000192  -0.000194
    23  H    0.000003   0.000012   0.000003  -0.000001   0.000004   0.000043
    24  H    0.000004   0.003589  -0.000001  -0.000024   0.000002   0.000009
              19         20         21         22         23         24
     1  O    0.001813  -0.000015   0.000001  -0.000054   0.000632  -0.000684
     2  C   -0.004691   0.000402   0.000226   0.004437  -0.019679  -0.019489
     3  C   -0.035647   0.001842   0.001203   0.003930   0.004331   0.002994
     4  C    0.000617  -0.000110  -0.000127  -0.000181  -0.000101  -0.000243
     5  C    0.006722   0.005394  -0.001821  -0.033474   0.004954  -0.001335
     6  C    0.000093   0.000123   0.001050  -0.001982  -0.000144   0.000103
     7  C    0.365202  -0.029279  -0.028927   0.006583  -0.000423   0.000286
     8  C   -0.028532   0.368639   0.369252  -0.038370  -0.006350   0.004667
     9  C    0.001538  -0.032751  -0.031561   0.362478  -0.026653  -0.030743
    10  C    0.001999  -0.007930   0.004496  -0.031623   0.348160   0.350101
    11  H   -0.000139   0.000003   0.000004   0.000001  -0.000002   0.000003
    12  H    0.002367  -0.000004   0.000002   0.000004  -0.000009  -0.000007
    13  H   -0.000207   0.000001  -0.000021   0.000001   0.000003   0.000004
    14  H   -0.000179  -0.000174  -0.000059  -0.000862   0.000012   0.003589
    15  H   -0.000008   0.000001  -0.000055  -0.000067   0.000003  -0.000001
    16  H    0.000002  -0.000010   0.000223   0.002874  -0.000001  -0.000024
    17  H   -0.000082  -0.000071   0.001933  -0.000192   0.000004   0.000002
    18  H   -0.035080   0.003532  -0.010879  -0.000194   0.000043   0.000009
    19  H    0.574145  -0.007019   0.003528  -0.000093  -0.000167  -0.000022
    20  H   -0.007019   0.587113  -0.036113   0.000940   0.005165   0.000108
    21  H    0.003528  -0.036113   0.587895  -0.002973   0.000020  -0.000175
    22  H   -0.000093   0.000940  -0.002973   0.610801   0.000430  -0.003523
    23  H   -0.000167   0.005165   0.000020   0.000430   0.550150  -0.024167
    24  H   -0.000022   0.000108  -0.000175  -0.003523  -0.024167   0.550122
 Mulliken charges:
               1
     1  O   -0.461949
     2  C    0.444483
     3  C    0.024870
     4  C   -0.473136
     5  C   -0.098509
     6  C   -0.460843
     7  C   -0.297321
     8  C   -0.276806
     9  C   -0.111688
    10  C   -0.352510
    11  H    0.148580
    12  H    0.164163
    13  H    0.139134
    14  H    0.126051
    15  H    0.151956
    16  H    0.147512
    17  H    0.147178
    18  H    0.148577
    19  H    0.153842
    20  H    0.140214
    21  H    0.142878
    22  H    0.121110
    23  H    0.163790
    24  H    0.168425
 Sum of Mulliken charges =  -0.00000
 Mulliken charges with hydrogens summed into heavy atoms:
               1
     1  O   -0.461949
     2  C    0.444483
     3  C    0.024870
     4  C   -0.021258
     5  C    0.027542
     6  C   -0.014197
     7  C    0.005098
     8  C    0.006285
     9  C    0.009422
    10  C   -0.020295
 APT charges:
               1
     1  O   -0.665693
     2  C    0.742551
     3  C   -0.080624
     4  C    0.065850
     5  C    0.092575
     6  C    0.065437
     7  C    0.065875
     8  C    0.075443
     9  C    0.088930
    10  C   -0.065943
    11  H   -0.021149
    12  H   -0.001309
    13  H   -0.023809
    14  H   -0.061365
    15  H   -0.021996
    16  H   -0.028650
    17  H   -0.012085
    18  H   -0.031474
    19  H   -0.025579
    20  H   -0.039239
    21  H   -0.040625
    22  H   -0.055146
    23  H   -0.014888
    24  H   -0.007085
 Sum of APT charges =  -0.00000
 APT charges with hydrogens summed into heavy atoms:
               1
     1  O   -0.665693
     2  C    0.742551
     3  C   -0.080624
     4  C    0.019582
     5  C    0.031210
     6  C    0.002706
     7  C    0.008822
     8  C   -0.004422
     9  C    0.033783
    10  C   -0.087916
 Electronic spatial extent (au):  <R**2>=           1284.5086
 Charge=             -0.0000 electrons
 Dipole moment (field-independent basis, Debye):
    X=             -2.9388    Y=             -0.5646    Z=              0.0423  Tot=              2.9928
 Quadrupole moment (field-independent basis, Debye-Ang):
   XX=            -70.4466   YY=            -59.5624   ZZ=            -59.3765
   XY=             -1.1028   XZ=              0.7106   YZ=              0.3104
 Traceless Quadrupole moment (field-independent basis, Debye-Ang):
   XX=             -7.3181   YY=              3.5661   ZZ=              3.7520
   XY=             -1.1028   XZ=              0.7106   YZ=              0.3104
 Octapole moment (field-independent basis, Debye-Ang**2):
  XXX=            -21.5810  YYY=             -2.1020  ZZZ=             -3.1005  XYY=              4.8051
  XXY=             -1.8212  XXZ=              2.8666  XZZ=              4.6266  YZZ=             -0.5613
  YYZ=             -0.6789  XYZ=             -0.5515
 Hexadecapole moment (field-independent basis, Debye-Ang**3):
 XXXX=           -826.1336 YYYY=           -611.0355 ZZZZ=           -341.5130 XXXY=              2.4323
 XXXZ=              5.7144 YYYX=             -5.6209 YYYZ=             -1.7289 ZZZX=             -2.4007
 ZZZY=              2.4321 XXYY=           -222.5702 XXZZ=           -175.0044 YYZZ=           -155.8453
 XXYZ=              2.4529 YYXZ=              0.3662 ZZXY=             -0.7705
 N-N= 5.732013883633D+02 E-N=-2.136117884324D+03  KE= 4.225470752141D+02
  Exact polarizability:  94.458   0.436  90.512   0.143   0.921  80.905
 Approx polarizability: 139.676   2.308 123.416  -0.686   1.447 120.185
 Calling FoFJK, ICntrl=    100127 FMM=F ISym2X=0 I1Cent= 0 IOpClX= 0 NMat=1 NMatS=1 NMatT=0.
 Full mass-weighted force constant matrix:
 Low frequencies ---   -8.5107   -0.0007   -0.0006   -0.0004    0.6884    9.1341
 Low frequencies ---  107.0187  183.6956  193.0703
 Diagonal vibrational polarizability:
        3.4600312       5.0141139       9.1522229
 Harmonic frequencies (cm**-1), IR intensities (KM/Mole), Raman scattering
 activities (A**4/AMU), depolarization ratios for plane and unpolarized
 incident light, reduced masses (AMU), force constants (mDyne/A),
 and normal coordinates:
                      1                      2                      3
                      A                      A                      A
 Frequencies --    107.0186               183.6948               193.0702
 Red. masses --      4.4304                 1.0416                 1.1737
 Frc consts  --      0.0299                 0.0207                 0.0258
 IR Inten    --      3.6717                 0.1654                 0.1199
  Atom  AN      X      Y      Z        X      Y      Z        X      Y      Z
     1   8     0.01  -0.12   0.35     0.00  -0.01   0.00     0.01  -0.00   0.03
     2   6    -0.01  -0.01   0.01     0.00  -0.00  -0.00     0.01   0.01  -0.01
     3   6    -0.01   0.03  -0.09     0.01   0.00  -0.01     0.00  -0.00  -0.02
     4   6     0.01   0.03  -0.16     0.01  -0.00   0.00    -0.05   0.01  -0.00
     5   6    -0.07   0.02  -0.01    -0.01   0.00  -0.00    -0.00  -0.00  -0.01
     6   6    -0.08  -0.03   0.12    -0.01  -0.02   0.03     0.01   0.02   0.02
     7   6     0.05   0.06  -0.06    -0.01   0.02  -0.01     0.06  -0.04  -0.01
     8   6     0.14  -0.01  -0.01     0.01   0.00  -0.00    -0.05   0.01  -0.03
     9   6    -0.00   0.02  -0.04     0.00   0.00  -0.00    -0.00   0.00  -0.01
    10   6    -0.02   0.05  -0.17    -0.00   0.00  -0.02     0.01   0.00   0.01
    11   1    -0.14   0.00  -0.21     0.56  -0.12   0.12    -0.11   0.05  -0.01
    12   1     0.11   0.02  -0.29    -0.34   0.09   0.45    -0.04   0.04  -0.03
    13   1     0.07   0.05  -0.05    -0.17   0.03  -0.51    -0.07  -0.04   0.04
    14   1    -0.16   0.05  -0.03    -0.03   0.01  -0.01    -0.02  -0.01  -0.02
    15   1    -0.14  -0.01   0.20    -0.06  -0.03  -0.03    -0.07  -0.12  -0.46
    16   1    -0.11  -0.02   0.14    -0.03  -0.07   0.10    -0.14  -0.29   0.43
    17   1    -0.02  -0.12   0.15     0.04   0.03   0.06     0.26   0.49   0.14
    18   1    -0.00   0.02  -0.08    -0.02   0.01  -0.03     0.14  -0.03   0.09
    19   1     0.06   0.14  -0.06    -0.02   0.04   0.00     0.11  -0.13  -0.08
    20   1     0.28   0.03  -0.07     0.04   0.01  -0.01    -0.15  -0.03   0.00
    21   1     0.17  -0.12   0.10     0.01  -0.02   0.01    -0.06   0.12  -0.08
    22   1    -0.03   0.01   0.01    -0.01   0.01  -0.00     0.01   0.00  -0.03
    23   1     0.03  -0.04  -0.35    -0.00  -0.01  -0.04    -0.00   0.01   0.04
    24   1    -0.11   0.24  -0.23    -0.01   0.02  -0.02     0.02  -0.03   0.02
                      4                      5                      6
                      A                      A                      A
 Frequencies --    222.7098               231.4867               255.6747
 Red. masses --      2.0067                 2.5359                 1.9733
 Frc consts  --      0.0586                 0.0801                 0.0760
 IR Inten    --      0.3327                 0.6319                 0.3000
  Atom  AN      X      Y      Z        X      Y      Z        X      Y      Z
     1   8    -0.02   0.02  -0.02     0.01   0.07   0.00     0.03  -0.05   0.03
     2   6    -0.02   0.00   0.00     0.03   0.01   0.03     0.01   0.01  -0.04
     3   6    -0.00   0.03   0.02     0.01  -0.01  -0.02     0.02   0.03  -0.04
     4   6     0.20  -0.02   0.08     0.08  -0.02  -0.11    -0.01   0.04   0.07
     5   6    -0.01   0.02  -0.00     0.01   0.01  -0.02    -0.01   0.03  -0.02
     6   6    -0.09  -0.14  -0.03    -0.00  -0.04   0.23    -0.09  -0.13  -0.04
     7   6    -0.07   0.06  -0.00    -0.07  -0.02  -0.05     0.16  -0.03  -0.01
     8   6     0.01   0.02  -0.00    -0.14   0.02  -0.11    -0.06   0.09  -0.02
     9   6     0.01   0.02  -0.01     0.03  -0.00  -0.08    -0.01   0.04  -0.00
    10   6    -0.01   0.01  -0.02     0.06  -0.02   0.09    -0.02   0.01   0.03
    11   1     0.15   0.02   0.08     0.05  -0.11  -0.14     0.04   0.13   0.11
    12   1     0.31  -0.23  -0.00     0.12  -0.03  -0.17    -0.06   0.02   0.14
    13   1     0.34   0.09   0.23     0.13   0.05  -0.12    -0.05  -0.01   0.07
    14   1    -0.02   0.04  -0.00    -0.08   0.10  -0.04    -0.02   0.04  -0.02
    15   1    -0.30  -0.22  -0.31    -0.05   0.03   0.45    -0.20  -0.06   0.18
    16   1    -0.06  -0.44   0.18    -0.06   0.09   0.19     0.06  -0.09  -0.24
    17   1     0.01   0.05   0.02     0.10  -0.25   0.25    -0.20  -0.40  -0.10
    18   1    -0.14   0.05  -0.09    -0.04   0.01  -0.04     0.34   0.02   0.19
    19   1    -0.13   0.13   0.07    -0.11  -0.10  -0.02     0.28  -0.21  -0.17
    20   1     0.07   0.05  -0.01    -0.27  -0.01  -0.04    -0.26   0.01   0.02
    21   1     0.01  -0.05   0.00    -0.17   0.10  -0.23    -0.08   0.30  -0.08
    22   1    -0.01   0.04  -0.01     0.08  -0.00  -0.14    -0.02   0.04  -0.00
    23   1    -0.00   0.00  -0.05    -0.01   0.03   0.23    -0.03   0.04   0.10
    24   1    -0.01   0.04  -0.03     0.19  -0.13   0.14    -0.01  -0.08   0.05
                      7                      8                      9
                      A                      A                      A
 Frequencies --    286.2858               326.2265               382.3641
 Red. masses --      3.0199                 2.4780                 2.0214
 Frc consts  --      0.1458                 0.1554                 0.1741
 IR Inten    --      2.8872                 0.3686                 0.6205
  Atom  AN      X      Y      Z        X      Y      Z        X      Y      Z
     1   8    -0.10   0.20   0.08     0.04  -0.06  -0.06    -0.02  -0.05  -0.01
     2   6    -0.07   0.04   0.01     0.02  -0.01   0.07    -0.03   0.00   0.03
     3   6    -0.05  -0.03   0.01     0.03   0.01   0.17    -0.01   0.05   0.00
     4   6     0.16  -0.09  -0.10    -0.03   0.03  -0.15     0.01   0.05  -0.03
     5   6    -0.05  -0.02   0.02     0.07   0.08   0.09    -0.02   0.09  -0.01
     6   6    -0.02   0.06  -0.09    -0.01  -0.08  -0.04    -0.06   0.03  -0.02
     7   6     0.12  -0.12   0.06    -0.02  -0.05   0.14     0.04  -0.05  -0.01
     8   6    -0.01  -0.05   0.03    -0.05  -0.02  -0.02     0.12  -0.10  -0.05
     9   6    -0.03  -0.03   0.03     0.01   0.07  -0.02    -0.03   0.06  -0.07
    10   6    -0.01   0.02  -0.01    -0.02   0.05  -0.06    -0.02  -0.03   0.15
    11   1     0.31  -0.28  -0.13    -0.11  -0.25  -0.27     0.02  -0.00  -0.04
    12   1     0.16  -0.18  -0.08    -0.00   0.29  -0.26     0.01   0.07  -0.04
    13   1     0.25   0.12  -0.25    -0.06   0.08  -0.30     0.02   0.08  -0.06
    14   1    -0.01  -0.05   0.04     0.15   0.17   0.13    -0.00   0.13  -0.00
    15   1     0.10   0.06  -0.10    -0.17  -0.10  -0.12    -0.14   0.02  -0.07
    16   1    -0.01   0.13  -0.15     0.14  -0.25  -0.07    -0.03  -0.04   0.00
    17   1    -0.11   0.11  -0.12    -0.10  -0.07  -0.07    -0.05   0.04  -0.02
    18   1     0.25  -0.13   0.28    -0.03  -0.08   0.17    -0.03  -0.14   0.02
    19   1     0.26  -0.25  -0.12    -0.06  -0.15   0.16     0.05  -0.01  -0.02
    20   1    -0.10  -0.11   0.01    -0.11  -0.07  -0.06     0.34  -0.10  -0.23
    21   1    -0.01   0.06   0.02    -0.06  -0.00  -0.08     0.18  -0.27   0.16
    22   1    -0.01  -0.05   0.03    -0.03   0.14  -0.08    -0.03   0.09  -0.11
    23   1     0.03   0.02  -0.04    -0.02  -0.04  -0.19    -0.19   0.10   0.47
    24   1    -0.03   0.04  -0.02    -0.05   0.21  -0.09     0.24  -0.31   0.26
                     10                     11                     12
                      A                      A                      A
 Frequencies --    466.5766               516.4334               548.7861
 Red. masses --      3.9435                 3.6213                 3.8297
 Frc consts  --      0.5058                 0.5690                 0.6795
 IR Inten    --      2.6294                 5.3396                 1.7216
  Atom  AN      X      Y      Z        X      Y      Z        X      Y      Z
     1   8    -0.19   0.12   0.03    -0.10  -0.16  -0.04    -0.13  -0.09  -0.03
     2   6    -0.12  -0.08   0.04    -0.15   0.10   0.03    -0.11  -0.08   0.04
     3   6     0.01  -0.02   0.03    -0.10   0.15  -0.01    -0.11  -0.01   0.10
     4   6    -0.04  -0.02   0.02     0.06   0.20  -0.00    -0.04  -0.07   0.02
     5   6     0.18   0.04  -0.07     0.04  -0.10  -0.06    -0.05   0.01   0.02
     6   6     0.22  -0.13   0.04     0.15  -0.06   0.02    -0.09   0.07  -0.00
     7   6     0.06   0.06   0.01    -0.02  -0.04   0.01     0.03   0.13   0.10
     8   6     0.07   0.08  -0.03    -0.02  -0.07  -0.01     0.10   0.15  -0.08
     9   6    -0.05   0.06  -0.07     0.04  -0.10   0.03     0.20  -0.05  -0.10
    10   6    -0.12  -0.14  -0.05     0.01   0.12   0.03     0.17  -0.08  -0.06
    11   1    -0.10   0.02   0.01     0.17   0.15   0.01    -0.03  -0.12   0.01
    12   1    -0.05   0.06   0.01     0.10   0.02   0.01    -0.03  -0.08   0.01
    13   1    -0.10  -0.11   0.04     0.19   0.37  -0.01    -0.00  -0.01   0.01
    14   1     0.27   0.09  -0.03     0.06  -0.18  -0.06     0.01   0.22   0.06
    15   1     0.00  -0.10   0.12     0.25  -0.04   0.10     0.05   0.06  -0.03
    16   1     0.20  -0.20   0.13     0.00   0.07   0.08    -0.13   0.14  -0.02
    17   1     0.38  -0.26   0.10     0.28  -0.07   0.07    -0.13   0.16  -0.01
    18   1     0.09   0.05   0.07     0.04  -0.13   0.24     0.06   0.06   0.24
    19   1     0.11   0.05  -0.04     0.10  -0.13  -0.14     0.12   0.08  -0.00
    20   1     0.15   0.07  -0.12    -0.05  -0.05   0.05    -0.14   0.14   0.11
    21   1     0.10   0.02   0.10    -0.03  -0.05  -0.07     0.03   0.27  -0.38
    22   1    -0.22   0.19  -0.03     0.10  -0.13   0.00     0.17  -0.11   0.04
    23   1    -0.22  -0.17  -0.02     0.22   0.16  -0.07     0.16   0.01   0.09
    24   1    -0.07  -0.12  -0.04     0.01   0.28   0.00     0.39  -0.13  -0.01
                     13                     14                     15
                      A                      A                      A
 Frequencies --    589.2851               625.9605               698.9890
 Red. masses --      2.6384                 3.5154                 2.7502
 Frc consts  --      0.5398                 0.8116                 0.7917
 IR Inten    --      2.0088                 0.2747                 3.1410
  Atom  AN      X      Y      Z        X      Y      Z        X      Y      Z
     1   8     0.03   0.01  -0.09    -0.02   0.09  -0.01    -0.12  -0.03  -0.01
     2   6     0.03  -0.05   0.29     0.03  -0.12   0.11    -0.11   0.01   0.02
     3   6    -0.02  -0.02  -0.03     0.09   0.08  -0.01     0.11  -0.03  -0.05
     4   6    -0.02  -0.07   0.01     0.06   0.28   0.00     0.00  -0.07  -0.01
     5   6    -0.04  -0.03  -0.11    -0.03  -0.03   0.09     0.04   0.05   0.18
     6   6    -0.04   0.01  -0.01    -0.08   0.03   0.00     0.02   0.00   0.03
     7   6     0.05   0.02  -0.04     0.02  -0.01  -0.05     0.07  -0.02  -0.18
     8   6     0.04   0.04  -0.03    -0.00  -0.05  -0.05     0.01  -0.04  -0.04
     9   6    -0.03   0.02  -0.03     0.01  -0.12  -0.00     0.04  -0.01   0.04
    10   6    -0.02   0.07   0.10    -0.01  -0.23  -0.03     0.01   0.11   0.08
    11   1    -0.02  -0.03   0.02     0.01   0.36   0.01    -0.06   0.00   0.00
    12   1    -0.01  -0.12   0.01     0.03   0.38   0.02    -0.04   0.03   0.02
    13   1    -0.01  -0.08   0.05    -0.02   0.15   0.02    -0.11  -0.23   0.01
    14   1    -0.05  -0.03  -0.11    -0.12  -0.03   0.06    -0.05   0.06   0.15
    15   1    -0.05   0.03   0.05     0.04   0.01  -0.07     0.00  -0.04  -0.14
    16   1    -0.13   0.06   0.05    -0.01   0.05  -0.08     0.29  -0.15  -0.13
    17   1     0.07  -0.03   0.03    -0.24   0.14  -0.05    -0.29   0.09  -0.09
    18   1     0.12   0.01   0.08    -0.04  -0.05  -0.08    -0.07   0.03  -0.50
    19   1     0.13  -0.03  -0.15    -0.05  -0.02   0.03    -0.09   0.17   0.04
    20   1     0.12   0.04  -0.10    -0.13  -0.04   0.08    -0.15  -0.05   0.07
    21   1     0.07  -0.00   0.09    -0.03   0.07  -0.16    -0.01   0.17  -0.11
    22   1     0.03  -0.07  -0.00    -0.07  -0.04  -0.01     0.07   0.05  -0.10
    23   1    -0.11  -0.28  -0.36    -0.09  -0.43  -0.27     0.15   0.09  -0.05
    24   1     0.04   0.67   0.00    -0.05   0.07  -0.09     0.02   0.29   0.05
                     16                     17                     18
                      A                      A                      A
 Frequencies --    738.6447               793.1388               838.7223
 Red. masses --      3.5046                 2.1217                 1.5931
 Frc consts  --      1.1266                 0.7864                 0.6603
 IR Inten    --      2.3243                 4.0218                 0.0351
  Atom  AN      X      Y      Z        X      Y      Z        X      Y      Z
     1   8    -0.07  -0.01  -0.01    -0.06  -0.00   0.01     0.03   0.01  -0.00
     2   6    -0.03  -0.09  -0.03    -0.05   0.00  -0.01     0.03   0.01  -0.00
     3   6    -0.04   0.01  -0.12     0.17  -0.05   0.05    -0.08   0.03  -0.02
     4   6    -0.01  -0.00  -0.02     0.06   0.03   0.01    -0.04  -0.01  -0.01
     5   6     0.10   0.23  -0.10    -0.02  -0.02  -0.17     0.00   0.02  -0.02
     6   6    -0.05   0.08  -0.02    -0.07   0.03  -0.04     0.01  -0.01  -0.00
     7   6    -0.07  -0.08  -0.02     0.05  -0.05   0.09     0.02  -0.06   0.01
     8   6    -0.07  -0.09   0.16     0.02   0.00   0.03     0.11  -0.02  -0.05
     9   6     0.13   0.06   0.13    -0.01  -0.02   0.00     0.06   0.06   0.07
    10   6     0.13  -0.09   0.02    -0.00   0.06   0.00    -0.08  -0.03   0.03
    11   1    -0.01   0.09   0.01    -0.13   0.02  -0.04     0.07  -0.06   0.01
    12   1    -0.03  -0.03   0.01     0.01   0.39  -0.03     0.01  -0.20  -0.01
    13   1    -0.03  -0.05   0.01    -0.15  -0.21  -0.05     0.09   0.16   0.00
    14   1     0.10   0.15  -0.11     0.05  -0.07  -0.15     0.03  -0.04  -0.02
    15   1    -0.45   0.12   0.09    -0.18   0.08   0.13    -0.01   0.01   0.04
    16   1     0.01  -0.11   0.07    -0.27   0.10   0.12    -0.03   0.01   0.03
    17   1     0.12  -0.17   0.04     0.21  -0.11   0.07     0.08  -0.03   0.02
    18   1     0.07  -0.04   0.14    -0.15  -0.02  -0.28    -0.29  -0.26  -0.15
    19   1     0.07  -0.10  -0.19    -0.17   0.12   0.37    -0.05   0.28   0.14
    20   1    -0.01  -0.04   0.19    -0.16  -0.11   0.01    -0.37  -0.22   0.03
    21   1    -0.09  -0.18   0.09     0.01   0.17  -0.02     0.03   0.37  -0.36
    22   1     0.16   0.09   0.05     0.06  -0.17   0.11     0.02   0.04   0.17
    23   1     0.28  -0.20  -0.25     0.07   0.13   0.06    -0.18  -0.12  -0.04
    24   1    -0.12   0.16  -0.07     0.02   0.01   0.02    -0.23  -0.01   0.00
                     19                     20                     21
                      A                      A                      A
 Frequencies --    862.3302               877.9473               933.9044
 Red. masses --      2.2719                 2.1662                 2.5417
 Frc consts  --      0.9954                 0.9837                 1.3061
 IR Inten    --      2.2782                 0.1652                 0.5452
  Atom  AN      X      Y      Z        X      Y      Z        X      Y      Z
     1   8    -0.05   0.01   0.01    -0.01  -0.00  -0.01    -0.02   0.00  -0.02
     2   6    -0.02  -0.06  -0.05    -0.00  -0.04   0.04     0.00  -0.07   0.09
     3   6     0.07  -0.01  -0.08    -0.01  -0.01  -0.14    -0.01  -0.01   0.05
     4   6     0.03  -0.00  -0.03    -0.00   0.02  -0.06     0.02   0.03   0.05
     5   6    -0.04  -0.07   0.02    -0.03  -0.02   0.02    -0.05  -0.06  -0.01
     6   6    -0.00  -0.04   0.01     0.03  -0.03   0.01    -0.00  -0.06  -0.01
     7   6    -0.07  -0.03   0.10     0.05   0.03   0.15    -0.04  -0.09  -0.17
     8   6     0.01   0.06  -0.11    -0.04  -0.09   0.12     0.01   0.02   0.11
     9   6     0.10   0.16   0.08    -0.03   0.08  -0.11     0.04   0.19   0.04
    10   6    -0.01   0.03   0.06     0.06   0.02  -0.04     0.05   0.03  -0.12
    11   1    -0.01   0.27   0.04     0.11   0.37   0.09    -0.10  -0.24  -0.07
    12   1    -0.06   0.04   0.07    -0.07  -0.24   0.11     0.07   0.28  -0.09
    13   1    -0.10  -0.23   0.07     0.00  -0.08   0.12    -0.01   0.09  -0.11
    14   1    -0.20  -0.20  -0.04    -0.13  -0.04  -0.02    -0.10  -0.24  -0.04
    15   1     0.27  -0.07  -0.06     0.14  -0.05  -0.05     0.27  -0.05   0.02
    16   1    -0.02   0.09  -0.07     0.08  -0.01  -0.05    -0.15   0.15  -0.00
    17   1    -0.11   0.12  -0.02    -0.07   0.05  -0.03     0.04   0.07   0.01
    18   1     0.05   0.03   0.21    -0.11   0.02  -0.07     0.01  -0.10  -0.08
    19   1    -0.08  -0.32   0.06     0.03   0.32   0.22     0.01  -0.05  -0.23
    20   1     0.21   0.06  -0.29    -0.24  -0.25   0.04    -0.07   0.02   0.18
    21   1    -0.00  -0.29  -0.18    -0.05   0.12   0.07    -0.00   0.13   0.03
    22   1     0.15   0.09   0.12    -0.07   0.22  -0.26    -0.06   0.30   0.04
    23   1    -0.07  -0.09  -0.06    -0.11  -0.00   0.06    -0.23   0.11   0.21
    24   1    -0.23   0.07   0.01     0.37   0.05   0.01     0.30  -0.25  -0.02
                     22                     23                     24
                      A                      A                      A
 Frequencies --    944.8809               959.0056              1001.3255
 Red. masses --      1.7218                 2.2433                 1.9499
 Frc consts  --      0.9057                 1.2156                 1.1519
 IR Inten    --      1.6733                 2.9788                 0.1217
  Atom  AN      X      Y      Z        X      Y      Z        X      Y      Z
     1   8    -0.01  -0.01   0.01    -0.00   0.01   0.01    -0.00  -0.01  -0.01
     2   6    -0.01  -0.00  -0.09     0.01  -0.03  -0.04    -0.00  -0.00   0.04
     3   6    -0.04   0.00   0.05     0.00   0.01   0.06    -0.00   0.02   0.02
     4   6    -0.03   0.02   0.04     0.01  -0.02   0.04     0.01  -0.02  -0.01
     5   6    -0.02  -0.03  -0.00    -0.00  -0.02  -0.01     0.01  -0.02   0.03
     6   6    -0.01  -0.05  -0.01    -0.04  -0.03  -0.03    -0.01   0.04  -0.03
     7   6     0.07  -0.03  -0.01     0.07   0.18  -0.02     0.02   0.10  -0.00
     8   6    -0.05   0.04  -0.01    -0.08  -0.18   0.01    -0.01  -0.08  -0.13
     9   6    -0.05   0.08  -0.02     0.11   0.03  -0.01    -0.11   0.04   0.13
    10   6     0.11  -0.08   0.09    -0.08   0.03   0.03     0.10  -0.02  -0.05
    11   1     0.02  -0.21  -0.03    -0.08  -0.16  -0.03    -0.02   0.03   0.01
    12   1     0.05  -0.01  -0.07     0.02   0.15  -0.04    -0.02   0.01   0.03
    13   1     0.09   0.25  -0.07    -0.03  -0.03  -0.05    -0.04  -0.11   0.02
    14   1     0.05   0.09   0.03     0.08   0.01   0.02     0.04  -0.42   0.00
    15   1     0.25  -0.04   0.01     0.16  -0.01   0.05    -0.24   0.08   0.09
    16   1    -0.18   0.15   0.02    -0.24   0.17   0.04    -0.04  -0.05   0.08
    17   1     0.05   0.08   0.02     0.11   0.05   0.04     0.15  -0.14   0.03
    18   1    -0.08  -0.01  -0.28     0.17   0.24   0.05    -0.00  -0.00   0.12
    19   1    -0.07   0.14   0.19     0.20   0.25  -0.16     0.11   0.13  -0.10
    20   1     0.08  -0.05  -0.29    -0.08  -0.18   0.02    -0.09  -0.21  -0.27
    21   1     0.03   0.04   0.32    -0.11  -0.20  -0.12    -0.02  -0.06  -0.16
    22   1    -0.06   0.17  -0.13     0.33   0.04  -0.32    -0.36   0.24   0.19
    23   1     0.33  -0.19  -0.24    -0.21  -0.07  -0.02     0.33   0.16   0.05
    24   1    -0.11   0.24  -0.02    -0.30  -0.05   0.01     0.13  -0.08  -0.03
                     25                     26                     27
                      A                      A                      A
 Frequencies --   1041.3649              1044.6577              1064.2892
 Red. masses --      2.0061                 1.6192                 1.7293
 Frc consts  --      1.2818                 1.0411                 1.1541
 IR Inten    --     25.1054                10.0323                12.6040
  Atom  AN      X      Y      Z        X      Y      Z        X      Y      Z
     1   8     0.00  -0.02  -0.01     0.02  -0.01   0.01    -0.01  -0.02  -0.01
     2   6    -0.03   0.16   0.05    -0.01   0.10  -0.04    -0.03   0.12   0.06
     3   6     0.04   0.06  -0.01     0.01   0.05  -0.02     0.04   0.02  -0.04
     4   6    -0.02  -0.05  -0.05     0.07  -0.06   0.04    -0.05  -0.01   0.06
     5   6     0.12  -0.05   0.05    -0.02   0.03  -0.04    -0.00  -0.03  -0.08
     6   6    -0.12  -0.00  -0.04     0.02  -0.03   0.03     0.02   0.05   0.06
     7   6    -0.00  -0.04  -0.01    -0.07   0.02   0.02     0.05  -0.00   0.05
     8   6     0.00   0.01   0.02     0.06  -0.03   0.03    -0.06  -0.01  -0.00
     9   6     0.06  -0.01  -0.02    -0.03  -0.01  -0.04     0.07   0.02   0.02
    10   6    -0.04  -0.08  -0.02     0.00  -0.07   0.06    -0.01  -0.08  -0.05
    11   1     0.07   0.14   0.04    -0.21  -0.14  -0.06    -0.01  -0.36  -0.05
    12   1    -0.06  -0.24   0.07     0.02   0.38  -0.03     0.09  -0.03  -0.12
    13   1    -0.01  -0.13   0.09    -0.17  -0.32  -0.10     0.08   0.24  -0.10
    14   1     0.29  -0.13   0.10    -0.24  -0.00  -0.12    -0.29  -0.19  -0.19
    15   1     0.04   0.05   0.13     0.19  -0.07  -0.08    -0.14  -0.01  -0.13
    16   1    -0.41   0.23   0.10     0.08   0.03  -0.09     0.32  -0.17  -0.10
    17   1     0.11   0.06   0.06    -0.14   0.11  -0.03    -0.28   0.00  -0.06
    18   1     0.06   0.07  -0.10    -0.06  -0.12   0.27     0.13   0.25  -0.23
    19   1    -0.12  -0.19   0.10     0.12   0.07  -0.20    -0.04   0.00   0.16
    20   1     0.08   0.16   0.19    -0.14  -0.05   0.15     0.08  -0.02  -0.13
    21   1    -0.01  -0.05  -0.03     0.03   0.17  -0.10    -0.07  -0.24  -0.05
    22   1    -0.23   0.41  -0.21    -0.25   0.21  -0.07    -0.01   0.03   0.12
    23   1    -0.02  -0.06  -0.01     0.13  -0.12  -0.12    -0.14  -0.11   0.01
    24   1     0.00  -0.01  -0.02     0.03   0.19   0.01     0.03  -0.08  -0.04
                     28                     29                     30
                      A                      A                      A
 Frequencies --   1084.8669              1107.6272              1124.2835
 Red. masses --      1.4599                 1.5238                 1.6526
 Frc consts  --      1.0123                 1.1015                 1.2308
 IR Inten    --      6.6745                 2.9982                 2.2536
  Atom  AN      X      Y      Z        X      Y      Z        X      Y      Z
     1   8     0.01  -0.01  -0.02    -0.01   0.01  -0.00    -0.01   0.02   0.01
     2   6    -0.00   0.04   0.10     0.01  -0.04   0.02     0.01  -0.08  -0.04
     3   6    -0.02   0.02   0.01     0.00  -0.02   0.02     0.08  -0.04  -0.02
     4   6     0.02  -0.02  -0.04    -0.01   0.02  -0.00    -0.08   0.03   0.02
     5   6     0.01   0.06  -0.06     0.13  -0.09  -0.05     0.10   0.03  -0.06
     6   6    -0.01  -0.07   0.03    -0.07   0.06   0.07    -0.06  -0.04   0.04
     7   6     0.03  -0.01  -0.02    -0.03   0.00   0.00    -0.03   0.03   0.02
     8   6    -0.05  -0.01  -0.01     0.01   0.03   0.01     0.05  -0.04   0.01
     9   6     0.01  -0.01   0.05     0.01   0.01  -0.03    -0.05  -0.02   0.01
    10   6    -0.01  -0.02  -0.06    -0.01   0.03   0.00    -0.04   0.04   0.02
    11   1    -0.00   0.18   0.02     0.03   0.02   0.01     0.11  -0.17   0.01
    12   1    -0.06  -0.02   0.07     0.01  -0.03  -0.00     0.06  -0.19  -0.09
    13   1    -0.06  -0.19   0.06     0.03   0.06   0.01     0.14   0.35  -0.02
    14   1     0.01   0.47  -0.02    -0.00  -0.25  -0.11     0.02   0.15  -0.07
    15   1     0.36  -0.11  -0.08    -0.14   0.01  -0.09     0.24  -0.07  -0.06
    16   1    -0.06   0.15  -0.09     0.13  -0.05  -0.07    -0.10   0.15  -0.08
    17   1    -0.15   0.21  -0.01    -0.35   0.09  -0.04    -0.19   0.21  -0.00
    18   1    -0.05  -0.07  -0.05    -0.14  -0.23   0.18     0.13   0.18   0.03
    19   1     0.03   0.11   0.00     0.11   0.14  -0.13    -0.01  -0.12  -0.03
    20   1     0.01  -0.12  -0.25    -0.02  -0.05  -0.11    -0.07  -0.03   0.14
    21   1    -0.02  -0.04   0.14     0.08   0.22   0.26    -0.03  -0.09  -0.32
    22   1    -0.02  -0.14   0.28     0.14   0.11  -0.35    -0.31   0.09   0.20
    23   1     0.21   0.18   0.08     0.23   0.17   0.02     0.20   0.18   0.04
    24   1    -0.20  -0.27  -0.05    -0.36  -0.18  -0.02     0.21   0.17   0.05
                     31                     32                     33
                      A                      A                      A
 Frequencies --   1167.0935              1183.6978              1201.7532
 Red. masses --      1.6231                 2.0883                 1.7320
 Frc consts  --      1.3026                 1.7239                 1.4737
 IR Inten    --      0.4750                 1.3218                 4.4633
  Atom  AN      X      Y      Z        X      Y      Z        X      Y      Z
     1   8    -0.00  -0.01   0.01    -0.01  -0.01   0.00    -0.03  -0.00   0.01
     2   6    -0.02   0.07  -0.07    -0.01   0.04   0.01    -0.00  -0.01  -0.05
     3   6    -0.02  -0.06   0.08     0.07  -0.03   0.17     0.12   0.16   0.04
     4   6     0.03   0.03  -0.04    -0.04   0.01  -0.09    -0.06  -0.06  -0.01
     5   6     0.07  -0.10  -0.03    -0.12  -0.01  -0.08     0.03   0.04  -0.01
     6   6    -0.04   0.04   0.04     0.06   0.01   0.01    -0.01  -0.03   0.00
     7   6    -0.03   0.01  -0.05    -0.01   0.04  -0.06     0.00   0.05  -0.03
     8   6    -0.01  -0.01   0.04     0.06  -0.07   0.02    -0.04  -0.02  -0.01
     9   6    -0.00   0.07  -0.02    -0.02   0.08  -0.03    -0.03  -0.01   0.04
    10   6     0.02  -0.01   0.02     0.04  -0.05   0.03     0.03  -0.01  -0.03
    11   1     0.04   0.22   0.03     0.19   0.28   0.07     0.07  -0.12   0.01
    12   1    -0.05   0.00   0.07    -0.10  -0.34   0.10    -0.02  -0.28   0.00
    13   1    -0.01  -0.08   0.07     0.09   0.03   0.20     0.03  -0.00   0.06
    14   1     0.30   0.17   0.08    -0.23   0.06  -0.11    -0.16  -0.20  -0.09
    15   1    -0.11   0.01  -0.06    -0.04  -0.01  -0.06     0.10  -0.03   0.01
    16   1     0.08  -0.05  -0.02     0.16  -0.10  -0.03    -0.06   0.07  -0.02
    17   1    -0.20   0.03  -0.02    -0.01  -0.08  -0.02    -0.02   0.07   0.00
    18   1     0.05   0.06   0.01     0.13   0.14   0.01    -0.21  -0.35   0.26
    19   1     0.11   0.12  -0.20    -0.15  -0.33   0.04    -0.07  -0.10   0.04
    20   1    -0.09  -0.21  -0.21    -0.08   0.03   0.31    -0.01  -0.04  -0.06
    21   1    -0.03  -0.01  -0.03     0.03   0.16  -0.08     0.04   0.15   0.30
    22   1    -0.06  -0.19   0.42     0.02   0.09  -0.10     0.24  -0.28   0.05
    23   1    -0.35  -0.25  -0.06     0.23  -0.01  -0.06    -0.31  -0.18  -0.02
    24   1     0.26   0.20   0.02    -0.31  -0.10  -0.03     0.30   0.08   0.01
                     34                     35                     36
                      A                      A                      A
 Frequencies --   1226.2881              1264.5766              1274.8801
 Red. masses --      1.7074                 1.6381                 1.6470
 Frc consts  --      1.5128                 1.5434                 1.5772
 IR Inten    --      3.3272                 0.6911                 2.0344
  Atom  AN      X      Y      Z        X      Y      Z        X      Y      Z
     1   8     0.01   0.01   0.01     0.01   0.01   0.00    -0.01  -0.01  -0.00
     2   6     0.02  -0.05  -0.05    -0.00   0.00  -0.01    -0.02   0.06   0.01
     3   6    -0.10   0.00   0.10     0.09  -0.01   0.05     0.02  -0.10   0.04
     4   6     0.04  -0.00  -0.04    -0.03   0.00  -0.03    -0.01   0.03  -0.02
     5   6     0.02   0.02  -0.09    -0.05  -0.00   0.04     0.04   0.12   0.02
     6   6     0.00  -0.00   0.05     0.02   0.01  -0.04    -0.02  -0.05  -0.01
     7   6     0.11  -0.01  -0.01    -0.01  -0.05  -0.01    -0.04  -0.07   0.05
     8   6    -0.06   0.00  -0.04    -0.05   0.06   0.05    -0.00  -0.00  -0.07
     9   6     0.02  -0.03   0.06     0.09   0.01  -0.06    -0.05  -0.02   0.01
    10   6    -0.02   0.03   0.01    -0.11  -0.05   0.01     0.07   0.02  -0.00
    11   1    -0.02   0.19   0.01     0.11   0.04   0.03     0.07   0.10   0.03
    12   1    -0.08   0.04   0.09    -0.01  -0.13  -0.00    -0.01  -0.03  -0.00
    13   1    -0.03  -0.15   0.07     0.06   0.06   0.08     0.06   0.08   0.05
    14   1    -0.06  -0.15  -0.13    -0.25  -0.04  -0.03    -0.19  -0.37  -0.11
    15   1     0.02  -0.04  -0.08    -0.06   0.04   0.05     0.15  -0.03   0.04
    16   1     0.10   0.00  -0.07    -0.03  -0.04   0.05    -0.10   0.10  -0.03
    17   1    -0.17   0.07  -0.02     0.14  -0.09   0.00     0.05   0.11   0.02
    18   1    -0.18  -0.26  -0.09    -0.12  -0.22   0.08     0.12   0.21  -0.13
    19   1    -0.04   0.10   0.18     0.27   0.46  -0.27     0.30   0.43  -0.27
    20   1     0.21   0.38   0.34     0.07  -0.01  -0.17     0.07   0.20   0.20
    21   1    -0.09  -0.28  -0.14    -0.09  -0.22  -0.09     0.03   0.05   0.06
    22   1    -0.16   0.25  -0.09    -0.07   0.04   0.12     0.08  -0.15   0.01
    23   1    -0.10  -0.01   0.01     0.36   0.21   0.04    -0.23  -0.18  -0.04
    24   1     0.25   0.15   0.04     0.18   0.19   0.02    -0.14  -0.12  -0.02
                     37                     38                     39
                      A                      A                      A
 Frequencies --   1287.7789              1308.2551              1336.7862
 Red. masses --      1.3979                 1.6214                 1.7006
 Frc consts  --      1.3658                 1.6350                 1.7905
 IR Inten    --      0.1581                 0.5202                10.9934
  Atom  AN      X      Y      Z        X      Y      Z        X      Y      Z
     1   8     0.02   0.01   0.00    -0.01  -0.01   0.00     0.01  -0.01  -0.00
     2   6     0.01  -0.01  -0.02    -0.01   0.03  -0.01    -0.02   0.07   0.02
     3   6    -0.07  -0.04   0.05     0.06  -0.11  -0.02     0.02  -0.09  -0.06
     4   6     0.02   0.01  -0.02    -0.02   0.03   0.01    -0.00   0.02   0.02
     5   6     0.01   0.07  -0.01    -0.05  -0.01  -0.02    -0.03  -0.02  -0.01
     6   6     0.00  -0.01   0.00     0.02   0.01  -0.02    -0.01   0.00   0.02
     7   6    -0.03   0.00  -0.00    -0.02   0.04   0.01     0.00   0.02   0.02
     8   6     0.02   0.00  -0.01    -0.02  -0.00  -0.05    -0.00  -0.04  -0.07
     9   6     0.06  -0.04   0.04     0.08  -0.09   0.10    -0.05   0.10   0.08
    10   6    -0.10  -0.03  -0.01     0.02   0.04  -0.01    -0.06  -0.10  -0.04
    11   1    -0.03   0.13   0.01     0.08   0.02   0.03     0.02  -0.00   0.02
    12   1    -0.05   0.04   0.06     0.04   0.00  -0.06     0.05   0.07  -0.07
    13   1     0.00  -0.04   0.03     0.07   0.15   0.00     0.02   0.09  -0.05
    14   1    -0.15  -0.30  -0.09    -0.11   0.43   0.00     0.32   0.16   0.12
    15   1     0.04  -0.01   0.01    -0.05   0.02   0.01     0.05  -0.02  -0.03
    16   1    -0.01   0.03  -0.02    -0.02  -0.01   0.03     0.05  -0.03  -0.02
    17   1    -0.00   0.04   0.00     0.06  -0.05  -0.01    -0.03  -0.00   0.01
    18   1     0.21   0.34  -0.16    -0.11  -0.15   0.17    -0.11  -0.15   0.10
    19   1    -0.11  -0.21   0.05     0.05   0.00  -0.08     0.05   0.03  -0.03
    20   1    -0.08  -0.24  -0.31     0.01  -0.02  -0.10     0.08   0.25   0.32
    21   1     0.10   0.28   0.29     0.08   0.19   0.31     0.04   0.13   0.09
    22   1     0.11   0.05  -0.14    -0.30   0.47  -0.17     0.47  -0.19  -0.20
    23   1     0.12   0.12   0.03    -0.34  -0.11   0.04     0.23   0.13   0.06
    24   1     0.37   0.20   0.03     0.04   0.01   0.01     0.34   0.19  -0.01
                     40                     41                     42
                      A                      A                      A
 Frequencies --   1348.4197              1369.0686              1414.8186
 Red. masses --      1.5021                 1.9678                 1.3887
 Frc consts  --      1.6091                 2.1731                 1.6378
 IR Inten    --      1.8445                 1.3107                 1.6351
  Atom  AN      X      Y      Z        X      Y      Z        X      Y      Z
     1   8     0.00   0.01   0.00    -0.00   0.01   0.00    -0.00   0.00   0.00
     2   6     0.01  -0.05  -0.01     0.01  -0.07  -0.02    -0.00  -0.01   0.00
     3   6    -0.01   0.07  -0.01     0.03   0.18   0.04     0.05   0.02  -0.01
     4   6     0.00  -0.02   0.01    -0.01  -0.04  -0.02    -0.02  -0.02  -0.00
     5   6     0.00  -0.04   0.01    -0.04  -0.08  -0.05    -0.13   0.07  -0.04
     6   6     0.00   0.02  -0.00     0.03   0.02   0.01    -0.02  -0.00   0.06
     7   6    -0.02  -0.02   0.03    -0.06  -0.11   0.05    -0.01  -0.01  -0.00
     8   6    -0.05  -0.09  -0.09     0.03   0.02  -0.03    -0.01   0.01   0.00
     9   6     0.08   0.04  -0.07    -0.05  -0.02   0.10     0.04  -0.04  -0.02
    10   6    -0.02   0.01   0.01     0.01   0.00  -0.02     0.00   0.02   0.01
    11   1    -0.04  -0.04  -0.01     0.00  -0.03  -0.01     0.07   0.03   0.03
    12   1     0.00   0.00   0.00    -0.03  -0.09   0.03     0.01   0.03  -0.04
    13   1    -0.03  -0.04  -0.03    -0.03  -0.11   0.04     0.04   0.05   0.02
    14   1     0.00   0.02   0.02     0.12   0.38   0.05     0.74  -0.39   0.19
    15   1    -0.05   0.02  -0.00    -0.12  -0.00  -0.07     0.20  -0.08  -0.16
    16   1     0.02  -0.04   0.02     0.01  -0.00   0.03     0.22  -0.05  -0.15
    17   1     0.00  -0.05  -0.01    -0.11  -0.06  -0.04     0.01  -0.03   0.06
    18   1     0.09   0.15  -0.05     0.26   0.40  -0.24     0.02  -0.00   0.05
    19   1     0.03   0.07   0.00     0.21   0.33  -0.20     0.02   0.08  -0.02
    20   1     0.07   0.23   0.35     0.01   0.02  -0.01    -0.04  -0.05  -0.07
    21   1     0.10   0.33   0.51     0.02   0.01  -0.08     0.01  -0.03   0.07
    22   1    -0.27  -0.02   0.49     0.14   0.14  -0.38    -0.14   0.11   0.01
    23   1     0.09   0.10   0.04    -0.04   0.00   0.02    -0.00  -0.03  -0.06
    24   1    -0.07   0.06   0.00     0.14   0.02   0.01    -0.03  -0.07   0.02
                     43                     44                     45
                      A                      A                      A
 Frequencies --   1439.0124              1443.4900              1482.1876
 Red. masses --      1.2921                 1.2503                 1.0923
 Frc consts  --      1.5764                 1.5349                 1.4139
 IR Inten    --      4.7084                 3.3096                 7.9254
  Atom  AN      X      Y      Z        X      Y      Z        X      Y      Z
     1   8    -0.01  -0.00   0.00     0.00   0.00   0.00     0.00   0.00   0.00
     2   6     0.01  -0.00  -0.00    -0.00  -0.00  -0.00     0.00  -0.01  -0.00
     3   6    -0.01   0.03   0.00    -0.01  -0.01   0.01    -0.00   0.00   0.00
     4   6    -0.02  -0.12  -0.01     0.02   0.08  -0.00     0.00  -0.00  -0.00
     5   6     0.04  -0.02   0.01     0.03  -0.01  -0.00    -0.00   0.01  -0.00
     6   6    -0.07   0.04  -0.01    -0.11   0.05  -0.00     0.00  -0.00   0.01
     7   6     0.00  -0.00  -0.00    -0.00  -0.01  -0.00    -0.00  -0.00  -0.00
     8   6     0.00   0.00   0.00     0.01   0.00  -0.01     0.01   0.01   0.00
     9   6    -0.01   0.00   0.00    -0.01  -0.00   0.01    -0.01  -0.01  -0.01
    10   6     0.00  -0.00  -0.00     0.00   0.00  -0.00     0.05  -0.06  -0.03
    11   1     0.06   0.39   0.18    -0.05  -0.29  -0.13    -0.01  -0.00  -0.00
    12   1    -0.08   0.48  -0.09     0.03  -0.32   0.09    -0.01  -0.00   0.01
    13   1     0.30   0.35  -0.01    -0.20  -0.26   0.04     0.00  -0.00   0.00
    14   1    -0.15   0.09  -0.04    -0.10   0.08  -0.04     0.04  -0.05   0.00
    15   1     0.31   0.03   0.02     0.46   0.01  -0.04    -0.01  -0.01  -0.03
    16   1     0.19  -0.25  -0.05     0.30  -0.32  -0.12     0.00   0.03  -0.02
    17   1     0.25  -0.13   0.10     0.38  -0.21   0.16    -0.00   0.01   0.00
    18   1     0.01   0.01  -0.02     0.03   0.02   0.01     0.01   0.00   0.01
    19   1    -0.01  -0.00   0.01    -0.01   0.04   0.02    -0.00   0.00   0.00
    20   1    -0.02  -0.01   0.01    -0.03  -0.00   0.01    -0.10  -0.04   0.02
    21   1    -0.00  -0.02  -0.02     0.01  -0.02   0.01     0.01  -0.10   0.03
    22   1     0.02  -0.02  -0.01     0.01   0.02  -0.03    -0.01  -0.01  -0.02
    23   1    -0.02   0.00   0.02    -0.02  -0.00   0.01    -0.22   0.26   0.61
    24   1    -0.00   0.01  -0.01     0.02   0.01  -0.00    -0.34   0.57  -0.19
                     46                     47                     48
                      A                      A                      A
 Frequencies --   1516.2516              1520.2606              1523.4227
 Red. masses --      1.0610                 1.0511                 1.0510
 Frc consts  --      1.4372                 1.4313                 1.4371
 IR Inten    --      2.5844                 7.5470                 4.4057
  Atom  AN      X      Y      Z        X      Y      Z        X      Y      Z
     1   8     0.00   0.00  -0.00    -0.00  -0.00   0.00     0.01   0.00   0.00
     2   6    -0.00  -0.00   0.00     0.00   0.00   0.00    -0.00  -0.00  -0.00
     3   6    -0.00   0.00  -0.01    -0.00  -0.00  -0.02    -0.03   0.00   0.00
     4   6    -0.00   0.01  -0.03    -0.00   0.01  -0.04    -0.05   0.01   0.01
     5   6     0.00   0.01  -0.00    -0.01  -0.01  -0.01     0.01   0.00   0.00
     6   6     0.01   0.02  -0.01    -0.00  -0.02  -0.02     0.00   0.01   0.00
     7   6     0.00   0.02   0.04    -0.00  -0.01  -0.01     0.00  -0.00  -0.01
     8   6     0.01   0.02  -0.01    -0.01  -0.02   0.01     0.00  -0.00   0.00
     9   6     0.00   0.00  -0.00    -0.00  -0.00   0.00    -0.00   0.00  -0.00
    10   6    -0.00   0.00   0.00     0.00  -0.00  -0.00    -0.00  -0.00  -0.00
    11   1     0.05  -0.24  -0.08     0.12  -0.32  -0.10     0.64  -0.06   0.16
    12   1    -0.19   0.16   0.18    -0.23   0.24   0.21     0.28   0.20  -0.46
    13   1     0.14  -0.00   0.35     0.18  -0.02   0.48    -0.17  -0.30   0.22
    14   1     0.03  -0.02   0.00     0.05   0.01   0.01    -0.04  -0.01  -0.01
    15   1     0.19  -0.00  -0.04    -0.06   0.08   0.31     0.05  -0.02  -0.08
    16   1    -0.15  -0.12   0.27     0.12  -0.12  -0.05    -0.07   0.00   0.08
    17   1    -0.22  -0.22  -0.10     0.01   0.32   0.01    -0.06  -0.13  -0.03
    18   1    -0.24  -0.03  -0.29     0.12   0.02   0.15     0.06   0.02   0.05
    19   1     0.18  -0.26  -0.24    -0.09   0.12   0.12    -0.06   0.04   0.07
    20   1    -0.23  -0.05   0.10     0.24   0.06  -0.09     0.01  -0.00  -0.01
    21   1     0.04  -0.21   0.14    -0.04   0.22  -0.13    -0.00   0.01  -0.01
    22   1    -0.00  -0.01   0.01    -0.01   0.01  -0.01     0.01  -0.01   0.01
    23   1     0.01  -0.01  -0.02    -0.01   0.01   0.03    -0.00   0.00   0.01
    24   1     0.01  -0.02   0.01    -0.02   0.03  -0.01    -0.00   0.01  -0.00
                     49                     50                     51
                      A                      A                      A
 Frequencies --   1530.5726              1537.0691              1547.8161
 Red. masses --      1.0524                 1.0591                 1.0897
 Frc consts  --      1.4526                 1.4742                 1.5381
 IR Inten    --      0.5853                 1.3099                 7.0581
  Atom  AN      X      Y      Z        X      Y      Z        X      Y      Z
     1   8     0.00   0.00   0.00     0.00   0.00   0.00     0.00   0.00  -0.00
     2   6    -0.00  -0.00  -0.00    -0.00  -0.01  -0.00    -0.00  -0.01  -0.00
     3   6     0.00   0.01   0.01    -0.01   0.02   0.01    -0.00   0.01   0.00
     4   6     0.00  -0.00   0.02    -0.01   0.00   0.01    -0.00  -0.00   0.00
     5   6    -0.02   0.01  -0.02    -0.01  -0.02  -0.01    -0.00   0.00   0.00
     6   6     0.01   0.01  -0.04    -0.02  -0.03  -0.01    -0.01   0.01   0.02
     7   6     0.00   0.00   0.01     0.00   0.02   0.03     0.00   0.02   0.04
     8   6    -0.01  -0.01   0.01     0.01   0.01  -0.01    -0.03  -0.04   0.04
     9   6     0.00  -0.01   0.00     0.01   0.01  -0.00    -0.00  -0.01  -0.00
    10   6     0.01  -0.00  -0.00    -0.00   0.00   0.00     0.01  -0.00  -0.00
    11   1    -0.04   0.14   0.05     0.14   0.02   0.05     0.02  -0.00   0.01
    12   1     0.13  -0.14  -0.12     0.10   0.00  -0.14     0.02  -0.00  -0.02
    13   1    -0.12  -0.01  -0.24    -0.08  -0.09  -0.01    -0.01  -0.02   0.00
    14   1     0.09  -0.05   0.00     0.01   0.03   0.01     0.01  -0.02   0.00
    15   1     0.27   0.14   0.46    -0.20   0.07   0.31    -0.01  -0.06  -0.21
    16   1    -0.02  -0.44   0.36     0.25  -0.01  -0.29     0.00   0.12  -0.09
    17   1    -0.31   0.14  -0.14     0.23   0.48   0.11     0.11  -0.15   0.05
    18   1    -0.04  -0.00  -0.05    -0.22  -0.02  -0.29    -0.25  -0.03  -0.30
    19   1     0.04  -0.04  -0.05     0.17  -0.23  -0.22     0.19  -0.26  -0.24
    20   1     0.15   0.03  -0.07    -0.18  -0.04   0.08     0.48   0.10  -0.21
    21   1    -0.03   0.13  -0.09     0.03  -0.16   0.12    -0.09   0.44  -0.29
    22   1    -0.02   0.01  -0.01    -0.00   0.01   0.00    -0.02  -0.01   0.01
    23   1    -0.02   0.01   0.04     0.02  -0.00  -0.02    -0.03   0.02   0.06
    24   1    -0.03   0.04  -0.01     0.01  -0.02   0.01    -0.04   0.05  -0.02
                     52                     53                     54
                      A                      A                      A
 Frequencies --   1842.8922              3021.5848              3048.8438
 Red. masses --     12.5024                 1.0838                 1.0362
 Frc consts  --     25.0174                 5.8300                 5.6748
 IR Inten    --    218.3091                26.7754                14.6137
  Atom  AN      X      Y      Z        X      Y      Z        X      Y      Z
     1   8    -0.51  -0.12  -0.01    -0.00   0.00   0.00    -0.00  -0.00  -0.00
     2   6     0.79   0.18   0.01     0.00  -0.00  -0.00     0.00  -0.00  -0.00
     3   6    -0.04  -0.00  -0.00     0.00   0.00  -0.00    -0.00  -0.00  -0.00
     4   6     0.01   0.01  -0.00    -0.00  -0.00   0.00     0.00   0.03  -0.00
     5   6    -0.03   0.00  -0.00     0.03   0.01  -0.08    -0.00   0.00   0.00
     6   6     0.00  -0.00   0.00     0.00  -0.00   0.01     0.03  -0.01   0.01
     7   6    -0.01  -0.01   0.02     0.00  -0.00  -0.00    -0.00  -0.00  -0.00
     8   6     0.00   0.00  -0.00     0.00   0.00  -0.00    -0.00  -0.00   0.00
     9   6    -0.02  -0.01  -0.00     0.00   0.00   0.00    -0.00  -0.00  -0.00
    10   6    -0.05  -0.01  -0.00    -0.00   0.00   0.01    -0.00   0.00   0.00
    11   1     0.03  -0.03  -0.02     0.01   0.01  -0.03    -0.10  -0.12   0.38
    12   1     0.05  -0.03  -0.01     0.01   0.00   0.01    -0.27  -0.05  -0.21
    13   1    -0.07  -0.10   0.00    -0.01   0.01   0.00     0.34  -0.24  -0.14
    14   1     0.03   0.00   0.01    -0.30  -0.10   0.93     0.01   0.00  -0.02
    15   1     0.00  -0.00  -0.00     0.01   0.06  -0.02     0.02   0.40  -0.12
    16   1     0.01  -0.00  -0.01    -0.04  -0.04  -0.04    -0.29  -0.22  -0.28
    17   1     0.00   0.00   0.00     0.02   0.00  -0.05    -0.12  -0.02   0.33
    18   1    -0.02   0.03  -0.06    -0.01   0.01   0.01    -0.00   0.00   0.00
    19   1     0.05  -0.01  -0.04     0.01  -0.00   0.01     0.01  -0.00   0.01
    20   1     0.01   0.01   0.00     0.01  -0.01   0.01    -0.01   0.02  -0.01
    21   1    -0.01   0.01  -0.02    -0.01   0.00   0.00     0.03  -0.00  -0.01
    22   1    -0.04  -0.01  -0.01    -0.02  -0.02  -0.02     0.01   0.01   0.01
    23   1     0.09   0.08   0.04     0.01  -0.02   0.02     0.00  -0.01   0.01
    24   1     0.04   0.07   0.00     0.01  -0.01  -0.08     0.00  -0.00  -0.02
                     55                     56                     57
                      A                      A                      A
 Frequencies --   3050.7837              3054.4984              3062.7425
 Red. masses --      1.0369                 1.0632                 1.0595
 Frc consts  --      5.6859                 5.8444                 5.8558
 IR Inten    --     32.6331                15.6857                28.3514
  Atom  AN      X      Y      Z        X      Y      Z        X      Y      Z
     1   8    -0.00  -0.00   0.00    -0.00  -0.00   0.00    -0.00  -0.00   0.00
     2   6     0.00  -0.00  -0.00     0.00   0.00  -0.00     0.00  -0.00  -0.00
     3   6    -0.00  -0.00   0.00    -0.00   0.00   0.00    -0.00   0.00   0.00
     4   6     0.00   0.03  -0.00    -0.00   0.00   0.00     0.00   0.01  -0.00
     5   6     0.00   0.00  -0.00     0.00   0.00  -0.01     0.00  -0.00  -0.00
     6   6    -0.03   0.01  -0.00    -0.00  -0.00   0.00    -0.00   0.00  -0.00
     7   6     0.00  -0.01  -0.01     0.00  -0.00  -0.00    -0.00   0.03   0.05
     8   6     0.00   0.00  -0.00    -0.00   0.00   0.00     0.02   0.03  -0.02
[...]
 7,-0.00510368,-0.00094251,0.00026868,-0.00044908,0.00017639,-0.0209054
 3,0.01306151,0.01325086,-0.19009762,0.09656064,0.08799150,0.00008441,-
 0.00011206,-0.00086285,-0.00000367,-0.00003983,0.00001103,0.00107565,0
 .00097082,-0.00027734,0.00005935,-0.00019681,-0.00049070,0.00000576,0.
 00002666,-0.00003078,-0.00005808,0.00011269,0.00000494,0.00008584,0.00
 005880,-0.00007517,0.00066594,0.00026020,-0.00061470,-0.00594088,0.003
 88209,0.00319830,0.20771008,-0.00038188,-0.00049219,-0.00035458,-0.000
 70134,0.00130359,0.00095561,-0.00280956,-0.00334795,0.00027788,-0.0000
 6470,-0.00045962,-0.00007384,-0.01714679,0.01072485,0.01121563,0.09648
 105,-0.11288122,-0.05993755,-0.00004875,-0.00015232,-0.00046009,0.0000
 8490,0.00007021,-0.00000678,-0.00003579,0.00157517,0.00001520,0.000120
 28,0.00006533,-0.00030195,-0.00004026,0.00004078,-0.00001491,0.0000296
 1,0.00021775,-0.00002314,0.00002836,0.00040442,0.00009844,0.00091316,0
 .00073111,-0.00012917,0.01868018,-0.01289446,-0.01331650,-0.10329843,0
 .12096197,0.00012425,0.00026153,0.00001953,0.00013376,-0.00059820,-0.0
 0011102,0.00006663,0.00093802,0.00073326,-0.00000746,0.00006681,0.0000
 6875,0.00218517,-0.00108881,-0.00253987,0.08800214,-0.06009115,-0.1045
 3140,-0.00004965,-0.00024538,0.00011473,0.00010587,-0.00013022,-0.0001
 0702,0.00031923,-0.00082461,0.00013310,-0.00008349,0.00026521,0.000065
 61,0.00009506,0.00002029,0.00001364,0.00000764,-0.00009239,0.00001677,
 -0.00005196,-0.00008293,-0.00013197,-0.00014444,0.00046171,0.00045276,
 -0.01526564,0.00928214,0.00977849,-0.09791245,0.06570173,0.10864152,0.
 00012474,0.00018177,0.00000249,0.00027501,-0.00031540,-0.00013707,0.00
 090205,0.00037463,-0.00076595,-0.00026856,-0.00011576,0.00009479,-0.00
 877637,-0.00792158,-0.02538199,-0.08076736,-0.03015121,-0.07877544,-0.
 00055206,-0.00038809,0.00023697,0.00014091,-0.00044515,0.00030023,0.00
 060931,0.00075856,-0.00045362,0.00002027,0.00011857,-0.00003663,0.0001
 8502,-0.00004090,0.00009767,-0.00000312,0.00011419,0.00004636,-0.00004
 015,0.00019907,-0.00007713,-0.00401655,-0.00380637,0.00099997,-0.00349
 283,-0.00278482,-0.00718475,0.00996364,0.00739468,0.02253779,0.0853402
 8,0.00000778,-0.00007370,0.00000255,0.00021002,0.00016583,-0.00013528,
 0.00075157,0.00037782,0.00000300,-0.00000006,0.00009624,0.00022020,-0.
 00578990,-0.00687173,-0.01884852,-0.03025921,-0.07915308,-0.07660568,-
 0.00026538,0.00048826,0.00008234,-0.00077376,-0.00035003,0.00011264,0.
 00043060,0.00047476,-0.00103899,-0.00005578,0.00003762,0.00010883,-0.0
 0001102,-0.00008638,-0.00001917,-0.00006067,0.00003295,-0.00005142,-0.
 00001553,-0.00002827,0.00002210,-0.00360676,-0.00188096,0.00083139,0.0
 0886587,0.01072688,0.02390983,-0.00637356,-0.00589141,-0.01478735,0.03
 567727,0.08209184,-0.00019100,-0.00007718,-0.00001755,-0.00008104,0.00
 013665,0.00007678,0.00017903,-0.00064566,0.00008015,-0.00016571,-0.000
 17361,0.00005809,0.00030062,0.00086819,0.00557024,-0.07961365,-0.07730
 920,-0.25259785,0.00042362,0.00014868,-0.00093700,0.00035472,0.0003973
 2,-0.00088496,-0.00059366,0.00010987,-0.00002046,0.00002962,-0.0002042
 5,0.00011165,0.00011141,0.00003931,0.00004184,-0.00001542,0.00005120,0
 .00003125,-0.00000817,0.00010956,-0.00005517,0.00103350,0.00073944,0.0
 0134091,-0.00504311,-0.00652788,-0.01581784,-0.00495153,-0.00369770,-0
 .01282096,0.08659974,0.08463883,0.27636079,-0.00050310,-0.00073335,0.0
 0023909,-0.00038990,0.00266250,-0.00286649,-0.00786683,-0.01172095,-0.
 00463207,0.00043255,-0.00078401,0.00077936,0.00021794,0.00070221,0.000
 38724,-0.00006564,-0.00005623,0.00045791,-0.11056729,-0.11346108,-0.01
 561229,0.00941687,0.01984544,0.00353235,-0.00178422,0.00209718,-0.0006
 8996,-0.00003233,-0.00049399,0.00069374,0.00021422,0.00021106,0.000207
 33,-0.00025002,-0.00009987,-0.00005609,0.00011860,0.00070207,-0.000378
 39,-0.00000963,-0.00006354,-0.00001419,-0.00001685,-0.00001468,-0.0000
 5863,0.00014142,0.00006180,-0.00007215,-0.00045317,0.00014864,0.000803
 99,0.12238936,0.00033323,0.00016811,-0.00027044,-0.00011757,0.00028386
 ,0.00017997,0.00065385,0.00057715,0.00007512,0.00063210,0.00092749,0.0
 0041326,-0.00079692,-0.00017894,0.00011228,-0.00096852,-0.00009515,-0.
 00052236,-0.11248088,-0.24159569,-0.03260015,-0.00999046,-0.01874560,-
 0.00228351,0.00218790,-0.00193477,0.00106660,0.00024208,0.00064875,0.0
 0047642,0.00012688,0.00020146,-0.00009677,-0.00001653,-0.00002684,-0.0
 0004129,-0.00033571,0.00050951,-0.00027932,0.00014242,0.00010587,-0.00
 019287,0.00009496,0.00008413,0.00010837,0.00017761,0.00010530,0.000356
 97,0.00059104,0.00030431,0.00041084,0.11958568,0.26091600,-0.00259742,
 -0.00134428,0.00149165,0.00156729,0.00435646,-0.00621631,-0.01955733,-
 0.02799794,-0.00942492,0.00053236,-0.00126056,0.00194199,-0.00015445,0
 .00001143,0.00152125,0.00024722,-0.00008121,-0.00037715,-0.01565881,-0
 .03383030,-0.05143305,0.00122492,0.00285156,0.00002630,0.00047209,-0.0
 0030433,-0.00099878,0.00018567,0.00009107,0.00152976,0.00047890,-0.000
 14167,0.00024842,-0.00003907,0.00015347,-0.00003527,0.00017241,0.00099
 018,-0.00011974,0.00009850,0.00038180,0.00010063,0.00004730,0.00004093
 ,-0.00007156,0.00009700,0.00019836,0.00027525,0.00119756,-0.00006802,-
 0.00041503,0.02000594,0.03475606,0.05660891,0.00069589,0.00041208,0.00
 012547,0.00093016,-0.00064505,-0.00066260,0.01132573,0.00100471,-0.009
 58377,0.00044724,-0.00041850,0.00044186,-0.00123052,-0.00001096,-0.003
 11866,-0.00027070,-0.00015991,-0.00026758,-0.19072867,-0.01300517,0.13
 284161,-0.01244503,-0.00257461,0.01030153,-0.00135298,0.00078665,-0.00
 052661,-0.00026318,0.00000210,0.00010595,-0.00005166,-0.00005500,0.000
 10783,-0.00001640,0.00004142,0.00021906,-0.00003987,0.00005419,-0.0000
 6266,0.00079487,-0.00050139,-0.00039080,0.00001124,-0.00001799,0.00009
 631,0.00012043,0.00008913,0.00010934,0.00025221,0.00023322,0.00010169,
 -0.01194323,-0.00157529,0.01164815,0.20326060,0.00009996,0.00003857,0.
 00023415,0.00021795,0.00010556,-0.00173012,-0.00036336,-0.00111868,-0.
 00108151,-0.00050447,0.00007909,0.00009546,0.00032066,-0.00087888,-0.0
 0039346,-0.00029421,0.00003485,-0.00013892,-0.01408248,-0.05085601,0.0
 1240459,0.01756463,0.00191396,-0.01658364,0.00232830,-0.00169386,-0.00
 040488,0.00016140,0.00010934,-0.00014011,0.00021450,-0.00000210,-0.000
 08334,0.00026425,0.00003461,0.00008634,-0.00004271,0.00016191,0.000043
 98,0.00015952,0.00008450,-0.00019955,0.00003095,0.00005122,0.00002908,
 0.00005276,0.00007619,0.00018892,0.00032592,0.00001343,0.00019049,-0.0
 2125838,-0.00148014,0.02065101,0.01385320,0.05436777,-0.00176537,0.000
 13301,0.00073570,0.00392113,0.00097641,-0.00079770,0.01988787,-0.00041
 903,-0.01863111,0.00053971,-0.00059408,0.00022259,-0.00324651,-0.00045
 476,-0.00540813,-0.00067717,-0.00029328,0.00008591,0.13211572,0.011712
 92,-0.16922608,-0.00435914,0.00025680,0.00308454,-0.00040849,0.0005956
 6,-0.00051353,0.00013020,0.00002105,-0.00017097,-0.00045023,0.00011684
 ,0.00010453,-0.00058479,0.00057470,0.00002995,-0.00006534,-0.00002703,
 -0.00002036,0.00157302,-0.00092845,-0.00094613,0.00001729,0.00001463,-
 0.00001055,0.00012827,0.00004351,0.00006703,0.00002875,0.00015245,0.00
 020852,-0.00354184,0.00005909,0.00435469,-0.14201186,-0.01174095,0.185
 58690,-0.00007460,-0.00028719,0.00011668,0.00011020,0.00083734,-0.0002
 8890,-0.00117718,0.00206209,-0.00059098,-0.00031976,-0.00022299,-0.000
 87373,-0.00075541,0.00036583,-0.00089861,0.00000282,-0.00041598,-0.000
 16053,0.00484570,0.01310536,-0.01448333,-0.06701541,-0.04516492,0.0481
 1773,-0.00027609,0.00106839,-0.00236259,0.00053347,0.00049283,-0.00149
 738,-0.00023640,0.00024304,-0.00011248,0.00002031,0.00000694,0.0000123
 7,0.00000285,-0.00008118,0.00005290,0.00013748,0.00023607,-0.00019884,
 0.00009132,0.00006138,0.00021140,0.00004476,0.00004379,0.00001656,0.00
 012648,0.00038250,0.00021317,-0.00101821,0.00175643,-0.00062364,0.0015
 2645,-0.00043622,-0.00006607,0.07097318,0.00028735,0.00026164,-0.00012
 026,-0.00048605,-0.00080990,0.00023842,0.00087851,-0.00193183,-0.00026
 587,0.00020017,0.00027467,0.00098410,-0.00047627,-0.00142700,-0.003101
 46,-0.00019841,-0.00021244,-0.00017493,-0.00693629,-0.01463067,0.01464
 955,-0.04400800,-0.16182973,0.12435799,0.00330609,0.01067126,-0.010933
 67,0.00045019,0.00118916,-0.00048008,0.00024981,-0.00025552,0.00014888
 ,-0.00003323,0.00003113,-0.00002865,-0.00002055,0.00012768,-0.00008009
 ,-0.00030454,0.00090560,-0.00037490,0.00008603,0.00007572,0.00007702,-
 0.00002770,0.00001912,0.00008173,0.00026366,0.00014432,0.00008266,0.00
 237407,-0.00230955,0.00079244,-0.00017381,0.00163369,-0.00042236,0.046
 89173,0.17400009,-0.00020873,-0.00028342,0.00003422,-0.00004200,0.0010
 5956,-0.00011926,0.00035103,-0.00056403,-0.00052525,-0.00022089,-0.000
 07323,0.00008527,-0.00070389,-0.00370542,-0.00514236,-0.00045815,-0.00
 049813,0.00012425,-0.00025917,-0.00318377,0.00189811,0.04592652,0.1238
 1048,-0.18034338,0.00567282,0.01945108,-0.02055989,0.00194879,0.001517
 60,0.00147038,0.00004006,0.00001203,0.00005620,-0.00005798,0.00009611,
 -0.00000520,0.00002208,-0.00000618,-0.00000198,-0.00046903,0.00163557,
 -0.00101868,0.00009065,0.00014046,0.00008424,-0.00000723,0.00000195,-0
 .00000696,0.00013301,0.00004376,0.00018824,0.00013561,-0.00097652,0.00
 003683,-0.00040477,0.00002989,0.00100552,-0.05018468,-0.13318899,0.197
 14093,-0.00020852,-0.00003921,-0.00006441,0.00090719,0.00012417,0.0004
 8699,-0.00099397,0.00167404,0.00099629,-0.00012848,-0.00036409,-0.0006
 1808,-0.00048261,-0.00049476,-0.00006438,-0.00013289,-0.00109852,-0.00
 017091,-0.01570529,-0.00434316,-0.00167908,-0.28261000,-0.07528161,-0.
 03991229,-0.00027819,-0.00007686,0.00001318,0.00098551,-0.00053408,-0.
 00073653,-0.00008621,0.00023249,-0.00013562,0.00006458,-0.00006104,0.0
 0003977,0.00001439,0.00008191,0.00000639,0.00014244,0.00011592,-0.0001
 2784,0.00015113,0.00017419,0.00040411,0.00006474,0.00009391,0.00003035
 ,0.00037325,0.00038499,0.00060236,0.00174348,-0.00014161,0.00025196,-0
 .00132860,0.00189594,-0.00110363,-0.00765295,-0.00300770,-0.00077526,0
 .30444249,-0.00023286,0.00057211,0.00007753,0.00021906,-0.00173697,-0.
 00017488,0.00215903,-0.00197878,-0.00070139,0.00020724,0.00040059,0.00
 075318,0.00025608,-0.00008369,0.00018447,0.00004207,0.00009842,0.00063
 918,0.02563376,0.00611466,0.00435658,-0.07575243,-0.07063193,-0.010753
 91,-0.01395242,-0.00535857,-0.00112120,-0.00010076,-0.00082860,-0.0038
 4120,0.00006006,-0.00027278,0.00019889,-0.00008284,0.00007030,-0.00003
 995,-0.00003860,-0.00000740,-0.00002976,-0.00010018,-0.00003106,0.0000
 2657,0.00007066,0.00003003,-0.00008841,-0.00003571,-0.00004853,-0.0001
 1207,-0.00008965,-0.00055350,0.00073649,-0.00000031,0.00173172,-0.0000
 8452,0.00247710,-0.00205152,0.00054896,-0.02072691,-0.00630518,-0.0038
 4753,0.08054485,0.08038946,-0.00035691,0.00040741,0.00012987,0.0008080
 7,-0.00095153,-0.00011585,-0.00022752,0.00069715,-0.00085106,-0.000013
 12,-0.00006857,-0.00009956,-0.00039907,-0.00039265,0.00131403,-0.00004
 739,0.00012380,-0.00057678,0.00160219,-0.00000270,-0.00036272,-0.03900
 590,-0.00994886,-0.05712016,-0.02941527,-0.00938593,-0.00297461,0.0006
 1057,-0.00120728,-0.00570710,-0.00003975,0.00004653,0.00000489,-0.0000
 1279,0.00001672,0.00000022,0.00000099,0.00008620,0.00002792,0.00022848
 ,-0.00008478,0.00000395,0.00023162,0.00007675,0.00024619,0.00008535,0.
 00001612,-0.00010420,0.00013896,0.00112792,-0.00049050,-0.00005311,0.0
 0024633,0.00104687,0.00048487,-0.00061264,0.00010183,0.02341897,0.0071
 4598,0.00494666,0.04304757,0.01335805,0.05906279,-0.00203896,0.0024577
 6,0.00005548,-0.00330516,-0.00542020,-0.00016298,0.00063792,0.00016676
 ,-0.00046176,0.00026708,-0.00026657,0.00020416,-0.00104935,-0.00027357
 ,0.00008051,0.00059235,-0.00011805,-0.00036640,0.00095657,-0.00057030,
 -0.00165108,0.00452457,-0.00433314,-0.00161513,-0.19787583,0.12108341,
 0.05355452,-0.01772136,0.01796380,0.00568022,-0.00001646,-0.00001866,0
 .00001015,-0.00006260,-0.00004824,0.00001318,-0.00000836,0.00012954,-0
 .00003093,-0.00012253,0.00019820,-0.00023185,0.00006269,0.00006035,-0.
 00006684,0.00032808,0.00037777,-0.00010995,0.00002305,-0.00002021,-0.0
 0000526,0.00010989,-0.00011666,0.00014205,0.00020652,-0.00029759,0.000
 00991,-0.00004104,0.00019919,0.00026177,0.00074589,0.00017588,0.000652
 20,0.21257356,-0.00117114,0.00195822,0.00001829,-0.00305007,-0.0040012
 5,-0.00011174,0.00061704,-0.00396817,0.00249439,0.00137309,0.00039106,
 -0.00111672,0.01650736,-0.01151160,-0.00933794,0.00067561,0.00117815,-
 0.00109561,0.00060952,-0.00070191,-0.00123680,0.00664620,-0.00572388,-
 0.00084816,0.12084044,-0.14724255,-0.04267155,-0.01264741,0.01229878,0
 .00410036,-0.00002300,0.00002919,0.00005637,0.00024637,-0.00059779,0.0
 0020177,-0.00007668,0.00000508,-0.00003782,-0.00012644,0.00059140,0.00
 042528,-0.00019775,0.00027761,0.00017373,-0.00081826,-0.00012448,0.000
 44438,-0.00006177,-0.00014853,0.00000767,0.00026409,-0.00030465,-0.000
 13462,0.00011405,-0.00044104,-0.00012757,-0.00004712,-0.00001524,-0.00
 033631,-0.00017860,0.00020042,0.00016433,-0.13108975,0.15725050,0.0000
 1158,0.00002613,0.00011091,-0.00152792,0.00092990,0.00023031,-0.000622
 13,0.00335322,-0.00327393,-0.00096524,0.00007685,0.00127368,-0.0155782
 5,0.01051278,0.00707863,-0.00043380,-0.00109362,0.00071705,-0.00076740
 ,-0.00163572,-0.00483534,0.02176511,-0.01721758,-0.00412825,0.05390169
 ,-0.04344169,-0.06889719,-0.00117974,0.00108429,-0.00008003,0.00010954
 ,-0.00012334,0.00006696,-0.00032279,0.00045036,-0.00008300,0.00004879,
 0.00002782,-0.00005071,0.00010615,-0.00082838,0.00029195,-0.00007056,-
 0.00020068,-0.00010434,0.00038630,-0.00019288,-0.00001108,0.00014887,0
 .00004982,-0.00001338,0.00073673,-0.00089816,-0.00007728,0.00048468,-0
 .00087523,0.00011825,0.00016099,0.00053749,-0.00028130,-0.00058531,0.0
 0047503,0.00155173,-0.05591116,0.04859809,0.06997282,-0.00072509,-0.00
 097764,0.00295124,0.00664674,0.00946196,-0.01927595,-0.00101570,0.0017
 8009,0.00207399,0.00049748,0.00025929,0.00001990,-0.00695381,-0.002122
 39,-0.00075852,0.00126258,-0.00155718,0.00105853,0.00069460,0.00068180
 ,-0.00016393,0.00147528,0.00083397,0.00211863,-0.00222472,-0.01779288,
 0.02199660,-0.06159332,-0.03489460,0.04093848,-0.00003431,-0.00003702,
 -0.00000910,0.00004440,-0.00013261,0.00001057,-0.00005700,0.00025561,-
 0.00001544,-0.00015055,0.00023098,-0.00001129,-0.00059400,-0.00055927,
 0.00012262,0.00011369,0.00013061,-0.00002707,-0.00005624,-0.00002152,-
 0.00008705,0.00012170,0.00002825,0.00027091,-0.00002105,-0.00001861,-0
 .00008282,0.00022075,0.00017883,-0.00111304,0.00014063,0.00049633,0.00
 011292,-0.00017360,0.00037587,0.00012720,0.06130396,-0.00042152,0.0024
 8571,-0.00244971,-0.00726816,-0.01626346,0.01923291,0.00119859,-0.0024
 3056,-0.00132208,-0.00060196,-0.00046228,-0.00036993,-0.00179697,-0.00
 097738,-0.00076224,0.00071222,-0.00024401,0.00051000,-0.00027066,-0.00
 077223,0.00026569,0.00024193,-0.00002370,0.00125900,-0.00028007,-0.006
 10087,0.00573166,-0.03632768,-0.14491452,0.12771176,-0.00002955,0.0000
 5942,0.00001632,0.00006389,-0.00002457,-0.00002068,0.00010234,-0.00031
 719,0.00007313,0.00024679,0.00021418,0.00017145,-0.00024332,-0.0001944
 6,0.00000568,-0.00003557,0.00002086,0.00000206,-0.00000626,-0.00003041
 ,-0.00004256,-0.00010519,0.00011135,-0.00030782,0.00007264,-0.00018665
 ,-0.00017483,-0.00025648,0.00017827,-0.00098046,0.00023247,0.00033223,
 -0.00026557,-0.00021183,0.00001693,-0.00006977,0.04132277,0.15782419,-
 0.00103254,0.00018883,0.00072704,0.00061213,-0.00280777,0.00089515,0.0
 0002006,-0.00074034,-0.00088831,0.00000813,-0.00004631,-0.00001964,-0.
 00007570,-0.00065223,0.00009846,-0.00014943,-0.00015493,0.00056411,0.0
 0001821,-0.00018145,0.00010591,-0.00074331,-0.00091714,0.00117897,-0.0
 0065093,-0.00293041,0.00169111,0.04384651,0.12554840,-0.19866941,0.000
 00212,-0.00001174,0.00000427,-0.00002310,0.00001453,0.00000494,-0.0000
 0489,-0.00002793,0.00000746,0.00006934,-0.00023111,0.00048442,-0.00004
 076,-0.00003700,0.00006794,-0.00001126,-0.00002304,-0.00001543,0.00014
 021,0.00013752,-0.00002635,-0.00003792,0.00000736,0.00000194,-0.000040
 32,-0.00002703,0.00001890,-0.00005465,0.00017546,0.00037306,0.00004618
 ,-0.00010810,0.00010842,0.00036027,0.00027537,-0.00007872,-0.04795497,
 -0.13516482,0.21436803,-0.00077667,-0.00048025,-0.00359654,0.00328264,
 0.00860162,0.02183380,-0.00088484,0.00161127,-0.00180118,0.00063447,0.
 00031637,-0.00002086,0.00078390,0.00184167,-0.00122552,0.00002093,-0.0
 0001111,0.00010618,-0.00089432,0.00027176,-0.00020858,-0.00617387,-0.0
 0293588,0.00076608,-0.00234283,-0.01651547,-0.02754650,-0.04808444,-0.
 01532641,-0.02189318,0.00000768,0.00000684,0.00001009,-0.00000330,-0.0
 0007581,-0.00000484,-0.00009445,0.00020596,-0.00011500,0.00041268,-0.0
 0012815,0.00052201,-0.00000365,0.00001392,0.00005115,0.00001336,-0.000
 00175,-0.00000954,0.00009016,0.00016092,0.00000213,-0.00000561,-0.0000
 1229,-0.00000950,0.00012055,-0.00019189,0.00001139,-0.00006870,0.00030
 690,0.00032249,-0.00016801,-0.00122942,-0.00185194,0.00138707,0.001218
 35,-0.00002333,0.00107760,0.00366156,0.00569662,0.05166965,0.00013387,
 0.00185357,0.00258914,-0.00456468,-0.01486074,-0.02314492,0.00301919,-
 0.00230766,0.00387523,-0.00107598,-0.00048859,-0.00009273,-0.00061882,
 0.00016808,-0.00153086,-0.00002945,0.00018908,0.00041903,0.00051553,0.
 00154919,0.00048868,-0.00170662,-0.00011552,0.00082950,-0.00042782,-0.
 00539166,-0.00772675,-0.01639492,-0.11109555,-0.11744986,0.00003765,-0
 .00004406,0.00004448,0.00001238,0.00007270,-0.00000710,0.00017654,-0.0
 0036263,0.00015116,-0.00016842,-0.00044696,0.00085110,0.00001023,-0.00
 001299,-0.00001977,-0.00007267,-0.00002447,-0.00001841,0.00012760,0.00
 011374,0.00001084,0.00013684,-0.00000368,0.00028051,-0.00000281,0.0000
 0419,-0.00002368,0.00008527,0.00021468,-0.00015448,0.00006637,-0.00005
 145,-0.00059279,-0.00002791,0.00058374,0.00045526,0.00207736,0.0116991
 7,0.01771391,0.01869129,0.11875783,0.00010717,-0.00014847,0.00105252,0
 .00029385,0.00075621,0.00028889,-0.00017101,-0.00007815,-0.00100167,-0
 .00001582,0.00008043,0.00001396,0.00073793,0.00038423,0.00011178,0.000
 03160,-0.00012297,0.00033234,-0.00004007,0.00024128,0.00002367,-0.0016
 5036,0.00013417,0.00027085,-0.00010804,0.00050794,-0.00158562,-0.02604
 266,-0.11145557,-0.23674509,0.00001939,-0.00004548,0.00003912,0.000007
 86,-0.00001021,-0.00000481,0.00001018,0.00002067,-0.00000043,0.0003244
 6,0.00016499,0.00048183,-0.00003394,-0.00004388,0.00001691,-0.00000982
 ,0.00000771,-0.00000054,0.00010923,0.00011123,0.00002859,0.00003385,-0
 .00010731,-0.00001540,0.00000131,0.00005749,-0.00000028,0.00007565,-0.
 00010047,0.00056035,0.00004819,-0.00045201,-0.00014283,-0.00041106,0.0
 0009482,0.00050225,-0.00230245,-0.01304919,-0.02100228,0.02898455,0.12
 305253,0.25677589\\0.00001341,-0.00002254,0.00001804,-0.00001168,-0.00
 002768,0.00002807,0.00000030,-0.00002105,-0.00000231,0.00000144,-0.000
 00670,-0.00001060,0.00004980,0.00005434,-0.00001135,0.00001013,-0.0000
 1197,0.00002172,0.00001571,0.00002274,0.00001078,0.00001515,-0.0000320
 0,-0.00000750,-0.00003531,0.00002947,-0.00002626,-0.00002977,0.0000279
 6,-0.00001346,0.00000248,-0.00000308,-0.00001065,-0.00000231,-0.000000
 38,0.00000399,0.00000858,0.00000097,-0.00000634,0.00000207,0.00000236,
 -0.00000317,-0.00000607,0.00000544,-0.00000435,0.00000273,-0.00000039,
 -0.00000320,-0.00001999,-0.00003098,0.00001126,0.00000109,0.00000889,0
 .00000404,-0.00000604,-0.00000062,-0.00000059,-0.00000102,-0.00000291,
 -0.00000319,0.00000697,0.00001435,0.00001691,-0.00000059,-0.00000472,-
 0.00000353,-0.00000614,0.00000195,-0.00000395,-0.00001096,-0.00000343,
 -0.00000436\\\@


 ART, GLORY, FREEDOM FAIL, BUT NATURE STILL IS FAIR.

                                           -- BYRON
 Job cpu time:       0 days  0 hours  2 minutes  3.7 seconds.
 Elapsed time:       0 days  0 hours  2 minutes  3.6 seconds.
 File lengths (MBytes):  RWF=     95 Int=      0 D2E=      0 Chk=      5 Scr=      1
 Normal termination of Gaussian 16 at Wed Feb 21 19:28:37 2024.
