 Entering Gaussian System, Link 0=g16
 Input=/Volumes/SSD-PMU3/b3lyp_6-31gd_freq/KMIVZYGUCIUIAK-GHMZBOCLSA-N_calculating/gaussianinput0.gjf
 Output=/Volumes/SSD-PMU3/b3lyp_6-31gd_freq/KMIVZYGUCIUIAK-GHMZBOCLSA-N_calculating/gaussianinput0.log
 Initial command:
 /Applications/g16/l1.exe "/Users/macmini_m1_2022/PycharmProjects/sphere_model/sphere_model_lib/Gau-84399.inp" -scrdir="/Users/macmini_m1_2022/PycharmProjects/sphere_model/sphere_model_lib/"
 Entering Link 1 = /Applications/g16/l1.exe PID=     84400.
  
 Copyright (c) 1988,1990,1992,1993,1995,1998,2003,2009,2016,
            Gaussian, Inc.  All Rights Reserved.
  
 This is part of the Gaussian(R) 16 program.  It is based on
 the Gaussian(R) 09 system (copyright 2009, Gaussian, Inc.),
 the Gaussian(R) 03 system (copyright 2003, Gaussian, Inc.),
 the Gaussian(R) 98 system (copyright 1998, Gaussian, Inc.),
 the Gaussian(R) 94 system (copyright 1995, Gaussian, Inc.),
 the Gaussian 92(TM) system (copyright 1992, Gaussian, Inc.),
 the Gaussian 90(TM) system (copyright 1990, Gaussian, Inc.),
 the Gaussian 88(TM) system (copyright 1988, Gaussian, Inc.),
 the Gaussian 86(TM) system (copyright 1986, Carnegie Mellon
 University), and the Gaussian 82(TM) system (copyright 1983,
 Carnegie Mellon University). Gaussian is a federally registered
 trademark of Gaussian, Inc.
  
 This software contains proprietary and confidential information,
 including trade secrets, belonging to Gaussian, Inc.
  
 This software is provided under written license and may be
 used, copied, transmitted, or stored only in accord with that
 written license.
  
 The following legend is applicable only to US Government
 contracts under FAR:
  
                    RESTRICTED RIGHTS LEGEND
  
 Use, reproduction and disclosure by the US Government is
 subject to restrictions as set forth in subparagraphs (a)
 and (c) of the Commercial Computer Software - Restricted
 Rights clause in FAR 52.227-19.
  
 Gaussian, Inc.
 340 Quinnipiac St., Bldg. 40, Wallingford CT 06492
  
  
 ---------------------------------------------------------------
 Warning -- This program may not be used in any manner that
 competes with the business of Gaussian, Inc. or will provide
 assistance to any competitor of Gaussian, Inc.  The licensee
 of this program is prohibited from giving any competitor of
 Gaussian, Inc. access to this program.  By using this program,
 the user acknowledges that Gaussian, Inc. is engaged in the
 business of creating and licensing software in the field of
 computational chemistry and represents and warrants to the
 licensee that it is not a competitor of Gaussian, Inc. and that
 it will not use this program in any manner prohibited above.
 ---------------------------------------------------------------
  

 Cite this work as:
 Gaussian 16, Revision A.03,
 M. J. Frisch, G. W. Trucks, H. B. Schlegel, G. E. Scuseria, 
 M. A. Robb, J. R. Cheeseman, G. Scalmani, V. Barone, 
 G. A. Petersson, H. Nakatsuji, X. Li, M. Caricato, A. V. Marenich, 
 J. Bloino, B. G. Janesko, R. Gomperts, B. Mennucci, H. P. Hratchian, 
 J. V. Ortiz, A. F. Izmaylov, J. L. Sonnenberg, D. Williams-Young, 
 F. Ding, F. Lipparini, F. Egidi, J. Goings, B. Peng, A. Petrone, 
 T. Henderson, D. Ranasinghe, V. G. Zakrzewski, J. Gao, N. Rega, 
 G. Zheng, W. Liang, M. Hada, M. Ehara, K. Toyota, R. Fukuda, 
 J. Hasegawa, M. Ishida, T. Nakajima, Y. Honda, O. Kitao, H. Nakai, 
 T. Vreven, K. Throssell, J. A. Montgomery, Jr., J. E. Peralta, 
 F. Ogliaro, M. J. Bearpark, J. J. Heyd, E. N. Brothers, K. N. Kudin, 
 V. N. Staroverov, T. A. Keith, R. Kobayashi, J. Normand, 
 K. Raghavachari, A. P. Rendell, J. C. Burant, S. S. Iyengar, 
 J. Tomasi, M. Cossi, J. M. Millam, M. Klene, C. Adamo, R. Cammi, 
 J. W. Ochterski, R. L. Martin, K. Morokuma, O. Farkas, 
 J. B. Foresman, and D. J. Fox, Gaussian, Inc., Wallingford CT, 2016.
 
 ******************************************
 Gaussian 16:  EM64M-G16RevA.03 25-Dec-2016
                24-Feb-2024 
 ******************************************
 %nprocshared=10
 Will use up to   10 processors via shared memory.
 %mem=12GB
 %chk= 0.chk
 ---------------------
 # freq b3lyp/6-31g(d)
 ---------------------
 1/10=4,30=1,38=1/1,3;
 2/12=2,17=6,18=5,40=1/2;
 3/5=1,6=6,7=1,11=2,25=1,30=1,71=2,74=-5,140=1/1,2,3;
 4//1;
 5/5=2,38=5,98=1/2;
 8/6=4,10=90,11=11/1;
 11/6=1,8=1,9=11,15=111,16=1/1,2,10;
 10/6=1/2;
 6/7=2,8=2,9=2,10=2,28=1/1;
 7/8=1,10=1,25=1/1,2,3,16;
 1/10=4,30=1/3;
 99//99;
 ---------
 good luck
 ---------
 Symbolic Z-matrix:
 Charge =  0 Multiplicity = 1
 O                     1.21802   0.        0. 
 C                     0.        0.        0. 
 C                    -0.83905  -1.27797  -0.0299 
 C                     0.00908  -2.5574   -0.02432 
 C                     0.68364  -2.86465   1.31998 
 C                     1.49303  -4.16505   1.2916 
 C                    -1.80108  -1.2076   -1.24669 
 C                    -2.69108   0.05486  -1.25042 
 C                    -3.77737   0.07094  -2.38416 
 C                    -4.70582  -1.15485  -2.2356 
 C                    -4.65551   1.33421  -2.24562 
 C                    -3.15541   0.05302  -3.79585 
 C                    -1.7857    1.30486  -1.22549 
 C                    -0.80916   1.28712  -0.0299 
 H                    -1.46851  -1.25893   0.87592 
 H                    -0.63551  -3.40366  -0.3027 
 H                     0.77744  -2.47604  -0.80387 
 H                    -0.08526  -2.93106   2.10388 
 H                     1.33949  -2.03012   1.58993 
 H                     1.95925  -4.36606   2.26294 
 H                     0.85898  -5.02525   1.04195 
 H                     2.29302  -4.11497   0.54309 
 H                    -1.20083  -1.24465  -2.16663 
 H                    -2.4135   -2.11497  -1.23855 
 H                    -3.25589   0.05057  -0.30272 
 H                    -5.53928  -1.08781  -2.94485 
 H                    -4.18747  -2.09823  -2.43509 
 H                    -5.13341  -1.21098  -1.2264 
 H                    -4.10046   2.25343  -2.45901 
 H                    -5.49472   1.29219  -2.94999 
 H                    -5.07513   1.41951  -1.23508 
 H                    -3.94569   0.07165  -4.55603 
 H                    -2.51327   0.92304  -3.97289 
 H                    -2.55775  -0.84862  -3.96968 
 H                    -1.20156   1.35905  -2.15385 
 H                    -2.38019   2.22241  -1.17533 
 H                    -1.38446   1.35649   0.90544 
 H                    -0.11721   2.13384  -0.06321 
 

 GradGradGradGradGradGradGradGradGradGradGradGradGradGradGradGradGradGrad
 Berny optimization.
 Initialization pass.
 Trust Radius=3.00D-01 FncErr=1.00D-07 GrdErr=1.00D-07 EigMax=2.50D+02 EigMin=1.00D-04
 Number of steps in this run=      2 maximum allowed number of steps=      2.
 GradGradGradGradGradGradGradGradGradGradGradGradGradGradGradGradGradGrad

                          Input orientation:                          
 ---------------------------------------------------------------------
 Center     Atomic      Atomic             Coordinates (Angstroms)
 Number     Number       Type             X           Y           Z
 ---------------------------------------------------------------------
      1          8           0        1.218024    0.000000    0.000000
      2          6           0        0.000000    0.000000    0.000000
      3          6           0       -0.839048   -1.277965   -0.029899
      4          6           0        0.009083   -2.557404   -0.024315
      5          6           0        0.683635   -2.864653    1.319981
      6          6           0        1.493033   -4.165047    1.291596
      7          6           0       -1.801078   -1.207604   -1.246694
      8          6           0       -2.691079    0.054857   -1.250421
      9          6           0       -3.777370    0.070936   -2.384157
     10          6           0       -4.705816   -1.154852   -2.235599
     11          6           0       -4.655508    1.334206   -2.245621
     12          6           0       -3.155412    0.053019   -3.795845
     13          6           0       -1.785695    1.304863   -1.225489
     14          6           0       -0.809163    1.287117   -0.029899
     15          1           0       -1.468510   -1.258934    0.875915
     16          1           0       -0.635511   -3.403664   -0.302697
     17          1           0        0.777435   -2.476040   -0.803867
     18          1           0       -0.085256   -2.931063    2.103882
     19          1           0        1.339492   -2.030118    1.589930
     20          1           0        1.959253   -4.366056    2.262937
     21          1           0        0.858984   -5.025255    1.041951
     22          1           0        2.293023   -4.114968    0.543085
     23          1           0       -1.200830   -1.244651   -2.166635
     24          1           0       -2.413500   -2.114971   -1.238546
     25          1           0       -3.255885    0.050565   -0.302715
     26          1           0       -5.539284   -1.087810   -2.944846
     27          1           0       -4.187466   -2.098227   -2.435094
     28          1           0       -5.133411   -1.210981   -1.226404
     29          1           0       -4.100460    2.253431   -2.459011
     30          1           0       -5.494715    1.292188   -2.949987
     31          1           0       -5.075131    1.419510   -1.235080
     32          1           0       -3.945692    0.071650   -4.556032
     33          1           0       -2.513272    0.923043   -3.972889
     34          1           0       -2.557751   -0.848619   -3.969682
     35          1           0       -1.201563    1.359049   -2.153849
     36          1           0       -2.380190    2.222405   -1.175327
     37          1           0       -1.384459    1.356490    0.905444
     38          1           0       -0.117206    2.133837   -0.063207
 ---------------------------------------------------------------------
                    Distance matrix (angstroms):
                    1          2          3          4          5
     1  O    0.000000
     2  C    1.218024   0.000000
     3  C    2.421907   1.529081   0.000000
     4  C    2.828859   2.557536   1.535031   0.000000
     5  C    3.199087   3.227374   2.580372   1.535107   0.000000
     6  C    4.369378   4.609228   3.939568   2.553085   1.531978
     7  C    3.482460   2.501287   1.552753   2.567655   3.937948
     8  C    4.104589   2.967906   2.587684   3.951977   5.149680
     9  C    5.535630   4.467411   3.999475   5.178248   6.499145
    10  C    6.436106   5.336318   4.453332   5.393255   6.679203
    11  C    6.428164   5.338228   5.128180   6.468171   7.671400
    12  C    5.791217   4.936383   4.617295   5.572502   7.030133
    13  C    3.496687   2.528477   2.999429   4.425060   5.473744
    14  C    2.401469   1.520628   2.565256   3.930636   4.613872
    15  H    3.093478   2.123361   1.103215   2.163266   2.721627
    16  H    3.887434   3.475691   2.152775   1.099615   2.159575
    17  H    2.640283   2.716870   2.155789   1.097582   2.161145
    18  H    3.836142   3.608977   2.802491   2.162809   1.100047
    19  H    2.581475   2.905769   2.817023   2.157268   1.095203
    20  H    4.973203   5.293581   4.756458   3.507978   2.184165
    21  H    5.144683   5.203528   4.251395   2.819493   2.185463
    22  H    4.287601   4.741925   4.264594   2.822115   2.181051
    23  H    3.477689   2.772266   2.167403   2.788682   4.281601
    24  H    4.381217   3.439779   2.154137   2.745726   4.086604
    25  H    4.484424   3.270318   2.771375   4.187962   5.162505
    26  H    7.450950   6.367034   5.534012   6.439999   7.750525
    27  H    6.289003   5.278931   4.203534   4.861453   6.198034
    28  H    6.581130   5.415021   4.458437   5.450057   6.561763
    29  H    6.277815   5.285684   5.385922   6.779397   7.960096
    30  H    7.445337   6.368993   6.066946   7.326029   8.583936
    31  H    6.568427   5.412706   5.164613   6.567422   7.618778
    32  H    6.886692   6.027524   5.653192   6.564193   8.036173
    33  H    5.527968   4.790865   4.816081   5.836696   7.251298
    34  H    5.543916   4.797981   4.319742   5.007445   6.523152
    35  H    3.512902   2.815996   3.405352   4.619435   5.784559
    36  H    4.389490   3.462049   3.992457   5.466263   6.441409
    37  H    3.071288   2.139304   2.848279   4.257344   4.718782
    38  H    2.517954   2.137988   3.487486   4.693102   5.247805
                    6          7          8          9         10
     6  C    0.000000
     7  C    5.102994   0.000000
     8  C    6.463454   1.544643   0.000000
     9  C    7.696224   2.614233   1.570237   0.000000
    10  C    7.741325   3.068912   2.548163   1.544875   0.000000
    11  C    8.975424   3.950497   2.546790   1.544723   2.489587
    12  C    8.079739   3.149851   2.587430   1.542730   2.509397
    13  C    6.856070   2.512604   1.543650   2.613782   3.949383
    14  C    6.064037   2.947561   2.559247   3.978929   5.100219
    15  H    4.170014   2.149117   2.782450   4.210399   4.491381
    16  H    2.766256   2.659390   4.133389   5.126071   5.035936
    17  H    2.784922   2.907534   4.316878   5.452582   5.819058
    18  H    2.161833   4.140135   5.192050   6.541116   6.582978
    19  H    2.161134   4.311165   5.353524   6.811026   7.207393
    20  H    1.096024   6.036010   7.315309   8.613433   8.658626
    21  H    1.097405   5.185391   6.607984   7.694489   7.529233
    22  H    1.096704   5.330829   6.741319   7.933487   8.091175
    23  H    5.267350   1.099073   2.179223   2.901145   3.506814
    24  H    5.085807   1.094734   2.187543   2.819708   2.677808
    25  H    6.547170   2.142557   1.103255   2.145871   2.700254
    26  H    8.767572   4.107585   3.505572   2.182064   1.096446
    27  H    7.101270   2.810756   2.877220   2.208176   1.094733
    28  H    7.679622   3.332396   2.750983   2.196031   1.097480
    29  H    9.303283   4.328468   2.877633   2.207549   3.468827
    30  H    9.828584   4.774214   3.504267   2.181947   2.668467
    31  H    8.983994   4.197772   2.747038   2.196182   2.786534
    32  H    9.040137   4.145790   3.535732   2.178388   2.732491
    33  H    8.345894   3.532565   2.863074   2.201840   3.484691
    34  H    7.422169   2.848875   2.868523   2.201577   2.777590
    35  H    7.046104   2.787482   2.176179   2.889128   4.313487
    36  H    7.866836   3.479285   2.191017   2.835877   4.235396
    37  H    6.238305   3.373403   2.837121   4.266163   5.215784
    38  H    6.641107   3.924448   3.515175   4.799914   6.048975
                   11         12         13         14         15
    11  C    0.000000
    12  C    2.508968   0.000000
    13  C    3.045875   3.170168   0.000000
    14  C    4.439145   4.605457   1.543815   0.000000
    15  H    5.159973   5.137334   3.330099   2.781657   0.000000
    16  H    6.510203   5.522739   4.934034   4.701915   2.585127
    17  H    6.790692   5.551158   4.587224   4.156642   3.057333
    18  H    7.615635   7.289539   5.649714   4.782270   2.493453
    19  H    7.872112   7.317800   5.368005   4.271371   2.998236
    20  H    9.827265   9.077272   7.638918   6.699223   4.829865
    21  H    9.036620   8.081368   7.225372   6.616466   4.430572
    22  H    9.260262   8.116888   7.009876   6.255749   4.734642
    23  H    4.311791   2.856337   2.779900   3.336000   3.054336
    24  H    4.235283   3.433714   3.477006   3.950814   2.469160
    25  H    2.716903   3.494576   2.141549   2.754984   2.509714
    26  H    2.671355   2.776425   4.771845   6.042453   5.585580
    27  H    3.469375   2.746750   4.337357   5.353359   4.365766
    28  H    2.783015   3.480259   4.187681   5.135293   4.225345
    29  H    1.094801   2.742636   2.789175   4.203211   5.512313
    30  H    1.096433   2.779092   4.090340   5.520991   6.111962
    31  H    1.097521   3.479962   3.291447   4.434915   4.963676
    32  H    2.726882   1.096710   4.156792   5.639242   6.116611
    33  H    2.782388   1.095733   2.867640   4.310882   5.418805
    34  H    3.483920   1.095614   3.572695   4.810490   4.983434
    35  H    3.455253   2.866948   1.098180   2.161091   4.013049
    36  H    2.666739   3.489172   1.094451   2.157521   4.142279
    37  H    4.541968   5.190128   2.168993   1.100293   2.616941
    38  H    5.098875   5.243385   2.195895   1.094006   3.770791
                   16         17         18         19         20
    16  H    0.000000
    17  H    1.762973   0.000000
    18  H    2.513514   3.066967   0.000000
    19  H    3.060932   2.499004   1.762315   0.000000
    20  H    3.773788   3.791324   2.502902   2.508715   0.000000
    21  H    2.582857   3.148363   2.530796   3.082534   1.770859
    22  H    3.130114   2.607177   3.081222   2.520259   1.769841
    23  H    2.907781   2.699442   4.725019   4.602388   6.272990
    24  H    2.387004   3.240584   4.154341   4.700258   6.037279
    25  H    4.335673   4.785662   4.973400   5.387842   7.299779
    26  H    6.032505   6.812629   7.657262   8.292750   9.700307
    27  H    4.343693   5.239646   6.174467   6.837596   8.062053
    28  H    5.088438   6.059456   6.287556   7.106419   8.510927
    29  H    6.975549   6.992943   7.988794   8.020960  10.140736
    30  H    7.257481   7.625303   8.522892   8.851833  10.712233
    31  H    6.621372   7.043705   7.414513   7.812042   9.756611
    32  H    6.412953   6.548083   8.262790   8.373974  10.052858
    33  H    5.976344   5.694315   7.594507   7.383082   9.320063
    34  H    4.865187   4.877945   6.880260   6.891569   8.462933
    35  H    5.141071   4.521813   6.146501   5.653255   7.891488
    36  H    5.954665   5.673091   6.525195   6.290201   8.605826
    37  H    4.967856   4.720574   4.637596   4.399721   6.765407
    38  H    5.566858   4.753938   5.509129   4.710982   7.209108
                   21         22         23         24         25
    21  H    0.000000
    22  H    1.770299   0.000000
    23  H    5.369434   5.271462   0.000000
    24  H    4.937567   5.415308   1.757662   0.000000
    25  H    6.671148   6.989808   3.061868   2.504983   0.000000
    26  H    8.505049   9.092545   4.410487   3.706352   3.672964
    27  H    6.791465   7.411716   3.117797   2.139851   3.167363
    28  H    7.456736   8.167996   4.043558   2.866228   2.443318
    29  H    9.477979   9.510295   4.553012   4.839246   3.196176
    30  H    9.808932  10.103848   5.048430   4.902209   3.682667
    31  H    9.051717   9.385202   4.793303   4.424573   2.460279
    32  H    8.966647   9.080216   3.869901   4.258478   4.308942
    33  H    8.479562   8.299159   3.111905   4.088535   3.844850
    34  H    7.364430   7.386752   2.291081   3.013894   3.839605
    35  H    7.430904   7.032101   2.603731   3.791489   3.059259
    36  H    8.242399   8.059414   3.793950   4.337965   2.499036
    37  H    6.765969   6.602426   4.029556   4.207928   2.582116
    38  H    7.309372   6.724906   4.124661   4.970589   3.774744
                   26         27         28         29         30
    26  H    0.000000
    27  H    1.763009   0.000000
    28  H    1.770013   1.772836   0.000000
    29  H    3.670169   4.352593   3.819484   0.000000
    30  H    2.380421   3.670004   3.060577   1.763234   0.000000
    31  H    3.070080   3.821316   2.631151   1.772968   1.770076
    32  H    2.545546   3.043879   3.760617   3.030119   2.543338
    33  H    3.775864   3.780980   4.354580   2.565331   3.173578
    34  H    3.161810   2.563679   3.780331   3.779523   3.774730
    35  H    5.042680   4.576841   4.787968   3.049040   4.366859
    36  H    4.905976   4.849858   4.401247   2.146657   3.703375
    37  H    6.169433   5.563372   5.019096   4.415962   5.635840
    38  H    6.934103   6.332711   6.140289   4.649784   6.161126
                   31         32         33         34         35
    31  H    0.000000
    32  H    3.757803   0.000000
    33  H    3.782221   1.765433   0.000000
    34  H    4.354269   1.765526   1.772223   0.000000
    35  H    3.981497   3.867573   2.284642   3.163905   0.000000
    36  H    2.812635   4.301826   3.087459   4.155856   1.758423
    37  H    4.266951   6.167532   5.025955   5.477771   3.064756
    38  H    5.144373   6.252631   4.742654   5.487427   2.479296
                   36         37         38
    36  H    0.000000
    37  H    2.463919   0.000000
    38  H    2.523044   1.774397   0.000000
 Stoichiometry    C13H24O
 Framework group  C1[X(C13H24O)]
 Deg. of freedom   108
 Full point group                 C1      NOp   1
 Largest Abelian subgroup         C1      NOp   1
 Largest concise Abelian subgroup C1      NOp   1
                         Standard orientation:                         
 ---------------------------------------------------------------------
 Center     Atomic      Atomic             Coordinates (Angstroms)
 Number     Number       Type             X           Y           Z
 ---------------------------------------------------------------------
      1          8           0       -2.127092    1.940379    0.690622
      2          6           0       -1.237871    1.424934    0.037027
      3          6           0       -1.197532   -0.067106   -0.295054
      4          6           0       -2.407545   -0.839605    0.248487
      5          6           0       -3.721119   -0.566019   -0.497320
      6          6           0       -4.895305   -1.380029    0.055519
      7          6           0        0.152560   -0.647360    0.206545
      8          6           0        1.384398    0.092751   -0.359788
      9          6           0        2.758250   -0.572064    0.009256
     10          6           0        2.797575   -2.021225   -0.524621
     11          6           0        3.909847    0.201307   -0.670370
     12          6           0        3.009949   -0.597850    1.531096
     13          6           0        1.285293    1.587155    0.014099
     14          6           0       -0.040480    2.216015   -0.465720
     15          1           0       -1.187383   -0.141384   -1.395719
     16          1           0       -2.185087   -1.915309    0.198225
     17          1           0       -2.536811   -0.593258    1.310226
     18          1           0       -3.586786   -0.798516   -1.564093
     19          1           0       -3.952923    0.502442   -0.433072
     20          1           0       -5.819329   -1.172725   -0.496272
     21          1           0       -4.701490   -2.458057   -0.012228
     22          1           0       -5.077747   -1.141980    1.110416
     23          1           0        0.162603   -0.604125    1.304721
     24          1           0        0.178528   -1.708102   -0.062888
     25          1           0        1.315438    0.033296   -1.459279
     26          1           0        3.795580   -2.451813   -0.380485
     27          1           0        2.086493   -2.675492   -0.010095
     28          1           0        2.573522   -2.056603   -1.598405
     29          1           0        4.035021    1.208556   -0.260042
     30          1           0        4.859451   -0.327299   -0.525479
     31          1           0        3.744293    0.294753   -1.751302
     32          1           0        3.979940   -1.062868    1.744755
     33          1           0        3.030547    0.409736    1.961183
     34          1           0        2.247170   -1.176647    2.063572
     35          1           0        1.353289    1.702696    1.104065
     36          1           0        2.115622    2.157441   -0.413863
     37          1           0       -0.061673    2.214932   -1.565809
     38          1           0       -0.139660    3.251865   -0.128042
 ---------------------------------------------------------------------
 Rotational constants (GHZ):           1.2022133           0.3412677           0.2925496
 Standard basis: 6-31G(d) (6D, 7F)
 There are   258 symmetry adapted cartesian basis functions of A   symmetry.
 There are   258 symmetry adapted basis functions of A   symmetry.
   258 basis functions,   488 primitive gaussians,   258 cartesian basis functions
    55 alpha electrons       55 beta electrons
       nuclear repulsion energy       962.3524130343 Hartrees.
 NAtoms=   38 NActive=   38 NUniq=   38 SFac= 1.00D+00 NAtFMM=   60 NAOKFM=F Big=F
 Integral buffers will be    131072 words long.
 Raffenetti 2 integral format.
 Two-electron integral symmetry is turned on.
 One-electron integrals computed using PRISM.
 NBasis=   258 RedAO= T EigKep=  2.29D-03  NBF=   258
 NBsUse=   258 1.00D-06 EigRej= -1.00D+00 NBFU=   258
 ExpMin= 1.61D-01 ExpMax= 5.48D+03 ExpMxC= 8.25D+02 IAcc=3 IRadAn=         5 AccDes= 0.00D+00
 Harris functional with IExCor=  402 and IRadAn=       5 diagonalized for initial guess.
 HarFok:  IExCor=  402 AccDes= 0.00D+00 IRadAn=         5 IDoV= 1 UseB2=F ITyADJ=14
 ICtDFT=  3500011 ScaDFX=  1.000000  1.000000  1.000000  1.000000
 FoFCou: FMM=F IPFlag=           0 FMFlag=      100000 FMFlg1=           0
         NFxFlg=           0 DoJE=T BraDBF=F KetDBF=T FulRan=T
         wScrn=  0.000000 ICntrl=       500 IOpCl=  0 I1Cent=   200000004 NGrid=           0
         NMat0=    1 NMatS0=      1 NMatT0=    0 NMatD0=    1 NMtDS0=    0 NMtDT0=    0
 Petite list used in FoFCou.
 Requested convergence on RMS density matrix=1.00D-08 within 128 cycles.
 Requested convergence on MAX density matrix=1.00D-06.
 Requested convergence on             energy=1.00D-06.
 No special actions if energy rises.
 Integral accuracy reduced to 1.0D-05 until final iterations.
 Initial convergence to 1.0D-05 achieved.  Increase integral accuracy.
 SCF Done:  E(RB3LYP) =  -585.082453691     A.U. after   13 cycles
            NFock= 13  Conv=0.88D-08     -V/T= 2.0099
 DoSCS=F DFT=T ScalE2(SS,OS)=  1.000000  1.000000
 Range of M.O.s used for correlation:     1   258
 NBasis=   258 NAE=    55 NBE=    55 NFC=     0 NFV=     0
 NROrb=    258 NOA=    55 NOB=    55 NVA=   203 NVB=   203
 Symmetrizing basis deriv contribution to polar:
 IMax=3 JMax=2 DiffMx= 0.00D+00
 G2DrvN: will do    39 centers at a time, making    1 passes.
 Calling FoFCou, ICntrl=  3107 FMM=F I1Cent=   0 AccDes= 0.00D+00.
 End of G2Drv F.D. properties file   721 does not exist.
 End of G2Drv F.D. properties file   722 does not exist.
 End of G2Drv F.D. properties file   788 does not exist.
          IDoAtm=11111111111111111111111111111111111111
          Differentiating once with respect to electric field.
                with respect to dipole field.
          Differentiating once with respect to nuclear coordinates.
 Keep R1 ints in memory in canonical form, NReq=569063409.
          There are   117 degrees of freedom in the 1st order CPHF.  IDoFFX=6 NUNeed=     3.
    114 vectors produced by pass  0 Test12= 1.12D-14 1.00D-09 XBig12= 9.27D+01 2.30D+00.
 AX will form   114 AO Fock derivatives at one time.
    114 vectors produced by pass  1 Test12= 1.12D-14 1.00D-09 XBig12= 1.11D+01 1.05D+00.
    114 vectors produced by pass  2 Test12= 1.12D-14 1.00D-09 XBig12= 6.30D-02 2.84D-02.
    114 vectors produced by pass  3 Test12= 1.12D-14 1.00D-09 XBig12= 1.47D-04 1.33D-03.
    114 vectors produced by pass  4 Test12= 1.12D-14 1.00D-09 XBig12= 1.41D-07 3.42D-05.
     48 vectors produced by pass  5 Test12= 1.12D-14 1.00D-09 XBig12= 9.38D-11 8.97D-07.
      3 vectors produced by pass  6 Test12= 1.12D-14 1.00D-09 XBig12= 6.21D-14 2.20D-08.
 InvSVY:  IOpt=1 It=  1 EMax= 1.42D-14
 Solved reduced A of dimension   621 with   117 vectors.
 Isotropic polarizability for W=    0.000000      136.40 Bohr**3.
 End of Minotr F.D. properties file   721 does not exist.
 End of Minotr F.D. properties file   722 does not exist.
 End of Minotr F.D. properties file   788 does not exist.

 **********************************************************************

            Population analysis using the SCF density.

 **********************************************************************

 Orbital symmetries:
       Occupied  (A) (A) (A) (A) (A) (A) (A) (A) (A) (A) (A) (A)
                 (A) (A) (A) (A) (A) (A) (A) (A) (A) (A) (A) (A)
                 (A) (A) (A) (A) (A) (A) (A) (A) (A) (A) (A) (A)
                 (A) (A) (A) (A) (A) (A) (A) (A) (A) (A) (A) (A)
                 (A) (A) (A) (A) (A) (A) (A)
       Virtual   (A) (A) (A) (A) (A) (A) (A) (A) (A) (A) (A) (A)
                 (A) (A) (A) (A) (A) (A) (A) (A) (A) (A) (A) (A)
                 (A) (A) (A) (A) (A) (A) (A) (A) (A) (A) (A) (A)
                 (A) (A) (A) (A) (A) (A) (A) (A) (A) (A) (A) (A)
                 (A) (A) (A) (A) (A) (A) (A) (A) (A) (A) (A) (A)
                 (A) (A) (A) (A) (A) (A) (A) (A) (A) (A) (A) (A)
                 (A) (A) (A) (A) (A) (A) (A) (A) (A) (A) (A) (A)
                 (A) (A) (A) (A) (A) (A) (A) (A) (A) (A) (A) (A)
                 (A) (A) (A) (A) (A) (A) (A) (A) (A) (A) (A) (A)
                 (A) (A) (A) (A) (A) (A) (A) (A) (A) (A) (A) (A)
                 (A) (A) (A) (A) (A) (A) (A) (A) (A) (A) (A) (A)
                 (A) (A) (A) (A) (A) (A) (A) (A) (A) (A) (A) (A)
                 (A) (A) (A) (A) (A) (A) (A) (A) (A) (A) (A) (A)
                 (A) (A) (A) (A) (A) (A) (A) (A) (A) (A) (A) (A)
                 (A) (A) (A) (A) (A) (A) (A) (A) (A) (A) (A) (A)
                 (A) (A) (A) (A) (A) (A) (A) (A) (A) (A) (A) (A)
                 (A) (A) (A) (A) (A) (A) (A) (A) (A) (A) (A)
 The electronic state is 1-A.
 Alpha  occ. eigenvalues --  -19.13343 -10.26569 -10.20228 -10.19390 -10.19303
 Alpha  occ. eigenvalues --  -10.19044 -10.18884 -10.18830 -10.17531 -10.17520
 Alpha  occ. eigenvalues --  -10.17495 -10.17488 -10.17119 -10.16646  -1.03159
 Alpha  occ. eigenvalues --   -0.84601  -0.80729  -0.78287  -0.74669  -0.71527
 Alpha  occ. eigenvalues --   -0.68686  -0.68635  -0.66385  -0.60926  -0.60437
 Alpha  occ. eigenvalues --   -0.57566  -0.53007  -0.52622  -0.47624  -0.47292
 Alpha  occ. eigenvalues --   -0.45062  -0.44542  -0.44151  -0.43671  -0.42760
 Alpha  occ. eigenvalues --   -0.42164  -0.41558  -0.40280  -0.38843  -0.38614
 Alpha  occ. eigenvalues --   -0.37672  -0.37421  -0.36803  -0.36024  -0.35319
 Alpha  occ. eigenvalues --   -0.34845  -0.34696  -0.33840  -0.33138  -0.32172
 Alpha  occ. eigenvalues --   -0.32029  -0.31549  -0.30462  -0.29417  -0.23348
 Alpha virt. eigenvalues --   -0.01186   0.07682   0.09235   0.10331   0.11140
 Alpha virt. eigenvalues --    0.11736   0.12386   0.12718   0.13370   0.14360
 Alpha virt. eigenvalues --    0.14571   0.14967   0.15816   0.16554   0.16889
 Alpha virt. eigenvalues --    0.17064   0.18248   0.18635   0.18723   0.19411
 Alpha virt. eigenvalues --    0.19556   0.20165   0.20838   0.21472   0.22215
 Alpha virt. eigenvalues --    0.22621   0.23260   0.23623   0.24446   0.24935
 Alpha virt. eigenvalues --    0.26038   0.26269   0.27372   0.28079   0.29067
 Alpha virt. eigenvalues --    0.30554   0.32215   0.33300   0.37909   0.48834
 Alpha virt. eigenvalues --    0.49552   0.49865   0.50868   0.51563   0.52863
 Alpha virt. eigenvalues --    0.53905   0.55369   0.56170   0.57518   0.58230
 Alpha virt. eigenvalues --    0.59733   0.60392   0.62200   0.62676   0.64174
 Alpha virt. eigenvalues --    0.64878   0.66609   0.67922   0.69010   0.69728
 Alpha virt. eigenvalues --    0.70224   0.71084   0.72359   0.74178   0.75169
 Alpha virt. eigenvalues --    0.77172   0.78422   0.79676   0.80871   0.82906
 Alpha virt. eigenvalues --    0.84465   0.85094   0.85796   0.86321   0.86975
 Alpha virt. eigenvalues --    0.87695   0.88596   0.88841   0.89488   0.90482
 Alpha virt. eigenvalues --    0.91213   0.91484   0.92027   0.92195   0.92531
 Alpha virt. eigenvalues --    0.92754   0.93436   0.93798   0.94399   0.95167
 Alpha virt. eigenvalues --    0.95719   0.96370   0.98275   0.98527   0.98798
 Alpha virt. eigenvalues --    0.99610   1.00694   1.02132   1.03480   1.04702
 Alpha virt. eigenvalues --    1.06531   1.10086   1.14571   1.15754   1.17126
 Alpha virt. eigenvalues --    1.21963   1.24131   1.26839   1.33743   1.35651
 Alpha virt. eigenvalues --    1.37526   1.40484   1.43339   1.45722   1.49058
 Alpha virt. eigenvalues --    1.50855   1.51524   1.54993   1.58076   1.58683
 Alpha virt. eigenvalues --    1.60789   1.65184   1.67720   1.70463   1.71274
 Alpha virt. eigenvalues --    1.74782   1.76614   1.78095   1.78321   1.79614
 Alpha virt. eigenvalues --    1.81200   1.83560   1.84276   1.87439   1.87834
 Alpha virt. eigenvalues --    1.88259   1.90785   1.91751   1.93630   1.94747
 Alpha virt. eigenvalues --    1.95692   1.96222   1.98194   1.99593   2.00750
 Alpha virt. eigenvalues --    2.03376   2.03784   2.05119   2.05815   2.07624
 Alpha virt. eigenvalues --    2.09321   2.09829   2.10692   2.13628   2.15756
 Alpha virt. eigenvalues --    2.17714   2.21680   2.22501   2.25881   2.26091
 Alpha virt. eigenvalues --    2.26793   2.27323   2.29147   2.29883   2.32595
 Alpha virt. eigenvalues --    2.35405   2.36346   2.39498   2.42373   2.42845
 Alpha virt. eigenvalues --    2.43626   2.48165   2.50367   2.54568   2.55460
 Alpha virt. eigenvalues --    2.57376   2.60385   2.62406   2.65327   2.66476
 Alpha virt. eigenvalues --    2.71018   2.74759   2.75168   2.79140   2.83546
 Alpha virt. eigenvalues --    2.87209   2.89559   2.99877   3.04944   4.03376
 Alpha virt. eigenvalues --    4.11599   4.16620   4.22163   4.29150   4.30558
 Alpha virt. eigenvalues --    4.31094   4.33517   4.37819   4.52400   4.58163
 Alpha virt. eigenvalues --    4.59708   4.65459   4.71863
          Condensed to atoms (all electrons):
               1          2          3          4          5          6
     1  O    8.016260   0.575182  -0.091423   0.004551  -0.006124   0.000043
     2  C    0.575182   4.525240   0.292998  -0.029255  -0.002387   0.000031
     3  C   -0.091423   0.292998   5.272323   0.348428  -0.025286   0.003354
     4  C    0.004551  -0.029255   0.348428   5.011199   0.379811  -0.042251
     5  C   -0.006124  -0.002387  -0.025286   0.379811   4.971314   0.371097
     6  C    0.000043   0.000031   0.003354  -0.042251   0.371097   5.061955
     7  C    0.000004  -0.023141   0.344451  -0.037706   0.003206  -0.000101
     8  C    0.000135  -0.013424  -0.026574   0.003202  -0.000105   0.000001
     9  C    0.000001   0.000307   0.003265  -0.000089   0.000001  -0.000000
    10  C    0.000000  -0.000008   0.000157  -0.000001   0.000000  -0.000000
    11  C   -0.000000  -0.000007  -0.000097   0.000001  -0.000000   0.000000
    12  C   -0.000000  -0.000031   0.000180  -0.000001   0.000000  -0.000000
    13  C    0.000633  -0.027191  -0.003479   0.000010   0.000004   0.000000
    14  C   -0.074013   0.345296  -0.134193   0.006100  -0.000210   0.000001
    15  H    0.001818  -0.037163   0.350235  -0.042706  -0.004715   0.000048
    16  H    0.000323   0.004821  -0.040248   0.364967  -0.041715  -0.003229
    17  H    0.008185  -0.008087  -0.038027   0.368165  -0.035440  -0.002905
    18  H    0.000203  -0.000263  -0.004801  -0.043577   0.371909  -0.038588
    19  H    0.009878   0.004269  -0.007478  -0.035896   0.375619  -0.033652
    20  H   -0.000001  -0.000001  -0.000119   0.004089  -0.027197   0.371956
    21  H   -0.000003  -0.000000   0.000002  -0.004296  -0.035451   0.375988
    22  H    0.000028  -0.000014   0.000074  -0.004463  -0.035033   0.378979
    23  H    0.000648  -0.005231  -0.042428  -0.002627   0.000018   0.000002
    24  H   -0.000073   0.003457  -0.032871  -0.003937   0.000003  -0.000008
    25  H   -0.000010  -0.002700  -0.003755   0.000069   0.000000   0.000000
    26  H   -0.000000   0.000000  -0.000001  -0.000000   0.000000  -0.000000
    27  H   -0.000000  -0.000004  -0.000061   0.000007  -0.000000   0.000000
    28  H   -0.000000  -0.000000  -0.000054   0.000000  -0.000000  -0.000000
    29  H   -0.000000  -0.000004  -0.000001   0.000000   0.000000   0.000000
    30  H   -0.000000   0.000000   0.000001  -0.000000   0.000000  -0.000000
    31  H   -0.000000  -0.000001  -0.000003   0.000000   0.000000   0.000000
    32  H    0.000000   0.000000  -0.000002  -0.000000   0.000000  -0.000000
    33  H   -0.000000  -0.000004  -0.000012   0.000000  -0.000000   0.000000
    34  H   -0.000000  -0.000001  -0.000030   0.000005  -0.000000   0.000000
    35  H    0.000596  -0.003402   0.000332  -0.000027   0.000000  -0.000000
    36  H   -0.000063   0.003436  -0.000213   0.000009  -0.000000   0.000000
    37  H    0.001585  -0.030664   0.003447  -0.000107   0.000025  -0.000000
    38  H    0.005352  -0.024246   0.006857  -0.000150   0.000002  -0.000000
               7          8          9         10         11         12
     1  O    0.000004   0.000135   0.000001   0.000000  -0.000000  -0.000000
     2  C   -0.023141  -0.013424   0.000307  -0.000008  -0.000007  -0.000031
     3  C    0.344451  -0.026574   0.003265   0.000157  -0.000097   0.000180
     4  C   -0.037706   0.003202  -0.000089  -0.000001   0.000001  -0.000001
     5  C    0.003206  -0.000105   0.000001   0.000000  -0.000000   0.000000
     6  C   -0.000101   0.000001  -0.000000  -0.000000   0.000000  -0.000000
     7  C    5.107136   0.364909  -0.032561  -0.006873   0.004303  -0.007485
     8  C    0.364909   4.974247   0.377607  -0.049991  -0.049729  -0.051272
     9  C   -0.032561   0.377607   4.755492   0.380778   0.379781   0.382508
    10  C   -0.006873  -0.049991   0.380778   5.168929  -0.063348  -0.063784
    11  C    0.004303  -0.049729   0.379781  -0.063348   5.169326  -0.063707
    12  C   -0.007485  -0.051272   0.382508  -0.063784  -0.063707   5.161355
    13  C   -0.046798   0.374851  -0.033691   0.004467  -0.006927  -0.007649
    14  C   -0.007118  -0.035241   0.003596  -0.000119   0.000156   0.000161
    15  H   -0.042485  -0.002955   0.000014  -0.000015  -0.000005   0.000003
    16  H   -0.004464   0.000198  -0.000002  -0.000009   0.000000   0.000000
    17  H   -0.002957  -0.000025   0.000001   0.000000  -0.000000  -0.000001
    18  H    0.000052  -0.000000   0.000000   0.000000   0.000000  -0.000000
    19  H    0.000130   0.000003   0.000000  -0.000000   0.000000  -0.000000
    20  H    0.000001  -0.000000   0.000000  -0.000000  -0.000000   0.000000
    21  H   -0.000002   0.000000   0.000000  -0.000000   0.000000  -0.000000
    22  H    0.000001   0.000000   0.000000   0.000000   0.000000   0.000000
    23  H    0.365866  -0.036839  -0.005452  -0.000344   0.000023   0.002584
    24  H    0.365653  -0.031092  -0.006003   0.003152   0.000080  -0.000379
    25  H   -0.051265   0.363820  -0.040334  -0.007398  -0.006884   0.006310
    26  H    0.000238   0.004889  -0.028016   0.364855  -0.006992  -0.004098
    27  H    0.000513  -0.005506  -0.027307   0.366278   0.005724  -0.005039
    28  H   -0.000537  -0.005516  -0.029860   0.365361  -0.004021   0.005834
    29  H   -0.000048  -0.005738  -0.027118   0.005725   0.366385  -0.005078
    30  H   -0.000113   0.004893  -0.027949  -0.006965   0.365022  -0.004139
    31  H    0.000033  -0.005319  -0.029987  -0.003986   0.365263   0.005845
    32  H    0.000075   0.005272  -0.029610  -0.005154  -0.005187   0.367307
    33  H   -0.000058  -0.005568  -0.028521   0.005629  -0.004757   0.367222
    34  H    0.001957  -0.005720  -0.028486  -0.004806   0.005619   0.367539
    35  H   -0.006795  -0.037361  -0.005605   0.000022  -0.000442   0.002636
    36  H    0.005255  -0.031118  -0.006208   0.000064   0.003258  -0.000204
    37  H   -0.001101  -0.004066  -0.000015  -0.000004  -0.000013   0.000002
    38  H   -0.000115   0.003697  -0.000095   0.000001   0.000000   0.000001
              13         14         15         16         17         18
     1  O    0.000633  -0.074013   0.001818   0.000323   0.008185   0.000203
     2  C   -0.027191   0.345296  -0.037163   0.004821  -0.008087  -0.000263
     3  C   -0.003479  -0.134193   0.350235  -0.040248  -0.038027  -0.004801
     4  C    0.000010   0.006100  -0.042706   0.364967   0.368165  -0.043577
     5  C    0.000004  -0.000210  -0.004715  -0.041715  -0.035440   0.371909
     6  C    0.000000   0.000001   0.000048  -0.003229  -0.002905  -0.038588
     7  C   -0.046798  -0.007118  -0.042485  -0.004464  -0.002957   0.000052
     8  C    0.374851  -0.035241  -0.002955   0.000198  -0.000025  -0.000000
     9  C   -0.033691   0.003596   0.000014  -0.000002   0.000001   0.000000
    10  C    0.004467  -0.000119  -0.000015  -0.000009   0.000000   0.000000
    11  C   -0.006927   0.000156  -0.000005   0.000000  -0.000000   0.000000
    12  C   -0.007649   0.000161   0.000003   0.000000  -0.000001  -0.000000
    13  C    5.078509   0.333188  -0.001877  -0.000007  -0.000056  -0.000000
    14  C    0.333188   5.285980   0.002198  -0.000141   0.000502   0.000014
    15  H   -0.001877   0.002198   0.623727  -0.001608   0.006115   0.006463
    16  H   -0.000007  -0.000141  -0.001608   0.627844  -0.038291  -0.005124
    17  H   -0.000056   0.000502   0.006115  -0.038291   0.589584   0.005886
    18  H   -0.000000   0.000014   0.006463  -0.005124   0.005886   0.627801
    19  H   -0.000002   0.000187  -0.000450   0.005674  -0.005201  -0.037684
    20  H   -0.000000  -0.000000  -0.000001  -0.000032  -0.000040  -0.002873
    21  H   -0.000000  -0.000000   0.000004   0.005042  -0.000414  -0.004634
    22  H   -0.000000  -0.000000   0.000011  -0.000390   0.004667   0.005334
    23  H   -0.007465   0.000542   0.006449  -0.000229   0.004062   0.000009
    24  H    0.005284  -0.000272  -0.006373   0.005757  -0.000468  -0.000003
    25  H   -0.052659  -0.002379   0.006207  -0.000002   0.000004  -0.000003
    26  H   -0.000119   0.000001  -0.000000   0.000000  -0.000000   0.000000
    27  H   -0.000045  -0.000001   0.000009  -0.000008   0.000000   0.000000
    28  H    0.000031  -0.000003   0.000014   0.000000  -0.000000  -0.000000
    29  H    0.000791  -0.000050   0.000000  -0.000000   0.000000   0.000000
    30  H    0.000256  -0.000001   0.000000  -0.000000   0.000000   0.000000
    31  H   -0.000699  -0.000056   0.000000   0.000000  -0.000000  -0.000000
    32  H    0.000066  -0.000001   0.000000  -0.000000   0.000000   0.000000
    33  H    0.001818  -0.000061  -0.000000   0.000000   0.000000   0.000000
    34  H    0.000023  -0.000011  -0.000001   0.000003  -0.000003  -0.000000
    35  H    0.370494  -0.042012   0.000106  -0.000000  -0.000011  -0.000000
    36  H    0.367055  -0.029456  -0.000030  -0.000000   0.000000  -0.000000
    37  H   -0.035391   0.348928   0.001665  -0.000000  -0.000007  -0.000011
    38  H   -0.025102   0.341802  -0.000154   0.000002  -0.000007  -0.000000
              19         20         21         22         23         24
     1  O    0.009878  -0.000001  -0.000003   0.000028   0.000648  -0.000073
     2  C    0.004269  -0.000001  -0.000000  -0.000014  -0.005231   0.003457
     3  C   -0.007478  -0.000119   0.000002   0.000074  -0.042428  -0.032871
     4  C   -0.035896   0.004089  -0.004296  -0.004463  -0.002627  -0.003937
     5  C    0.375619  -0.027197  -0.035451  -0.035033   0.000018   0.000003
     6  C   -0.033652   0.371956   0.375988   0.378979   0.000002  -0.000008
     7  C    0.000130   0.000001  -0.000002   0.000001   0.365866   0.365653
     8  C    0.000003  -0.000000   0.000000   0.000000  -0.036839  -0.031092
     9  C    0.000000   0.000000   0.000000   0.000000  -0.005452  -0.006003
    10  C   -0.000000  -0.000000  -0.000000   0.000000  -0.000344   0.003152
    11  C    0.000000  -0.000000   0.000000   0.000000   0.000023   0.000080
    12  C   -0.000000   0.000000  -0.000000   0.000000   0.002584  -0.000379
    13  C   -0.000002  -0.000000  -0.000000  -0.000000  -0.007465   0.005284
    14  C    0.000187  -0.000000  -0.000000  -0.000000   0.000542  -0.000272
    15  H   -0.000450  -0.000001   0.000004   0.000011   0.006449  -0.006373
    16  H    0.005674  -0.000032   0.005042  -0.000390  -0.000229   0.005757
    17  H   -0.005201  -0.000040  -0.000414   0.004667   0.004062  -0.000468
    18  H   -0.037684  -0.002873  -0.004634   0.005334   0.000009  -0.000003
    19  H    0.566617  -0.002531   0.004820  -0.004276  -0.000002  -0.000005
    20  H   -0.002531   0.578517  -0.031742  -0.030870   0.000000   0.000000
    21  H    0.004820  -0.031742   0.587994  -0.033331   0.000000  -0.000001
    22  H   -0.004276  -0.030870  -0.033331   0.573278  -0.000001   0.000000
    23  H   -0.000002   0.000000   0.000000  -0.000001   0.601139  -0.037567
    24  H   -0.000005   0.000000  -0.000001   0.000000  -0.037567   0.590862
    25  H   -0.000000   0.000000   0.000000  -0.000000   0.006312  -0.003964
    26  H   -0.000000   0.000000  -0.000000   0.000000  -0.000028  -0.000117
    27  H   -0.000000  -0.000000   0.000000  -0.000000   0.000304   0.003966
    28  H    0.000000  -0.000000   0.000000   0.000000   0.000068   0.000506
    29  H   -0.000000  -0.000000  -0.000000   0.000000  -0.000002  -0.000002
    30  H    0.000000   0.000000  -0.000000  -0.000000   0.000002  -0.000004
    31  H   -0.000000  -0.000000   0.000000   0.000000   0.000003  -0.000008
    32  H    0.000000   0.000000   0.000000  -0.000000  -0.000073  -0.000035
    33  H   -0.000000  -0.000000  -0.000000   0.000000   0.000063   0.000030
    34  H    0.000000  -0.000000   0.000000  -0.000000   0.003151   0.000243
    35  H   -0.000000   0.000000   0.000000  -0.000000   0.004606   0.000007
    36  H    0.000000  -0.000000   0.000000   0.000000  -0.000004  -0.000183
    37  H   -0.000037   0.000000   0.000000  -0.000000   0.000105  -0.000016
    38  H    0.000001   0.000000   0.000000  -0.000000  -0.000044   0.000019
              25         26         27         28         29         30
     1  O   -0.000010  -0.000000  -0.000000  -0.000000  -0.000000  -0.000000
     2  C   -0.002700   0.000000  -0.000004  -0.000000  -0.000004   0.000000
     3  C   -0.003755  -0.000001  -0.000061  -0.000054  -0.000001   0.000001
     4  C    0.000069  -0.000000   0.000007   0.000000   0.000000  -0.000000
     5  C    0.000000   0.000000  -0.000000  -0.000000   0.000000   0.000000
     6  C    0.000000  -0.000000   0.000000  -0.000000   0.000000  -0.000000
     7  C   -0.051265   0.000238   0.000513  -0.000537  -0.000048  -0.000113
     8  C    0.363820   0.004889  -0.005506  -0.005516  -0.005738   0.004893
     9  C   -0.040334  -0.028016  -0.027307  -0.029860  -0.027118  -0.027949
    10  C   -0.007398   0.364855   0.366278   0.365361   0.005725  -0.006965
    11  C   -0.006884  -0.006992   0.005724  -0.004021   0.366385   0.365022
    12  C    0.006310  -0.004098  -0.005039   0.005834  -0.005078  -0.004139
    13  C   -0.052659  -0.000119  -0.000045   0.000031   0.000791   0.000256
    14  C   -0.002379   0.000001  -0.000001  -0.000003  -0.000050  -0.000001
    15  H    0.006207  -0.000000   0.000009   0.000014   0.000000   0.000000
    16  H   -0.000002   0.000000  -0.000008   0.000000  -0.000000  -0.000000
    17  H    0.000004  -0.000000   0.000000  -0.000000   0.000000   0.000000
    18  H   -0.000003   0.000000   0.000000  -0.000000   0.000000   0.000000
    19  H   -0.000000  -0.000000  -0.000000   0.000000  -0.000000   0.000000
    20  H    0.000000   0.000000  -0.000000  -0.000000  -0.000000   0.000000
    21  H    0.000000  -0.000000   0.000000   0.000000  -0.000000  -0.000000
    22  H   -0.000000   0.000000  -0.000000   0.000000   0.000000  -0.000000
    23  H    0.006312  -0.000028   0.000304   0.000068  -0.000002   0.000002
    24  H   -0.003964  -0.000117   0.003966   0.000506  -0.000002  -0.000004
    25  H    0.658584  -0.000050  -0.000095   0.006128  -0.000101  -0.000074
    26  H   -0.000050   0.580535  -0.030121  -0.030211   0.000020   0.005396
    27  H   -0.000095  -0.030121   0.574365  -0.031487  -0.000195   0.000023
    28  H    0.006128  -0.030211  -0.031487   0.583291  -0.000072  -0.000104
    29  H   -0.000101   0.000020  -0.000195  -0.000072   0.575306  -0.030195
    30  H   -0.000074   0.005396   0.000023  -0.000104  -0.030195   0.580295
    31  H    0.005972  -0.000100  -0.000074   0.003343  -0.031613  -0.030211
    32  H   -0.000152   0.003940  -0.000126  -0.000038  -0.000122   0.003953
    33  H   -0.000034  -0.000081  -0.000015  -0.000191   0.003882  -0.000160
    34  H   -0.000029  -0.000157   0.003874  -0.000035  -0.000013  -0.000082
    35  H    0.006365   0.000002  -0.000002   0.000003   0.000350  -0.000034
    36  H   -0.004188  -0.000003  -0.000002  -0.000010   0.003255  -0.000095
    37  H    0.005357   0.000000   0.000000   0.000000   0.000006  -0.000000
    38  H   -0.000011  -0.000000   0.000000   0.000000   0.000003  -0.000000
              31         32         33         34         35         36
     1  O   -0.000000   0.000000  -0.000000  -0.000000   0.000596  -0.000063
     2  C   -0.000001   0.000000  -0.000004  -0.000001  -0.003402   0.003436
     3  C   -0.000003  -0.000002  -0.000012  -0.000030   0.000332  -0.000213
     4  C    0.000000  -0.000000   0.000000   0.000005  -0.000027   0.000009
     5  C    0.000000   0.000000  -0.000000  -0.000000   0.000000  -0.000000
     6  C    0.000000  -0.000000   0.000000   0.000000  -0.000000   0.000000
     7  C    0.000033   0.000075  -0.000058   0.001957  -0.006795   0.005255
     8  C   -0.005319   0.005272  -0.005568  -0.005720  -0.037361  -0.031118
     9  C   -0.029987  -0.029610  -0.028521  -0.028486  -0.005605  -0.006208
    10  C   -0.003986  -0.005154   0.005629  -0.004806   0.000022   0.000064
    11  C    0.365263  -0.005187  -0.004757   0.005619  -0.000442   0.003258
    12  C    0.005845   0.367307   0.367222   0.367539   0.002636  -0.000204
    13  C   -0.000699   0.000066   0.001818   0.000023   0.370494   0.367055
    14  C   -0.000056  -0.000001  -0.000061  -0.000011  -0.042012  -0.029456
    15  H    0.000000   0.000000  -0.000000  -0.000001   0.000106  -0.000030
    16  H    0.000000  -0.000000   0.000000   0.000003  -0.000000  -0.000000
    17  H   -0.000000   0.000000   0.000000  -0.000003  -0.000011   0.000000
    18  H   -0.000000   0.000000   0.000000  -0.000000  -0.000000  -0.000000
    19  H   -0.000000   0.000000  -0.000000   0.000000  -0.000000   0.000000
    20  H   -0.000000   0.000000  -0.000000  -0.000000   0.000000  -0.000000
    21  H    0.000000   0.000000  -0.000000   0.000000   0.000000   0.000000
    22  H    0.000000  -0.000000   0.000000  -0.000000  -0.000000   0.000000
    23  H    0.000003  -0.000073   0.000063   0.003151   0.004606  -0.000004
    24  H   -0.000008  -0.000035   0.000030   0.000243   0.000007  -0.000183
    25  H    0.005972  -0.000152  -0.000034  -0.000029   0.006365  -0.004188
    26  H   -0.000100   0.003940  -0.000081  -0.000157   0.000002  -0.000003
    27  H   -0.000074  -0.000126  -0.000015   0.003874  -0.000002  -0.000002
    28  H    0.003343  -0.000038  -0.000191  -0.000035   0.000003  -0.000010
    29  H   -0.031613  -0.000122   0.003882  -0.000013   0.000350   0.003255
    30  H   -0.030211   0.003953  -0.000160  -0.000082  -0.000034  -0.000095
    31  H    0.583710  -0.000035  -0.000041  -0.000191   0.000088   0.000606
    32  H   -0.000035   0.580113  -0.030465  -0.030422  -0.000089  -0.000030
    33  H   -0.000041  -0.030465   0.574619  -0.030886   0.003540   0.000141
    34  H   -0.000191  -0.030422  -0.030886   0.573426   0.000036   0.000017
    35  H    0.000088  -0.000089   0.003540   0.000036   0.595098  -0.037259
    36  H    0.000606  -0.000030   0.000141   0.000017  -0.037259   0.589113
    37  H    0.000014   0.000000  -0.000000  -0.000000   0.005757  -0.006264
    38  H    0.000000  -0.000000   0.000005   0.000000  -0.003000  -0.002619
              37         38
     1  O    0.001585   0.005352
     2  C   -0.030664  -0.024246
     3  C    0.003447   0.006857
     4  C   -0.000107  -0.000150
     5  C    0.000025   0.000002
     6  C   -0.000000  -0.000000
     7  C   -0.001101  -0.000115
     8  C   -0.004066   0.003697
     9  C   -0.000015  -0.000095
    10  C   -0.000004   0.000001
    11  C   -0.000013   0.000000
    12  C    0.000002   0.000001
    13  C   -0.035391  -0.025102
    14  C    0.348928   0.341802
    15  H    0.001665  -0.000154
    16  H   -0.000000   0.000002
    17  H   -0.000007  -0.000007
    18  H   -0.000011  -0.000000
    19  H   -0.000037   0.000001
    20  H    0.000000   0.000000
    21  H    0.000000   0.000000
    22  H   -0.000000  -0.000000
    23  H    0.000105  -0.000044
    24  H   -0.000016   0.000019
    25  H    0.005357  -0.000011
    26  H    0.000000  -0.000000
    27  H    0.000000   0.000000
    28  H    0.000000   0.000000
    29  H    0.000006   0.000003
    30  H   -0.000000  -0.000000
    31  H    0.000014   0.000000
    32  H    0.000000  -0.000000
    33  H   -0.000000   0.000005
    34  H   -0.000000   0.000000
    35  H    0.005757  -0.003000
    36  H   -0.006264  -0.002619
    37  H    0.587967  -0.027434
    38  H   -0.027434   0.564831
 Mulliken charges:
               1
     1  O   -0.453717
     2  C    0.452191
     3  C   -0.174949
     4  C   -0.243526
     5  C   -0.259348
     6  C   -0.442721
     7  C   -0.292061
     8  C   -0.074566
     9  C    0.103558
    10  C   -0.452612
    11  C   -0.452828
    12  C   -0.456620
    13  C   -0.288324
    14  C   -0.343319
    15  H    0.135454
    16  H    0.120868
    17  H    0.144767
    18  H    0.119892
    19  H    0.160020
    20  H    0.140845
    21  H    0.136023
    22  H    0.146005
    23  H    0.142377
    24  H    0.144360
    25  H    0.110960
    26  H    0.140220
    27  H    0.145024
    28  H    0.137559
    29  H    0.144630
    30  H    0.140282
    31  H    0.137446
    32  H    0.140814
    33  H    0.143906
    34  H    0.144979
    35  H    0.145999
    36  H    0.145739
    37  H    0.150270
    38  H    0.160400
 Sum of Mulliken charges =  -0.00000
 Mulliken charges with hydrogens summed into heavy atoms:
               1
     1  O   -0.453717
     2  C    0.452191
     3  C   -0.039495
     4  C    0.022109
     5  C    0.020564
     6  C   -0.019848
     7  C   -0.005323
     8  C    0.036395
     9  C    0.103558
    10  C   -0.029810
    11  C   -0.030469
    12  C   -0.026921
    13  C    0.003414
    14  C   -0.032649
 APT charges:
               1
     1  O   -0.638160
     2  C    0.687906
     3  C   -0.039549
     4  C    0.088528
     5  C    0.116222
     6  C    0.096761
     7  C    0.079278
     8  C    0.076708
     9  C    0.138051
    10  C    0.034628
    11  C    0.035475
    12  C    0.027920
    13  C    0.105427
    14  C   -0.047941
    15  H   -0.033728
    16  H   -0.052958
    17  H   -0.025268
    18  H   -0.063522
    19  H   -0.012628
    20  H   -0.048605
    21  H   -0.035288
    22  H   -0.026506
    23  H   -0.026733
    24  H   -0.032363
    25  H   -0.069921
    26  H   -0.033507
    27  H   -0.017763
    28  H   -0.023935
    29  H   -0.017678
    30  H   -0.034481
    31  H   -0.024360
    32  H   -0.027846
    33  H   -0.017852
    34  H   -0.017973
    35  H   -0.029682
    36  H   -0.038400
    37  H   -0.013137
    38  H   -0.037119
 Sum of APT charges =   0.00000
 APT charges with hydrogens summed into heavy atoms:
               1
     1  O   -0.638160
     2  C    0.687906
     3  C   -0.073277
     4  C    0.010302
     5  C    0.040072
     6  C   -0.013638
     7  C    0.020182
     8  C    0.006787
     9  C    0.138051
    10  C   -0.040577
    11  C   -0.041044
    12  C   -0.035751
    13  C    0.037345
    14  C   -0.098197
 Electronic spatial extent (au):  <R**2>=           4039.3177
 Charge=             -0.0000 electrons
 Dipole moment (field-independent basis, Debye):
    X=              2.4027    Y=             -1.1888    Z=             -1.2667  Tot=              2.9649
 Quadrupole moment (field-independent basis, Debye-Ang):
   XX=            -94.5404   YY=            -92.3621   ZZ=            -89.3988
   XY=              4.9145   XZ=              2.9402   YZ=             -2.6858
 Traceless Quadrupole moment (field-independent basis, Debye-Ang):
   XX=             -2.4400   YY=             -0.2617   ZZ=              2.7017
   XY=              4.9145   XZ=              2.9402   YZ=             -2.6858
 Octapole moment (field-independent basis, Debye-Ang**2):
  XXX=             10.4206  YYY=              4.2196  ZZZ=              0.4616  XYY=             11.0617
  XXY=             -8.8202  XXZ=             -4.2616  XZZ=             -2.7505  YZZ=              2.5495
  YYZ=             -4.2337  XYZ=              5.5167
 Hexadecapole moment (field-independent basis, Debye-Ang**3):
 XXXX=          -4129.8405 YYYY=          -1041.8783 ZZZZ=           -373.1646 XXXY=            -23.7564
 XXXZ=             22.4009 YYYX=             13.9106 YYYZ=             -7.0597 ZZZX=            -11.4181
 ZZZY=              4.1907 XXYY=           -890.9758 XXZZ=           -754.8695 YYZZ=           -239.3172
 XXYZ=            -10.2071 YYXZ=             14.5339 ZZXY=             -0.5622
 N-N= 9.623524130343D+02 E-N=-3.279808572533D+03  KE= 5.793326243404D+02
  Exact polarizability: 162.888  -1.062 130.801  -2.927   0.477 115.526
 Approx polarizability: 195.380  -6.785 185.922  -8.321   5.344 184.279
 Calling FoFJK, ICntrl=    100127 FMM=F ISym2X=0 I1Cent= 0 IOpClX= 0 NMat=1 NMatS=1 NMatT=0.
 Full mass-weighted force constant matrix:
 Low frequencies ---   -6.4727   -3.7914   -1.5781    0.0001    0.0007    0.0009
 Low frequencies ---   29.0392   57.3033   68.9254
 Diagonal vibrational polarizability:
        8.4755879       7.6863467      16.0570032
 Harmonic frequencies (cm**-1), IR intensities (KM/Mole), Raman scattering
 activities (A**4/AMU), depolarization ratios for plane and unpolarized
 incident light, reduced masses (AMU), force constants (mDyne/A),
 and normal coordinates:
                      1                      2                      3
                      A                      A                      A
 Frequencies --     28.9911                57.3028                68.9229
 Red. masses --      2.6363                 3.7748                 2.4061
 Frc consts  --      0.0013                 0.0073                 0.0067
 IR Inten    --      0.0549                 1.4576                 0.4056
  Atom  AN      X      Y      Z        X      Y      Z        X      Y      Z
     1   8    -0.00   0.03  -0.08     0.13  -0.12   0.21    -0.07  -0.06  -0.07
     2   6     0.00   0.01  -0.05     0.01  -0.06   0.01    -0.02  -0.04  -0.02
     3   6    -0.00  -0.01  -0.00    -0.01  -0.04  -0.09     0.01  -0.03  -0.05
     4   6     0.01   0.01   0.04     0.00  -0.07  -0.10     0.01  -0.04  -0.05
     5   6    -0.00  -0.02   0.05    -0.05   0.11   0.04     0.02  -0.06  -0.07
     6   6     0.00   0.01   0.11    -0.05   0.11   0.05    -0.06   0.19   0.14
     7   6     0.00   0.01   0.01     0.00  -0.05  -0.11     0.01  -0.05  -0.07
     8   6     0.00  -0.01  -0.01     0.01  -0.02  -0.07     0.02   0.01   0.01
     9   6    -0.00  -0.01   0.01     0.00   0.03   0.03     0.02   0.02   0.00
    10   6     0.06   0.05  -0.15     0.08   0.01   0.08     0.03   0.02   0.00
    11   6     0.03   0.09   0.18     0.02   0.04   0.08     0.01   0.03  -0.01
    12   6    -0.11  -0.17   0.02    -0.08   0.08   0.05     0.04   0.02  -0.00
    13   6     0.01   0.01  -0.06    -0.03  -0.01  -0.12    -0.02  -0.02   0.11
    14   6     0.00  -0.01  -0.07    -0.05  -0.04  -0.10    -0.00  -0.01   0.07
    15   1    -0.01  -0.05   0.00    -0.02   0.01  -0.09     0.00  -0.01  -0.05
    16   1     0.01   0.01   0.08    -0.05  -0.07  -0.27     0.01  -0.04  -0.00
    17   1     0.02   0.05   0.03     0.10  -0.21  -0.06    -0.01   0.00  -0.06
    18   1    -0.02  -0.07   0.06    -0.16   0.23   0.00    -0.03  -0.30  -0.03
    19   1    -0.00  -0.02  -0.00     0.02   0.11   0.20     0.13  -0.02  -0.29
    20   1    -0.00  -0.02   0.11    -0.09   0.25   0.17    -0.04   0.14   0.10
    21   1     0.00   0.01   0.16    -0.13   0.11  -0.11    -0.16   0.16   0.42
    22   1     0.02   0.06   0.10     0.07  -0.01   0.10    -0.02   0.48   0.08
    23   1     0.00   0.06   0.01    -0.01  -0.09  -0.11    -0.01  -0.13  -0.06
    24   1     0.01   0.00   0.06     0.02  -0.04  -0.16     0.03  -0.03  -0.14
    25   1     0.00  -0.03  -0.01     0.06  -0.05  -0.07     0.04   0.08   0.01
    26   1     0.04   0.03  -0.06     0.08   0.05   0.16     0.05   0.04  -0.04
    27   1    -0.01  -0.00  -0.33     0.06   0.01   0.05     0.07   0.00   0.03
    28   1     0.21   0.18  -0.19     0.15  -0.03   0.07    -0.01   0.01   0.01
    29   1     0.02   0.03   0.34    -0.02   0.06   0.06    -0.01   0.04  -0.04
    30   1     0.02   0.06   0.13     0.03   0.07   0.15     0.02   0.05  -0.00
    31   1     0.08   0.26   0.18     0.09   0.01   0.07     0.01   0.00  -0.02
    32   1    -0.07  -0.08   0.03    -0.08   0.12   0.11     0.03  -0.01  -0.01
    33   1    -0.26  -0.22   0.15    -0.14   0.10   0.02     0.08   0.03  -0.01
    34   1    -0.08  -0.32  -0.10    -0.09   0.07   0.02     0.03   0.05   0.01
    35   1     0.02   0.04  -0.06    -0.01   0.03  -0.12    -0.09  -0.09   0.12
    36   1     0.00  -0.01  -0.09    -0.05  -0.00  -0.15    -0.00   0.02   0.20
    37   1     0.00  -0.04  -0.07    -0.10  -0.09  -0.10     0.05   0.04   0.07
    38   1     0.00  -0.00  -0.10    -0.05  -0.03  -0.13    -0.03  -0.02   0.11
                      4                      5                      6
                      A                      A                      A
 Frequencies --     73.8853               102.6655               152.2470
 Red. masses --      2.5112                 2.5371                 2.4808
 Frc consts  --      0.0081                 0.0158                 0.0339
 IR Inten    --      0.2629                 1.0463                 0.5348
  Atom  AN      X      Y      Z        X      Y      Z        X      Y      Z
     1   8     0.04  -0.03   0.10     0.08   0.03   0.14     0.06   0.07   0.00
     2   6    -0.00  -0.03   0.05     0.02   0.05   0.04     0.02   0.01  -0.01
     3   6     0.01  -0.04   0.10    -0.02   0.07  -0.04    -0.05  -0.00   0.03
     4   6    -0.03  -0.01   0.07     0.01   0.06   0.00    -0.07   0.09   0.13
     5   6     0.06  -0.05  -0.11     0.03  -0.15  -0.10    -0.03   0.01   0.03
     6   6    -0.06   0.12  -0.12     0.05  -0.08   0.05    -0.05  -0.03  -0.07
     7   6     0.01   0.01   0.15    -0.02   0.03  -0.10    -0.03  -0.12  -0.12
     8   6    -0.02  -0.03   0.02    -0.00   0.03  -0.06    -0.01  -0.05  -0.02
     9   6     0.01   0.01  -0.01    -0.04  -0.01  -0.00     0.02   0.01  -0.01
    10   6     0.03   0.02  -0.03    -0.07  -0.02   0.03     0.12   0.01   0.01
    11   6    -0.03   0.05  -0.03     0.02  -0.06   0.04    -0.02   0.07  -0.01
    12   6     0.04  -0.00  -0.02    -0.10   0.00   0.01     0.02   0.04  -0.01
    13   6    -0.01   0.00  -0.10     0.02   0.03  -0.04    -0.04  -0.08   0.09
    14   6    -0.04  -0.04  -0.05     0.01   0.05   0.00     0.04  -0.05  -0.05
    15   1     0.05  -0.08   0.10    -0.06   0.11  -0.04    -0.16  -0.00   0.03
    16   1    -0.03  -0.01   0.18     0.09   0.06   0.17    -0.09   0.08   0.30
    17   1    -0.13   0.10   0.03    -0.06   0.20  -0.04    -0.09   0.26   0.09
    18   1     0.16  -0.21  -0.06     0.07  -0.39  -0.04     0.07  -0.01   0.05
    19   1     0.12  -0.02  -0.29    -0.02  -0.15  -0.34    -0.08   0.00  -0.02
    20   1     0.03   0.08  -0.28     0.07  -0.30  -0.06     0.00  -0.09  -0.19
    21   1    -0.12   0.10   0.10     0.13  -0.09   0.36     0.01  -0.02  -0.02
    22   1    -0.18   0.32  -0.18    -0.03   0.20  -0.02    -0.19  -0.01  -0.10
    23   1     0.04   0.14   0.15    -0.01  -0.04  -0.10     0.01  -0.32  -0.12
    24   1     0.01  -0.02   0.27    -0.04   0.05  -0.17    -0.06  -0.07  -0.33
    25   1    -0.09  -0.12   0.03     0.04   0.05  -0.06     0.04   0.03  -0.02
    26   1     0.03   0.02  -0.01    -0.08  -0.04   0.04     0.13   0.06   0.06
    27   1     0.02   0.00  -0.07    -0.08   0.00   0.03     0.11  -0.01  -0.03
    28   1     0.07   0.03  -0.04    -0.06  -0.04   0.02     0.17  -0.01  -0.01
    29   1    -0.02   0.03   0.02     0.01  -0.05   0.00    -0.04   0.06   0.02
    30   1    -0.02   0.04  -0.10     0.00  -0.07   0.12     0.00   0.10  -0.04
    31   1    -0.08   0.10  -0.02     0.09  -0.11   0.02    -0.04   0.10  -0.00
    32   1     0.08   0.08  -0.05    -0.13  -0.05   0.05     0.05   0.09  -0.00
    33   1    -0.04  -0.01   0.00    -0.06   0.01  -0.00    -0.02   0.04  -0.02
    34   1     0.09  -0.08  -0.02    -0.15   0.05  -0.01     0.05   0.01   0.00
    35   1     0.08   0.10  -0.11     0.04   0.02  -0.04    -0.20  -0.16   0.11
    36   1    -0.04  -0.03  -0.21     0.01   0.02  -0.05     0.02  -0.05   0.25
    37   1    -0.11  -0.09  -0.05    -0.03   0.07   0.00     0.10  -0.14  -0.05
    38   1    -0.03  -0.02  -0.09     0.04   0.05   0.02     0.05  -0.02  -0.13
                      7                      8                      9
                      A                      A                      A
 Frequencies --    168.6610               196.0774               234.4937
 Red. masses --      2.8270                 1.8306                 1.6458
 Frc consts  --      0.0474                 0.0415                 0.0533
 IR Inten    --      0.8235                 0.0753                 0.2424
  Atom  AN      X      Y      Z        X      Y      Z        X      Y      Z
     1   8     0.15  -0.01   0.06    -0.02  -0.03  -0.01    -0.00   0.03   0.01
     2   6     0.03  -0.01  -0.10    -0.01  -0.03  -0.01    -0.01   0.01   0.01
     3   6     0.00  -0.02  -0.07     0.02  -0.04   0.04    -0.03   0.01  -0.01
     4   6    -0.00  -0.00  -0.07     0.04  -0.03   0.11    -0.07   0.02  -0.05
     5   6    -0.03  -0.02  -0.04     0.08   0.01   0.06    -0.11  -0.00  -0.02
     6   6     0.02  -0.03   0.04    -0.01   0.05  -0.06    -0.07  -0.04   0.02
     7   6    -0.03   0.03   0.07     0.05  -0.01  -0.05    -0.02   0.01   0.03
     8   6    -0.02   0.04   0.12     0.02   0.06  -0.02     0.01  -0.02   0.01
     9   6    -0.02   0.02   0.04    -0.00   0.02  -0.01     0.04  -0.00   0.01
    10   6    -0.10   0.04  -0.04    -0.08   0.03  -0.04     0.08   0.01  -0.02
    11   6    -0.06   0.03  -0.01     0.06  -0.04   0.05     0.05   0.02   0.04
    12   6     0.08  -0.05   0.02    -0.05  -0.01  -0.00     0.08  -0.03   0.00
    13   6    -0.06   0.03   0.14    -0.03   0.05   0.01     0.03  -0.01  -0.05
    14   6     0.02  -0.03  -0.17    -0.04  -0.01  -0.05     0.01  -0.01   0.02
    15   1     0.08  -0.08  -0.06    -0.06  -0.06   0.04    -0.00   0.02  -0.01
    16   1    -0.00  -0.00  -0.07     0.03  -0.03   0.15    -0.08   0.02  -0.05
    17   1     0.01  -0.00  -0.07     0.05   0.02   0.10    -0.08   0.01  -0.04
    18   1    -0.07  -0.03  -0.04     0.14   0.03   0.07    -0.13  -0.01  -0.02
    19   1    -0.04  -0.02  -0.04     0.11   0.01   0.07    -0.14  -0.01  -0.02
    20   1    -0.02  -0.06   0.10     0.06   0.13  -0.14    -0.08  -0.14  -0.01
    21   1     0.04  -0.03   0.04    -0.07   0.04  -0.10    -0.00  -0.03   0.10
    22   1     0.08  -0.02   0.05    -0.09   0.01  -0.07    -0.11   0.02   0.00
    23   1    -0.11   0.08   0.07     0.08  -0.08  -0.05    -0.04   0.07   0.03
    24   1     0.02   0.02   0.12     0.08   0.01  -0.11    -0.02  -0.00   0.09
    25   1    -0.02   0.09   0.12     0.04   0.09  -0.03     0.01  -0.07   0.01
    26   1    -0.08   0.03  -0.24    -0.03   0.06  -0.30     0.14   0.09  -0.20
    27   1    -0.01   0.01   0.05     0.07  -0.01   0.13     0.21  -0.05   0.09
    28   1    -0.30   0.09  -0.00    -0.35   0.04   0.01    -0.11   0.01   0.01
    29   1    -0.02   0.01   0.02    -0.06   0.04  -0.12    -0.10   0.09  -0.09
    30   1    -0.05   0.01  -0.11     0.07   0.04   0.31     0.08   0.14   0.24
    31   1    -0.14   0.08   0.00     0.24  -0.25  -0.00     0.18  -0.15   0.00
    32   1     0.06  -0.12  -0.06    -0.16  -0.24   0.03    -0.08  -0.38  -0.02
    33   1     0.17  -0.06   0.04     0.19  -0.01  -0.03     0.48  -0.01  -0.05
    34   1     0.07  -0.02   0.05    -0.19   0.19  -0.00    -0.11   0.28   0.06
    35   1    -0.29   0.03   0.15    -0.09   0.03   0.02     0.12   0.03  -0.06
    36   1     0.02   0.04   0.31    -0.04   0.08   0.06    -0.00  -0.03  -0.14
    37   1     0.18  -0.24  -0.17    -0.02  -0.08  -0.05    -0.03   0.02   0.02
    38   1    -0.04   0.02  -0.35    -0.08   0.00  -0.11     0.03  -0.01   0.04
                     10                     11                     12
                      A                      A                      A
 Frequencies --    246.9015               254.6722               263.0776
 Red. masses --      1.1635                 1.3258                 2.0066
 Frc consts  --      0.0418                 0.0507                 0.0818
 IR Inten    --      0.3227                 0.2072                 0.2512
  Atom  AN      X      Y      Z        X      Y      Z        X      Y      Z
     1   8     0.01   0.04   0.01     0.00  -0.00   0.02    -0.02   0.03   0.01
     2   6    -0.00   0.02   0.01    -0.02  -0.00  -0.01    -0.03   0.01   0.02
     3   6    -0.01   0.01   0.02    -0.01  -0.00  -0.00    -0.03   0.01  -0.00
     4   6    -0.01  -0.00   0.02    -0.01  -0.02  -0.00    -0.03  -0.04   0.00
     5   6     0.01  -0.08  -0.05    -0.03  -0.01   0.01    -0.06  -0.05   0.03
     6   6    -0.03   0.01   0.01    -0.04  -0.01  -0.01    -0.12  -0.02  -0.02
     7   6    -0.00   0.00  -0.00     0.00   0.04   0.03     0.02   0.02  -0.07
     8   6     0.00  -0.00  -0.00     0.01   0.03   0.01     0.05   0.06   0.00
     9   6     0.00   0.00  -0.00     0.02   0.01  -0.01     0.05   0.01   0.03
    10   6     0.01   0.00  -0.00     0.02   0.01  -0.04    -0.06   0.00   0.03
    11   6     0.01  -0.00   0.00     0.07  -0.08  -0.02     0.10  -0.04   0.04
    12   6     0.00   0.00  -0.00     0.00   0.02  -0.01     0.14  -0.04   0.01
    13   6     0.00  -0.00   0.00    -0.02   0.02   0.06     0.02   0.06  -0.04
    14   6     0.01  -0.00  -0.00    -0.01  -0.01  -0.02    -0.03   0.00  -0.02
    15   1    -0.02   0.02   0.02     0.00  -0.02   0.00    -0.07   0.05  -0.00
    16   1     0.03   0.00   0.11    -0.01  -0.02  -0.02     0.00  -0.03  -0.04
    17   1    -0.07   0.08  -0.01    -0.00  -0.04   0.00    -0.01  -0.08   0.02
    18   1     0.02  -0.18  -0.03    -0.03   0.00   0.01    -0.06  -0.04   0.03
    19   1     0.03  -0.07  -0.15    -0.02  -0.01   0.02    -0.05  -0.05   0.03
    20   1    -0.14   0.44   0.36    -0.02  -0.03  -0.05    -0.07   0.03  -0.08
    21   1    -0.33  -0.02  -0.43    -0.03  -0.01   0.03    -0.17  -0.03  -0.00
    22   1     0.35  -0.32   0.15    -0.09   0.02  -0.02    -0.18  -0.00  -0.03
    23   1     0.00  -0.01  -0.00    -0.00   0.10   0.03     0.03  -0.08  -0.07
    24   1    -0.01   0.00  -0.01     0.00   0.03   0.09     0.03   0.05  -0.17
    25   1    -0.00   0.00  -0.00    -0.01   0.06   0.01     0.11   0.06  -0.00
    26   1     0.01   0.00   0.01    -0.10  -0.13   0.37    -0.07  -0.05  -0.07
    27   1     0.00   0.00  -0.02    -0.28   0.09  -0.37    -0.04   0.05   0.11
    28   1     0.03   0.01  -0.01     0.48   0.10  -0.14    -0.18   0.00   0.05
    29   1    -0.01   0.01  -0.02     0.01   0.00  -0.20     0.23  -0.11   0.16
    30   1     0.01   0.01   0.03     0.06  -0.04   0.20     0.04  -0.17  -0.07
    31   1     0.03  -0.03  -0.00     0.20  -0.30  -0.06     0.06   0.11   0.06
    32   1    -0.02  -0.04   0.00    -0.00   0.01   0.01     0.32   0.27  -0.10
    33   1     0.05   0.01  -0.01     0.01   0.03  -0.03    -0.17  -0.08   0.11
    34   1    -0.02   0.04   0.00    -0.01   0.04  -0.01     0.38  -0.36   0.01
    35   1     0.00  -0.01   0.00    -0.11  -0.02   0.07     0.05   0.11  -0.04
    36   1     0.01  -0.00   0.00    -0.00   0.06   0.14    -0.01   0.07  -0.08
    37   1     0.00  -0.01  -0.00     0.04  -0.06  -0.02    -0.05  -0.04  -0.02
    38   1     0.02   0.00  -0.01    -0.03   0.01  -0.07    -0.04   0.02  -0.07
                     13                     14                     15
                      A                      A                      A
 Frequencies --    266.4897               282.4746               286.6708
 Red. masses --      1.0980                 2.7383                 2.9269
 Frc consts  --      0.0459                 0.1287                 0.1417
 IR Inten    --      0.0058                 2.6719                 1.0826
  Atom  AN      X      Y      Z        X      Y      Z        X      Y      Z
     1   8     0.00  -0.02  -0.01    -0.03   0.21   0.01    -0.11  -0.06   0.04
     2   6     0.01  -0.01  -0.01    -0.04   0.08   0.09    -0.08   0.02   0.01
     3   6    -0.00  -0.01  -0.01    -0.01   0.06   0.09    -0.00   0.04  -0.01
     4   6     0.01  -0.02   0.02     0.08  -0.17  -0.07     0.00   0.12   0.01
     5   6     0.00  -0.02   0.02     0.07  -0.04   0.00     0.06   0.10  -0.06
     6   6    -0.03   0.00  -0.01     0.03   0.03  -0.00     0.17   0.02   0.02
     7   6     0.00   0.00  -0.02    -0.01  -0.02  -0.02    -0.02  -0.03  -0.05
     8   6     0.01   0.01  -0.01    -0.01  -0.03   0.00    -0.01  -0.02   0.01
     9   6    -0.00   0.01   0.01    -0.01  -0.02   0.01     0.02  -0.02   0.04
    10   6    -0.04   0.01   0.00     0.03  -0.02   0.01     0.01  -0.03   0.04
    11   6     0.01   0.01   0.02    -0.04   0.02  -0.01     0.00  -0.02   0.02
    12   6     0.02   0.02   0.00     0.01  -0.03   0.00     0.16  -0.10   0.02
    13   6     0.02   0.01  -0.01    -0.05  -0.03  -0.00    -0.10   0.01  -0.05
    14   6     0.01  -0.00   0.00    -0.03  -0.04  -0.06    -0.13   0.01  -0.06
    15   1    -0.02  -0.02  -0.01    -0.01   0.18   0.08    -0.03   0.06  -0.01
    16   1     0.01  -0.02   0.03     0.16  -0.13  -0.40    -0.05   0.10   0.13
    17   1     0.02  -0.01   0.02     0.08  -0.50   0.01    -0.04   0.24  -0.02
    18   1     0.01  -0.01   0.02     0.02   0.01  -0.01     0.08   0.05  -0.05
    19   1     0.01  -0.01   0.03     0.15  -0.03   0.08     0.01   0.09  -0.09
    20   1    -0.00   0.02  -0.05     0.07  -0.01  -0.08     0.08  -0.03   0.16
    21   1    -0.05  -0.00  -0.01     0.01   0.02   0.11     0.25   0.04  -0.04
    22   1    -0.07   0.00  -0.02    -0.04   0.13  -0.04     0.30  -0.03   0.06
    23   1    -0.00  -0.02  -0.02     0.04  -0.16  -0.02    -0.02  -0.14  -0.05
    24   1     0.01   0.01  -0.04    -0.06   0.01  -0.15    -0.06  -0.00  -0.16
    25   1     0.02   0.01  -0.01     0.00  -0.02  -0.00     0.05  -0.05   0.01
    26   1    -0.11  -0.08   0.17     0.03  -0.00   0.06    -0.04  -0.09   0.22
    27   1    -0.19   0.07  -0.12     0.02  -0.03  -0.02    -0.12   0.02  -0.09
    28   1     0.14   0.04  -0.03     0.09  -0.03   0.00     0.21  -0.01  -0.00
    29   1     0.24  -0.13   0.30    -0.09   0.03  -0.02    -0.02  -0.01   0.01
    30   1    -0.05  -0.19  -0.32    -0.02   0.07  -0.01     0.02   0.01   0.03
    31   1    -0.17   0.37   0.08    -0.06   0.00  -0.01     0.00  -0.04   0.02
    32   1    -0.13  -0.28   0.01    -0.06  -0.17  -0.01     0.14  -0.22  -0.12
    33   1     0.36   0.05  -0.08     0.15  -0.03  -0.01     0.32  -0.12   0.07
    34   1    -0.16   0.32   0.07    -0.06   0.08   0.02     0.16  -0.05   0.08
    35   1     0.05   0.02  -0.02    -0.10  -0.03   0.00    -0.11   0.05  -0.05
    36   1     0.02  -0.01  -0.04    -0.03  -0.02   0.04    -0.12   0.03  -0.07
    37   1     0.00   0.01   0.00    -0.06  -0.22  -0.06    -0.17  -0.07  -0.06
    38   1    -0.00  -0.01   0.02     0.04   0.02  -0.24    -0.09   0.03  -0.12
                     16                     17                     18
                      A                      A                      A
 Frequencies --    323.5389               340.0584               376.5785
 Red. masses --      2.3785                 1.9539                 2.2195
 Frc consts  --      0.1467                 0.1331                 0.1854
 IR Inten    --      0.4189                 0.1153                 0.2590
  Atom  AN      X      Y      Z        X      Y      Z        X      Y      Z
     1   8    -0.03   0.04  -0.00    -0.04  -0.01   0.04     0.02   0.01   0.03
     2   6    -0.01  -0.01   0.06    -0.06   0.02  -0.01    -0.04   0.04  -0.07
     3   6     0.00  -0.01   0.08    -0.01   0.02  -0.00    -0.02   0.03  -0.07
     4   6    -0.05   0.02  -0.04    -0.01   0.02   0.00     0.06  -0.02   0.02
     5   6    -0.02   0.06  -0.08    -0.01   0.01  -0.00     0.06  -0.03   0.05
     6   6     0.08  -0.00   0.03    -0.01  -0.00   0.00    -0.01   0.01  -0.02
     7   6     0.00  -0.07   0.05     0.02   0.08   0.03    -0.05   0.06   0.02
     8   6    -0.01  -0.05  -0.00     0.03   0.03  -0.03    -0.04  -0.06  -0.07
     9   6     0.02   0.00  -0.03     0.04  -0.02  -0.05    -0.02  -0.04  -0.06
    10   6    -0.06   0.03  -0.10     0.14  -0.06   0.04    -0.03  -0.08   0.01
    11   6     0.13  -0.05   0.08     0.09  -0.06  -0.05     0.02   0.05   0.13
    12   6    -0.01   0.16  -0.03    -0.08  -0.04  -0.04     0.09   0.05  -0.09
    13   6    -0.03  -0.07   0.01    -0.05   0.02   0.06    -0.07  -0.09   0.02
    14   6    -0.01  -0.07  -0.01    -0.05   0.01  -0.04    -0.01   0.05   0.01
    15   1     0.04   0.03   0.07     0.00   0.00  -0.00    -0.01  -0.04  -0.07
    16   1    -0.10   0.02  -0.07    -0.00   0.02   0.01     0.11  -0.01   0.02
    17   1    -0.12  -0.02  -0.04    -0.01   0.03  -0.00     0.12  -0.00   0.02
    18   1    -0.04   0.04  -0.08    -0.01  -0.00  -0.00     0.07  -0.02   0.05
    19   1    -0.05   0.05  -0.08    -0.02   0.00  -0.01     0.08  -0.03   0.06
    20   1    -0.01  -0.11   0.14    -0.01  -0.00   0.01     0.05   0.08  -0.08
    21   1     0.17   0.01   0.05    -0.00  -0.00  -0.00    -0.07   0.00  -0.03
    22   1     0.18   0.01   0.05    -0.00  -0.01   0.00    -0.07   0.01  -0.03
    23   1     0.04  -0.09   0.05     0.02   0.21   0.03    -0.05   0.29   0.01
    24   1    -0.04  -0.06   0.02     0.03   0.04   0.16    -0.10   0.00   0.25
    25   1    -0.05  -0.05  -0.00    -0.00   0.07  -0.02    -0.07  -0.07  -0.07
    26   1    -0.06  -0.02  -0.27     0.24   0.12  -0.08    -0.03  -0.09   0.04
    27   1    -0.02   0.02  -0.08     0.34  -0.13   0.24    -0.03  -0.02   0.08
    28   1    -0.20   0.14  -0.08    -0.03  -0.22   0.09    -0.05  -0.17   0.02
    29   1     0.28  -0.14   0.24     0.29  -0.15   0.13    -0.12   0.01   0.26
    30   1     0.04  -0.23   0.04     0.02  -0.24  -0.28     0.02   0.10   0.27
    31   1     0.20   0.13   0.08    -0.04   0.18  -0.01     0.23   0.16   0.10
    32   1     0.03   0.29   0.06    -0.13  -0.10   0.06     0.14   0.12  -0.18
    33   1    -0.12   0.22  -0.17    -0.08  -0.05  -0.01     0.10   0.08  -0.17
    34   1     0.03   0.17   0.04    -0.17  -0.02  -0.14     0.18   0.05   0.06
    35   1    -0.06  -0.08   0.01    -0.19  -0.06   0.08    -0.17  -0.23   0.04
    36   1    -0.00  -0.07   0.05    -0.02   0.10   0.21    -0.02  -0.04   0.18
    37   1    -0.04  -0.16  -0.01    -0.01  -0.06  -0.03     0.04   0.21   0.01
    38   1     0.03  -0.04  -0.09    -0.05   0.03  -0.10     0.05  -0.00   0.17
                     19                     20                     21
                      A                      A                      A
 Frequencies --    396.6420               443.7604               454.5961
 Red. masses --      2.3485                 2.5689                 2.7753
 Frc consts  --      0.2177                 0.2981                 0.3379
 IR Inten    --      0.5948                 0.5124                 0.3319
  Atom  AN      X      Y      Z        X      Y      Z        X      Y      Z
     1   8     0.01   0.01  -0.02     0.07   0.04  -0.01     0.05  -0.02  -0.04
     2   6     0.03  -0.04   0.05     0.03   0.03  -0.06     0.07   0.00  -0.01
     3   6     0.01  -0.04   0.08     0.04  -0.03   0.03     0.06  -0.04   0.10
     4   6    -0.06  -0.00  -0.01     0.00  -0.02  -0.01    -0.03  -0.02  -0.01
     5   6    -0.05   0.04  -0.06     0.00  -0.01   0.00    -0.03   0.01  -0.03
[...]
 11690,0.00019329,-0.00012030,0.00043829,-0.00031847,-0.00006319,-0.000
 23207,0.00105192,0.00028146,-0.01298594,0.02056688,0.00405431,0.012469
 88,-0.01678545,-0.00340694,0.13548677,-0.00004660,0.00012926,0.0000448
 7,0.00002406,-0.00035378,-0.00007593,-0.00039182,0.00018472,0.00029004
 ,0.00000142,0.00004070,-0.00003246,-0.00001384,-0.00000400,-0.00001514
 ,0.00000515,0.00000701,0.00000574,0.00121334,-0.00005065,-0.00011985,0
 .00082460,-0.00027464,-0.00001576,-0.00105987,-0.00055649,-0.00040789,
 -0.00066140,0.00073597,0.00032530,-0.00019781,0.00081356,-0.00095717,0
 .11727304,-0.22945379,-0.03156018,-0.00008535,0.00003187,-0.00018326,-
 0.00002266,0.00008972,-0.00005177,0.00009877,0.00000819,0.00020105,-0.
 00000127,0.00000824,-0.00000596,-0.00002732,0.00000152,-0.00000217,0.0
 0000019,-0.00000110,0.00001068,0.00000485,0.00000130,0.00000429,0.0000
 0570,-0.00000616,0.00000778,-0.00000091,-0.00000071,-0.00000359,-0.000
 00442,-0.00000064,-0.00000187,-0.00043015,0.00017004,0.00101442,-0.000
 03633,-0.00006505,0.00008253,-0.00017828,0.00006734,-0.00011510,-0.000
 07199,-0.00001399,-0.00001194,0.00014263,0.00047225,0.00001000,-0.0000
 0826,0.00020455,-0.00015495,-0.00007558,0.00042969,0.00019603,-0.00004
 435,-0.00001286,0.00015024,0.00033968,0.00014534,0.00004060,-0.0006719
 2,0.00027567,0.00072342,0.01510486,-0.02064220,-0.00318528,-0.13103249
 ,0.24761614,0.00012196,0.00014155,-0.00000935,-0.00012350,-0.00038882,
 0.00002085,-0.00027747,0.00024591,0.00018867,-0.00001278,0.00005438,0.
 00001756,0.00000186,-0.00001666,-0.00003939,0.00000086,0.00001301,0.00
 002401,0.00000287,0.00006800,-0.00097881,0.00020986,-0.00062803,0.0012
 7375,0.01663102,-0.02616968,-0.00265922,-0.00075837,-0.00123043,0.0010
 8176,0.00180543,0.00113155,-0.00603773,0.02081875,-0.03069495,-0.05440
 333,-0.00008839,0.00001863,-0.00016872,-0.00007614,0.00002343,-0.00001
 646,0.00010243,-0.00000826,0.00015538,-0.00000344,0.00001650,-0.000009
 56,-0.00001044,-0.00000441,-0.00000309,0.00000078,-0.00000196,0.000006
 19,0.00000481,0.00000358,0.00000511,0.00001276,-0.00001408,0.00001099,
 -0.00000297,-0.00000313,-0.00000509,0.00000142,-0.00000083,-0.00000583
 ,-0.00130488,0.00042671,-0.00079796,-0.00002651,0.00014466,-0.00009870
 ,0.00006709,0.00019340,0.00024572,-0.00001440,0.00014743,-0.00003653,0
 .00018892,0.00077566,0.00019181,-0.00037622,0.00001503,0.00006376,-0.0
 0030524,0.00011803,-0.00004004,0.00029419,0.00011979,0.00014016,0.0014
 8348,-0.00163965,-0.00024072,-0.01143893,0.01996980,0.00378964,-0.0033
 0191,0.00344552,-0.00015256,-0.02363301,0.03363740,0.05838738,0.000009
 10,-0.00040000,0.00034277,0.00161228,-0.00044880,-0.00047175,0.0000413
 9,-0.00001033,-0.00021817,0.00005701,0.00003810,0.00004750,0.00000560,
 -0.00002685,-0.00001949,0.00000123,0.00000620,0.00001807,0.00031471,0.
 00137039,-0.00033362,-0.01246067,-0.00138654,0.01749423,0.00051766,0.0
 0030026,0.00138028,-0.00003482,-0.00005981,-0.00026611,-0.00024906,-0.
 00010025,-0.00017499,-0.00047426,-0.00100018,0.00020663,-0.12244045,-0
 .00347681,0.11612746,0.01073656,0.00103357,-0.02024513,-0.00013383,0.0
 0000539,-0.00003399,-0.00000867,0.00001229,0.00000793,0.00001265,0.000
 01020,0.00000897,-0.00000573,-0.00000658,0.00000365,0.00000363,0.00000
 143,-0.00001042,0.00000667,-0.00000933,0.00000487,-0.00000239,-0.00000
 108,-0.00000082,0.00000037,0.00000211,-0.00000228,0.00072403,-0.000439
 45,-0.00025441,0.00003167,0.00003595,-0.00028303,-0.00173126,-0.003874
 40,-0.00048369,-0.00006914,-0.00004441,-0.00012314,0.00001062,-0.00002
 520,0.00000315,0.00020350,0.00014267,-0.00016005,-0.00007854,0.0001247
 7,0.00016894,-0.00008988,0.00000699,-0.00012135,0.00034079,-0.00002083
 ,-0.00013261,0.00034652,0.00040331,-0.00012446,0.00007623,0.00045916,-
 0.00127201,0.00006972,0.00008042,-0.00005249,0.13382546,-0.00007934,0.
 00015744,-0.00019199,-0.00051284,-0.00024797,0.00079881,0.00020139,-0.
 00013794,-0.00006776,0.00002470,0.00000741,0.00003586,0.00000696,-0.00
 002013,-0.00000288,0.00000582,-0.00000355,0.00000166,-0.00074756,0.001
 87177,0.00116124,-0.01519846,-0.00203293,0.02386331,0.00060949,0.00068
 690,0.00040463,0.00001779,-0.00001770,0.00005754,0.00007000,0.00001094
 ,-0.00002615,-0.00012225,0.00011175,-0.00026413,-0.00315238,-0.0530590
 5,0.00903286,-0.00048711,-0.00016515,0.00060763,-0.00002637,0.00009822
 ,-0.00020679,0.00000471,0.00000769,0.00000352,0.00003075,-0.00003311,-
 0.00001076,0.00000199,0.00000675,-0.00001203,0.00000612,-0.00000421,0.
 00001559,-0.00000268,0.00000202,-0.00000426,-0.00000013,0.00000419,0.0
 0000225,0.00000216,-0.00000092,0.00000110,0.00043416,-0.00042664,-0.00
 049411,0.00010408,0.00030866,-0.00037102,-0.00350604,-0.00433435,0.000
 22105,-0.00000147,-0.00000941,-0.00013577,0.00001092,-0.00003162,-0.00
 002164,0.00014775,0.00008333,-0.00010881,-0.00004596,0.00003154,-0.000
 14113,0.00000336,0.00009120,0.00003401,-0.00001847,-0.00014388,0.00005
 489,0.00014893,0.00004987,-0.00004457,-0.00021065,0.00025951,-0.000490
 82,-0.00003845,-0.00015401,-0.00010255,0.00778886,0.05393647,-0.001392
 94,0.00027654,0.00044007,0.00254743,-0.00164437,-0.00052081,-0.0000150
 6,0.00036055,-0.00033963,0.00009590,0.00001843,-0.00002329,-0.00001097
 ,0.00000315,0.00000958,0.00000868,-0.00000427,-0.00000904,-0.00008086,
 -0.00029723,0.00004532,0.00072977,0.00061717,0.00088942,-0.00008290,0.
 00041691,-0.00027471,0.00017519,-0.00005892,0.00007211,0.00008339,0.00
 007235,0.00011446,-0.00050199,0.00001210,-0.00095852,0.11580423,0.0084
 2781,-0.22755934,0.01113316,0.00171327,-0.02315824,-0.00005358,-0.0000
 4192,0.00016487,-0.00001282,0.00004023,0.00001190,-0.00005356,0.000036
 07,0.00001276,-0.00000738,-0.00000943,0.00001688,0.00001766,-0.0000061
 1,0.00000390,-0.00000454,0.00000427,-0.00000231,-0.00000017,0.00000743
 ,0.00000180,-0.00000939,0.00000473,0.00000580,-0.00027752,0.00053983,0
 .00026329,-0.00018552,0.00009343,0.00025563,-0.00043722,-0.00011720,0.
 00102449,0.00005696,0.00007038,-0.00000541,-0.00000130,0.00001801,-0.0
 0000096,0.00000011,0.00000667,0.00005740,0.00006943,0.00003773,-0.0000
 3017,0.00004731,0.00003061,0.00001768,-0.00005550,-0.00002591,0.000024
 78,-0.00021394,-0.00017601,0.00017403,-0.00116887,-0.00101583,-0.00079
 828,0.00004072,0.00001056,0.00001490,-0.12325869,-0.00895259,0.2533576
 4,-0.00140947,0.00137230,0.00068692,-0.00036023,-0.00392085,-0.0037125
 2,-0.00017136,0.00011018,0.00054371,0.00010385,0.00002579,0.00017703,0
 .00001047,-0.00003407,-0.00000334,0.00001570,-0.00000397,0.00000971,-0
 .00261785,-0.00279859,-0.00029961,0.01287758,-0.01683117,-0.00109448,0
 .00071137,0.00055266,-0.00018040,0.00011149,0.00003251,0.00027811,-0.0
 0162331,0.00004262,-0.00151211,0.00003146,0.00005158,-0.00004854,-0.12
 787438,0.12157600,0.01186848,-0.01278792,0.01809439,-0.00200129,-0.000
 02238,-0.00004045,0.00000228,0.00000217,0.00014065,-0.00001304,-0.0000
 0001,-0.00005311,-0.00004236,0.00000775,0.00000977,-0.00001055,0.00003
 335,-0.00000783,0.00005592,-0.00000488,0.00000291,-0.00000843,0.000000
 44,0.00001634,0.00000176,0.00000131,-0.00000428,0.00000066,0.00003695,
 -0.00008053,-0.00019577,0.00083959,-0.00119347,0.00003569,0.00080132,0
 .00082143,0.00003857,0.00004156,0.00007667,0.00001745,0.00003559,0.000
 08671,0.00002683,-0.00000300,-0.00002750,0.00000599,-0.00234414,-0.000
 47716,-0.00132385,-0.00007385,-0.00022023,0.00009823,-0.00013306,0.000
 08860,0.00013228,0.00005217,0.00002917,-0.00002180,-0.00003883,0.00005
 705,-0.00000654,-0.00004237,-0.00003591,0.00005548,-0.00993801,0.01453
 595,0.00080406,0.14223679,0.00005686,0.00004216,0.00011849,-0.00036980
 ,0.00074960,-0.00015665,-0.00028590,0.00057634,-0.00022897,0.00006453,
 0.00005618,0.00014669,0.00003632,-0.00002897,-0.00008906,0.00000415,0.
 00001846,0.00004958,-0.00556646,-0.00356609,0.00016084,0.01536511,-0.0
 2177895,-0.00228445,0.00130934,-0.00041930,0.00056652,-0.00006469,0.00
 016816,0.00003154,0.00054497,-0.00048612,0.00084739,-0.00024983,0.0000
 3663,-0.00015775,0.11958064,-0.23205580,-0.01237471,-0.00006787,0.0010
 1664,-0.00007632,0.00001049,-0.00002652,0.00004237,-0.00002933,0.00010
 435,-0.00000027,0.00001313,-0.00001311,0.00000153,-0.00000652,-0.00000
 553,0.00001208,0.00001995,0.00000583,0.00001682,0.00002255,-0.00002644
 ,0.00001838,-0.00000462,-0.00000174,-0.00000861,0.00000087,-0.00000042
 ,-0.00000888,-0.00002694,0.00032356,-0.00009065,0.00116278,-0.00168154
 ,0.00004642,0.00000503,0.00101301,0.00045318,-0.00013740,0.00003097,-0
 .00007251,0.00007836,0.00021144,0.00008507,0.00004329,-0.00002401,0.00
 000606,0.00056140,0.00141141,-0.00042078,0.00028582,0.00072229,0.00009
 258,-0.00027188,-0.00010718,0.00008297,-0.00003285,0.00000182,-0.00011
 161,0.00007771,-0.00005718,-0.00009125,-0.00003113,0.00014780,0.000180
 96,-0.00101894,0.00194095,-0.00057132,-0.13121063,0.25111281,-0.002492
 79,0.00182894,0.00110696,-0.00139171,-0.00386180,-0.00478760,0.0001843
 2,-0.00007289,0.00047227,0.00014830,0.00001956,0.00010038,-0.00001364,
 -0.00002620,0.00001407,0.00001536,-0.00000182,0.00000057,-0.00013744,-
 0.00007231,0.00026475,0.00047766,0.00096948,-0.00096571,0.00047465,-0.
 00055315,0.00015755,-0.00016950,0.00012379,0.00000195,-0.00108822,-0.0
 0072404,0.00017420,-0.00019831,0.00000837,-0.00012621,0.01130214,-0.01
 216231,-0.04975484,-0.01739114,0.02478972,-0.00246123,-0.00003182,-0.0
 0003078,-0.00000576,0.00000589,0.00008365,0.00000563,-0.00003054,-0.00
 003689,-0.00002830,0.00000983,0.00000742,-0.00000343,0.00002148,-0.000
 01008,0.00004495,-0.00000586,0.00000408,-0.00000562,-0.00000018,0.0000
 1148,0.00000183,-0.00000118,-0.00000299,0.00000022,-0.00029892,0.00036
 647,0.00025915,0.00003492,-0.00005713,0.00060517,-0.00048800,0.0001028
 1,0.00021244,-0.00001272,-0.00003424,-0.00002276,0.00002997,0.00008055
 ,-0.00000954,0.00002044,0.00001122,-0.00001599,-0.00146553,0.00025349,
 -0.00074338,0.00015557,0.00017739,-0.00010488,0.00021173,0.00012550,-0
 .00012849,-0.00006007,-0.00001283,-0.00003694,0.00018297,-0.00009419,-
 0.00000780,0.00005938,0.00016975,0.00008655,0.01580363,-0.02429807,-0.
 00098605,-0.00535374,0.01307942,0.05429971,-0.00149500,0.00449660,-0.0
 0282229,-0.01267256,-0.00127036,0.01612153,0.00001280,-0.00036830,-0.0
 0083954,-0.00000281,0.00003841,-0.00038332,-0.00006858,0.00000960,-0.0
 0002435,0.00002214,0.00001502,-0.00001698,-0.00005823,-0.00033422,-0.0
 0002557,0.00152037,0.00042860,-0.00031432,0.00012222,0.00032875,-0.000
 13583,0.00003363,-0.00003422,0.00010383,0.00003512,0.00001870,0.000028
 49,-0.00003208,0.00007094,-0.00015522,0.01083468,-0.00209002,-0.020891
 41,-0.11664612,0.00664547,0.11939278,0.00080051,0.00021000,-0.00034871
 ,0.00002000,0.00000854,-0.00002150,0.00003243,-0.00016501,-0.00005616,
 0.00005153,0.00005901,-0.00003014,0.00001655,-0.00002102,0.00014680,-0
 .00000858,0.00001010,-0.00000520,-0.00000108,0.00000693,-0.00000096,0.
 00000941,-0.00001575,-0.00000566,-0.00011834,0.00003575,-0.00004844,-0
 .00001922,-0.00000835,-0.00003488,-0.00016206,0.00003364,0.00037642,0.
 00003030,0.00003509,0.00000993,-0.00000261,0.00001477,0.00000073,-0.00
 001789,-0.00001775,0.00000411,0.00001610,0.00001464,-0.00003470,0.0000
 1481,0.00001461,0.00002173,-0.00004645,-0.00000208,0.00001445,-0.00004
 482,-0.00007820,0.00001147,-0.00005809,-0.00009408,0.00011052,-0.00000
 645,-0.00000514,0.00001235,-0.00233588,-0.00028206,-0.00389779,0.00140
 973,-0.00013248,0.00094173,0.12892000,0.00321427,-0.00335607,0.0034537
 2,0.01452671,0.00295767,-0.02710488,-0.00150534,-0.00036501,0.00270777
 ,0.00011762,0.00015512,0.00040356,0.00008228,0.00002052,0.00005036,-0.
 00002830,-0.00001798,-0.00000352,0.00046364,0.00016180,0.00027499,0.00
 047661,0.00005517,-0.00097454,-0.00007260,0.00004521,0.00004827,0.0000
 2545,-0.00002713,0.00000079,-0.00001340,0.00001931,-0.00000288,0.00002
 499,-0.00005939,0.00002302,-0.00140320,0.00047792,0.00196769,0.0077917
 0,-0.05379044,-0.01837001,-0.00041067,-0.00169033,-0.00002834,-0.00005
 734,0.00005199,0.00001117,-0.00000481,0.00012647,0.00006183,-0.0000553
 4,-0.00004963,0.00002214,-0.00004014,0.00003642,-0.00016161,0.00000038
 ,0.00000111,-0.00000336,0.00000130,-0.00001957,0.00000072,-0.00000401,
 0.00001223,0.00000561,0.00000339,0.00010298,0.00005630,0.00004938,0.00
 000435,0.00001845,-0.00021005,0.00005890,0.00000503,0.00001268,0.00000
 919,0.00001898,-0.00000593,-0.00000139,0.00000015,-0.00001684,-0.00000
 446,0.00000165,-0.00001367,-0.00001261,0.00002868,0.00001078,-0.000017
 34,-0.00000183,0.00001132,0.00002236,-0.00001597,0.00001661,0.00000465
 ,0.00001747,-0.00000578,0.00002528,-0.00001282,-0.00000113,0.00000074,
 -0.00000638,0.00056845,0.00100656,0.00052662,-0.00059377,0.00015175,0.
 00028715,-0.01020616,0.05083408,-0.00062275,-0.00038049,-0.00101886,-0
 .00020013,0.00054592,0.00168438,0.00083034,0.00010456,-0.00068594,-0.0
 0016075,-0.00021446,0.00018026,0.00006977,0.00002198,0.00001183,-0.000
 01517,-0.00001050,-0.00000584,-0.00040605,-0.00009760,-0.00009823,0.00
 185276,0.00076592,0.00059239,-0.00025288,0.00015873,0.00016071,-0.0000
 2455,-0.00001154,0.00001337,0.00005635,0.00008654,-0.00007796,0.000170
 25,0.00022441,-0.00008373,0.01264583,-0.00165562,-0.02613498,0.1153466
 5,-0.01411448,-0.22217312,-0.00038841,0.00013176,0.00060790,0.00001592
 ,-0.00002750,0.00000074,-0.00006964,0.00012045,0.00002697,-0.00000558,
 -0.00001034,0.00001825,-0.00003049,-0.00002155,-0.00000309,-0.00000021
 ,0.00000354,-0.00000093,0.00000170,-0.00000242,-0.00000030,-0.00000418
 ,0.00000538,0.00000428,-0.00003266,0.00018715,0.00016198,0.00000882,-0
 .00004920,0.00000413,-0.00088285,-0.00072399,0.00060981,0.00000128,0.0
 0000343,0.00000693,0.00000019,0.00000857,-0.00000107,-0.00003559,-0.00
 002200,0.00002000,0.00003731,-0.00006330,-0.00000445,-0.00002021,-0.00
 001853,0.00003511,-0.00008005,-0.00000950,0.00004516,-0.00009804,-0.00
 009031,0.00007326,-0.00007133,-0.00018329,0.00016158,-0.00001321,-0.00
 001085,0.00001498,-0.00444618,0.00003147,-0.00327926,0.00041118,0.0003
 3818,0.00153412,-0.12384598,0.01440856,0.24796078,0.00195319,-0.001336
 58,-0.00000813,0.01164998,0.01606070,-0.00091631,-0.00213002,0.0024840
 9,0.00014294,0.00075694,0.00072443,0.00006852,0.00004398,-0.00002582,0
 .00009069,-0.00000495,0.00000178,-0.00002098,-0.00026738,0.00020857,-0
 .00009950,-0.00164664,0.00183578,-0.00398468,-0.00000834,-0.00130634,0
 .00043045,-0.00025273,0.00019514,-0.00037883,0.00006117,-0.00015049,0.
 00000734,-0.00018160,-0.00000333,0.00003699,-0.01194457,-0.01498228,0.
 00174660,-0.15727766,-0.13388197,0.00824038,-0.00003125,0.00000137,-0.
 00010128,-0.00013215,0.00035290,-0.00000408,0.00002654,-0.00006297,0.0
 0001497,0.00000137,0.00000484,-0.00001307,-0.00000344,-0.00001484,-0.0
 0001811,-0.00000957,0.00000330,-0.00000433,-0.00000188,-0.00000759,0.0
 0000073,0.00000003,-0.00000001,0.00000208,0.00006203,-0.00006295,0.000
 01533,0.00004076,-0.00009252,0.00002731,0.00035607,0.00043081,-0.00003
 635,-0.00012888,-0.00014556,-0.00001394,0.00001853,-0.00003113,-0.0000
 0163,0.00001155,0.00000952,0.00002709,0.00003004,0.00003521,-0.0000048
 0,-0.00004583,0.00002995,-0.00002808,0.00000932,0.00000221,0.00001783,
 0.00000573,0.00000085,-0.00009536,0.00003674,0.00002366,0.00000438,0.0
 0001832,-0.00001506,-0.00000921,0.00110517,0.00027630,0.00010851,0.000
 08443,0.00026398,0.00055134,-0.01010549,-0.01274908,0.00025853,0.16790
 049,-0.00001661,0.00609273,-0.00037162,-0.02278820,-0.02669675,0.00183
 830,0.00529704,-0.00336792,-0.00009425,-0.00166424,-0.00084240,-0.0002
 1497,-0.00008484,-0.00004106,-0.00025278,0.00003247,0.00003054,0.00011
 507,0.00046317,0.00034323,0.00043250,0.00056782,0.00078012,0.00042749,
 0.00016249,0.00020285,0.00019514,0.00004795,-0.00001614,0.00000339,-0.
 00003029,0.00000573,-0.00005137,-0.00002337,-0.00003363,-0.00001937,0.
 00221773,0.00287949,-0.00079475,-0.12897375,-0.20865619,0.00867686,0.0
 0011195,0.00046555,0.00016064,0.00034260,-0.00059127,-0.00003176,0.000
 06357,-0.00002681,-0.00006490,0.00000871,0.00000807,0.00002038,0.00004
 795,0.00002224,0.00009652,0.00004627,-0.00004567,0.00003197,-0.0000058
 9,0.00002781,-0.00001091,0.00000146,-0.00000596,-0.00001905,-0.0000354
 2,-0.00000548,-0.00010981,-0.00008281,-0.00000499,-0.00008408,-0.00002
 372,-0.00006323,0.00005991,0.00001087,0.00002161,0.00000195,-0.0000003
 0,0.00001736,0.00001957,0.00000571,-0.00000345,0.00000034,0.00000190,-
 0.00000300,0.00000831,-0.00001799,0.00000846,-0.00000004,-0.00000255,-
 0.00000127,0.00000388,0.00000006,0.00001159,-0.00000396,0.00000329,0.0
 0001668,-0.00000053,-0.00000571,0.00000848,0.00001891,-0.00004075,0.00
 014940,-0.00042374,-0.00018977,0.00043674,-0.00044853,0.00263005,0.003
 06960,0.00057094,0.14192314,0.22580695,-0.00036202,0.00011912,-0.00126
 960,0.00102170,-0.00090889,-0.00062947,-0.00005570,0.00052339,0.001159
 06,0.00006967,-0.00002112,0.00041399,0.00004559,-0.00001223,0.00000823
 ,-0.00000093,-0.00001060,0.00000303,-0.00009927,0.00058669,-0.00010208
 ,-0.00249481,0.00188857,-0.00447480,-0.00058645,-0.00142995,0.00070298
 ,-0.00033935,0.00018654,-0.00048740,0.00009493,-0.00014950,-0.00001598
 ,-0.00005439,-0.00002297,0.00015417,-0.01663356,-0.02183734,0.00104690
 ,0.00811503,0.00884204,-0.05096703,-0.00046590,-0.00030354,0.00023847,
 -0.00002670,0.00008885,-0.00001137,-0.00004865,0.00005896,0.00000700,-
 0.00000060,-0.00000683,-0.00000132,0.00000581,-0.00001174,0.00001573,-
 0.00000343,0.00000508,-0.00000804,0.00000108,0.00000290,0.00000149,0.0
 0000122,0.00000117,0.00000217,0.00004376,-0.00003268,-0.00000322,0.000
 10314,-0.00006588,0.00007060,-0.00026044,-0.00001116,0.00029625,-0.000
 15809,-0.00018119,-0.00001424,0.00002152,-0.00003111,-0.00000189,0.000
 00764,0.00001944,0.00002125,0.00002258,0.00003919,0.00000699,-0.000044
 42,0.00003008,-0.00001304,-0.00000891,0.00001134,0.00001331,0.00000519
 ,0.00001572,-0.00004852,0.00003548,0.00004431,-0.00002035,0.00001168,-
 0.00001359,-0.00001610,0.00087081,-0.00037957,0.00096731,0.00057802,0.
 00036672,0.00085207,0.01664210,0.02228547,-0.00036114,-0.00605332,-0.0
 0968565,0.05246460\\0.00003722,0.00001669,0.00004724,0.00000615,-0.000
 01156,-0.00001784,-0.00001854,0.00000585,-0.00001589,-0.00000494,-0.00
 000114,0.00001390,0.00000410,0.00004375,0.00001836,0.00001669,-0.00004
 713,-0.00001160,0.00001268,-0.00004141,0.00001188,-0.00001995,0.000002
 41,-0.00000462,-0.00004667,-0.00001216,-0.00000924,-0.00005992,-0.0000
 4005,-0.00002221,0.00004623,-0.00001405,0.00002848,0.00001487,0.000004
 04,-0.00001694,-0.00001504,-0.00000483,-0.00003101,-0.00000837,0.00001
 135,0.00002348,0.00000630,0.00000176,0.00000612,0.00002162,0.00000054,
 0.00000391,0.00000119,0.00000933,0.00000596,0.00003631,0.00001115,-0.0
 0004679,-0.00001573,-0.00006974,-0.00002147,-0.00000278,-0.00000734,-0
 .00000529,0.00002527,0.00004200,0.00000910,-0.00004479,0.00000725,0.00
 003389,-0.00000499,-0.00000167,0.00000085,0.00005974,0.00001773,0.0000
 3261,-0.00001044,0.00001935,-0.00001292,-0.00000557,0.00001306,0.00001
 142,-0.00004858,0.00002862,-0.00002115,0.00000416,-0.00000631,0.000004
 35,0.00003504,0.00000809,0.00002236,0.00001157,-0.00000971,-0.00000505
 ,0.00000754,-0.00000469,-0.00000541,0.00000530,-0.00000480,0.00001366,
 -0.00000544,-0.00000069,0.00000044,0.00000244,0.00000952,-0.00000414,-
 0.00000807,-0.00000508,-0.00000138,-0.00003664,0.00003829,-0.00002460,
 0.00001057,0.00000016,-0.00000817,-0.00000854,-0.00000857,-0.00000230\
 \\@


 ADAM SMITH SAID, "THE REAL PRICE OF ANYTHING IS THE TOIL AND TROUBLE
 OF ACQUIRING IT."  BUT IN ALL UNDERTAKINGS WITH NATURE WE SHOULD FIRST
 READ CAREFULLY THE SMALL PRINT IN THE CONTRACT. THIS MIGHT DISCLOSE
 THAT THE REAL PRICE IS TO BE PAID BY THOSE WHO INHERIT THE DEPLETION
 AND DESPOILATION THAT FOLLOWS.
                               -- E. R. HARRISON IN "COSMOLOGY" (1980)
 Job cpu time:       0 days  0 hours  4 minutes 23.0 seconds.
 Elapsed time:       0 days  0 hours  4 minutes 44.0 seconds.
 File lengths (MBytes):  RWF=    297 Int=      0 D2E=      0 Chk=     16 Scr=      1
 Normal termination of Gaussian 16 at Sat Feb 24 01:45:46 2024.
