 Entering Gaussian System, Link 0=g16
 Input=/Volumes/SSD-PMU3/b3lyp_6-31gd_freq/KMIVZYGUCIUIAK-GHMZBOCLSA-N_calculating/gaussianinput2.gjf
 Output=/Volumes/SSD-PMU3/b3lyp_6-31gd_freq/KMIVZYGUCIUIAK-GHMZBOCLSA-N_calculating/gaussianinput2.log
 Initial command:
 /Applications/g16/l1.exe "/Users/macmini_m1_2022/PycharmProjects/sphere_model/sphere_model_lib/Gau-84920.inp" -scrdir="/Users/macmini_m1_2022/PycharmProjects/sphere_model/sphere_model_lib/"
 Entering Link 1 = /Applications/g16/l1.exe PID=     84921.
  
 Copyright (c) 1988,1990,1992,1993,1995,1998,2003,2009,2016,
            Gaussian, Inc.  All Rights Reserved.
  
 This is part of the Gaussian(R) 16 program.  It is based on
 the Gaussian(R) 09 system (copyright 2009, Gaussian, Inc.),
 the Gaussian(R) 03 system (copyright 2003, Gaussian, Inc.),
 the Gaussian(R) 98 system (copyright 1998, Gaussian, Inc.),
 the Gaussian(R) 94 system (copyright 1995, Gaussian, Inc.),
 the Gaussian 92(TM) system (copyright 1992, Gaussian, Inc.),
 the Gaussian 90(TM) system (copyright 1990, Gaussian, Inc.),
 the Gaussian 88(TM) system (copyright 1988, Gaussian, Inc.),
 the Gaussian 86(TM) system (copyright 1986, Carnegie Mellon
 University), and the Gaussian 82(TM) system (copyright 1983,
 Carnegie Mellon University). Gaussian is a federally registered
 trademark of Gaussian, Inc.
  
 This software contains proprietary and confidential information,
 including trade secrets, belonging to Gaussian, Inc.
  
 This software is provided under written license and may be
 used, copied, transmitted, or stored only in accord with that
 written license.
  
 The following legend is applicable only to US Government
 contracts under FAR:
  
                    RESTRICTED RIGHTS LEGEND
  
 Use, reproduction and disclosure by the US Government is
 subject to restrictions as set forth in subparagraphs (a)
 and (c) of the Commercial Computer Software - Restricted
 Rights clause in FAR 52.227-19.
  
 Gaussian, Inc.
 340 Quinnipiac St., Bldg. 40, Wallingford CT 06492
  
  
 ---------------------------------------------------------------
 Warning -- This program may not be used in any manner that
 competes with the business of Gaussian, Inc. or will provide
 assistance to any competitor of Gaussian, Inc.  The licensee
 of this program is prohibited from giving any competitor of
 Gaussian, Inc. access to this program.  By using this program,
 the user acknowledges that Gaussian, Inc. is engaged in the
 business of creating and licensing software in the field of
 computational chemistry and represents and warrants to the
 licensee that it is not a competitor of Gaussian, Inc. and that
 it will not use this program in any manner prohibited above.
 ---------------------------------------------------------------
  

 Cite this work as:
 Gaussian 16, Revision A.03,
 M. J. Frisch, G. W. Trucks, H. B. Schlegel, G. E. Scuseria, 
 M. A. Robb, J. R. Cheeseman, G. Scalmani, V. Barone, 
 G. A. Petersson, H. Nakatsuji, X. Li, M. Caricato, A. V. Marenich, 
 J. Bloino, B. G. Janesko, R. Gomperts, B. Mennucci, H. P. Hratchian, 
 J. V. Ortiz, A. F. Izmaylov, J. L. Sonnenberg, D. Williams-Young, 
 F. Ding, F. Lipparini, F. Egidi, J. Goings, B. Peng, A. Petrone, 
 T. Henderson, D. Ranasinghe, V. G. Zakrzewski, J. Gao, N. Rega, 
 G. Zheng, W. Liang, M. Hada, M. Ehara, K. Toyota, R. Fukuda, 
 J. Hasegawa, M. Ishida, T. Nakajima, Y. Honda, O. Kitao, H. Nakai, 
 T. Vreven, K. Throssell, J. A. Montgomery, Jr., J. E. Peralta, 
 F. Ogliaro, M. J. Bearpark, J. J. Heyd, E. N. Brothers, K. N. Kudin, 
 V. N. Staroverov, T. A. Keith, R. Kobayashi, J. Normand, 
 K. Raghavachari, A. P. Rendell, J. C. Burant, S. S. Iyengar, 
 J. Tomasi, M. Cossi, J. M. Millam, M. Klene, C. Adamo, R. Cammi, 
 J. W. Ochterski, R. L. Martin, K. Morokuma, O. Farkas, 
 J. B. Foresman, and D. J. Fox, Gaussian, Inc., Wallingford CT, 2016.
 
 ******************************************
 Gaussian 16:  EM64M-G16RevA.03 25-Dec-2016
                24-Feb-2024 
 ******************************************
 %nprocshared=10
 Will use up to   10 processors via shared memory.
 %mem=12GB
 %chk= 2.chk
 ---------------------
 # freq b3lyp/6-31g(d)
 ---------------------
 1/10=4,30=1,38=1/1,3;
 2/12=2,17=6,18=5,40=1/2;
 3/5=1,6=6,7=1,11=2,25=1,30=1,71=2,74=-5,140=1/1,2,3;
 4//1;
 5/5=2,38=5,98=1/2;
 8/6=4,10=90,11=11/1;
 11/6=1,8=1,9=11,15=111,16=1/1,2,10;
 10/6=1/2;
 6/7=2,8=2,9=2,10=2,28=1/1;
 7/8=1,10=1,25=1/1,2,3,16;
 1/10=4,30=1/3;
 99//99;
 ---------
 good luck
 ---------
 Symbolic Z-matrix:
 Charge =  0 Multiplicity = 1
 O                     1.21799   0.        0. 
 C                     0.        0.        0. 
 C                    -0.83594  -1.28043   0.01703 
 C                     0.01342  -2.5624   -0.05262 
 C                     0.69963  -2.84956  -1.3968 
 C                     1.57801  -4.10394  -1.33979 
 C                    -1.96515  -1.20614  -1.04163 
 C                    -2.84659   0.05309  -0.89376 
 C                    -4.10574   0.07029  -1.83104 
 C                    -3.72661   0.05503  -3.32628 
 C                    -4.99547  -1.15659  -1.53195 
 C                    -4.95007   1.33221  -1.54645 
 C                    -1.94258   1.29755  -1.02263 
 C                    -0.80426   1.29273   0.01703 
 H                    -1.33571  -1.26997   1.00166 
 H                     0.78362  -2.50029   0.72585 
 H                    -0.63043  -3.41426   0.21008 
 H                     1.31308  -1.98682  -1.67852 
 H                    -0.0537   -2.97683  -2.18554 
 H                     0.9904   -4.99105  -1.0715 
 H                     2.05512  -4.30103  -2.30663 
 H                     2.3727   -3.99461  -0.59215 
 H                    -1.51957  -1.2206   -2.04422 
 H                    -2.56486  -2.11851  -0.95445 
 H                    -3.24598   0.05076   0.13476 
 H                    -4.6318    0.0755   -3.94519 
 H                    -3.12191   0.92524  -3.60521 
 H                    -3.16662  -0.84658  -3.59833 
 H                    -4.51563  -2.0993   -1.81385 
 H                    -5.93441  -1.09091  -2.09434 
 H                    -5.25093  -1.21304  -0.46612 
 H                    -5.89425   1.2906   -2.1023 
 H                    -4.43902   2.25268  -1.84665 
 H                    -5.19674   1.41482  -0.48021 
 H                    -1.50273   1.33162  -2.02846 
 H                    -2.51808   2.22064  -0.90221 
 H                    -0.1148    2.12949  -0.13044 
 H                    -1.23868   1.39756   1.02335 
 

 GradGradGradGradGradGradGradGradGradGradGradGradGradGradGradGradGradGrad
 Berny optimization.
 Initialization pass.
 Trust Radius=3.00D-01 FncErr=1.00D-07 GrdErr=1.00D-07 EigMax=2.50D+02 EigMin=1.00D-04
 Number of steps in this run=      2 maximum allowed number of steps=      2.
 GradGradGradGradGradGradGradGradGradGradGradGradGradGradGradGradGradGrad

                          Input orientation:                          
 ---------------------------------------------------------------------
 Center     Atomic      Atomic             Coordinates (Angstroms)
 Number     Number       Type             X           Y           Z
 ---------------------------------------------------------------------
      1          8           0        1.217989    0.000000    0.000000
      2          6           0        0.000000    0.000000    0.000000
      3          6           0       -0.835937   -1.280432    0.017029
      4          6           0        0.013418   -2.562396   -0.052616
      5          6           0        0.699630   -2.849558   -1.396797
      6          6           0        1.578006   -4.103941   -1.339787
      7          6           0       -1.965151   -1.206141   -1.041632
      8          6           0       -2.846589    0.053092   -0.893759
      9          6           0       -4.105744    0.070290   -1.831037
     10          6           0       -3.726611    0.055027   -3.326278
     11          6           0       -4.995467   -1.156586   -1.531951
     12          6           0       -4.950069    1.332210   -1.546445
     13          6           0       -1.942577    1.297545   -1.022633
     14          6           0       -0.804260    1.292727    0.017029
     15          1           0       -1.335706   -1.269969    1.001657
     16          1           0        0.783621   -2.500290    0.725845
     17          1           0       -0.630425   -3.414256    0.210078
     18          1           0        1.313084   -1.986818   -1.678516
     19          1           0       -0.053699   -2.976827   -2.185542
     20          1           0        0.990395   -4.991053   -1.071499
     21          1           0        2.055121   -4.301035   -2.306627
     22          1           0        2.372696   -3.994605   -0.592145
     23          1           0       -1.519571   -1.220598   -2.044217
     24          1           0       -2.564864   -2.118512   -0.954450
     25          1           0       -3.245977    0.050755    0.134762
     26          1           0       -4.631795    0.075503   -3.945185
     27          1           0       -3.121914    0.925235   -3.605210
     28          1           0       -3.166616   -0.846583   -3.598327
     29          1           0       -4.515629   -2.099300   -1.813853
     30          1           0       -5.934407   -1.090907   -2.094338
     31          1           0       -5.250929   -1.213044   -0.466116
     32          1           0       -5.894254    1.290595   -2.102296
     33          1           0       -4.439018    2.252682   -1.846646
     34          1           0       -5.196740    1.414824   -0.480213
     35          1           0       -1.502728    1.331615   -2.028464
     36          1           0       -2.518077    2.220644   -0.902214
     37          1           0       -0.114804    2.129490   -0.130440
     38          1           0       -1.238678    1.397562    1.023346
 ---------------------------------------------------------------------
                    Distance matrix (angstroms):
                    1          2          3          4          5
     1  O    0.000000
     2  C    1.217989   0.000000
     3  C    2.420415   1.529244   0.000000
     4  C    2.831896   2.562971   1.539378   0.000000
     5  C    3.215543   3.249693   2.611327   1.536285   0.000000
     6  C    4.332086   4.596462   3.954779   2.545802   1.532407
     7  C    3.559797   2.530137   1.549647   2.594671   3.150876
     8  C    4.162021   2.984073   2.578865   3.965847   4.610216
     9  C    5.630255   4.496084   3.991420   5.202049   5.639654
    10  C    5.959549   4.995476   4.617050   5.617436   5.634813
    11  C    6.503199   5.351566   4.440312   5.408666   5.942941
    12  C    6.497016   5.354387   5.118245   6.483493   7.030553
    13  C    3.566312   2.550099   2.991908   4.434636   4.931503
    14  C    2.400193   1.522586   2.573354   3.941500   4.628079
    15  H    3.022829   2.097677   1.104251   2.145226   3.519982
    16  H    2.639503   2.718890   2.147892   1.096846   2.152824
    17  H    3.888176   3.478320   2.152373   1.099640   2.161013
    18  H    2.602673   2.913598   2.827038   2.159623   1.095450
    19  H    3.905801   3.693369   2.888074   2.173852   1.098099
    20  H    5.109845   5.199962   4.276575   2.809089   2.185489
    21  H    4.951790   5.295560   4.783475   3.503139   2.184475
    22  H    4.200102   4.683716   4.246546   2.812207   2.181226
    23  H    3.628074   2.824496   2.172480   2.849026   2.827988
    24  H    4.439487   3.460866   2.152984   2.767287   3.374466
    25  H    4.466288   3.249170   2.755760   4.181785   5.130819
    26  H    7.056214   6.084711   5.652100   6.609736   6.593509
    27  H    5.717373   4.857978   4.817808   5.883434   5.807783
    28  H    5.734930   4.867455   4.323319   5.062479   4.879191
    29  H    6.369576   5.299814   4.190800   4.881463   5.285428
    30  H    7.532138   6.386980   5.521611   6.458369   6.898541
    31  H    6.598154   5.409343   4.441860   5.450237   6.241274
    32  H    7.527900   6.389641   6.057086   7.344884   7.817794
    33  H    6.362893   5.309384   5.379440   6.799096   7.255406
    34  H    6.586431   5.407258   5.150559   6.568627   7.334321
    35  H    3.645568   2.854130   3.383998   4.622337   4.767766
    36  H    4.438856   3.476487   3.991508   5.477933   6.025380
    37  H    2.515567   2.136568   3.488459   4.694283   5.201719
    38  H    3.005932   2.129493   2.889035   4.290304   5.258532
                    6          7          8          9         10
     6  C    0.000000
     7  C    4.586949   0.000000
     8  C    6.087438   1.544172   0.000000
     9  C    7.068985   2.614302   1.569795   0.000000
    10  C    7.027241   3.148475   2.586811   1.542634   0.000000
    11  C    7.206551   3.070128   2.547212   1.544760   2.509504
    12  C    8.497659   3.950671   2.546914   1.544772   2.509154
    13  C    6.455319   2.503860   1.543538   2.615141   3.167556
    14  C    6.053112   2.951741   2.556822   3.976116   4.609744
    15  H    4.690786   2.138996   2.761496   4.182530   5.118893
    16  H    2.733053   3.514903   4.724542   6.086988   6.579631
    17  H    2.784765   2.867759   4.260556   5.327856   5.841927
    18  H    2.160354   3.429563   4.698931   5.798159   5.681793
    19  H    2.155957   2.845612   4.318489   5.082289   4.897316
    20  H    1.097375   4.802260   6.340145   7.222515   7.266161
    21  H    1.096022   5.228878   6.706816   7.569077   7.310499
    22  H    1.096565   5.176339   6.611789   7.747800   7.815149
    23  H    4.290090   1.097236   2.169520   2.898297   2.853406
    24  H    4.610183   1.095298   2.190643   2.816659   3.420453
    25  H    6.535029   2.145741   1.103346   2.145681   3.494256
    26  H    7.925748   4.145386   3.535345   2.178619   1.096733
    27  H    7.246654   3.528852   2.861539   2.201486   1.095775
    28  H    6.182461   2.847717   2.868191   2.201348   1.095676
    29  H    6.432395   2.810515   2.874902   2.208036   2.747927
    30  H    8.129211   4.108097   3.504960   2.182135   2.775825
    31  H    7.466923   3.335806   2.750787   2.195770   3.480241
    32  H    9.247546   4.774573   3.504317   2.182085   2.779107
    33  H    8.767448   4.327993   2.877850   2.207748   2.743451
    34  H    8.780252   4.198549   2.747461   2.196080   3.480002
    35  H    6.285735   2.761861   2.174428   2.899243   2.873961
    36  H    7.547830   3.473906   2.192321   2.829739   3.467930
    37  H    6.571437   3.921797   3.515215   4.802076   5.249945
    38  H    6.616996   3.401642   2.840470   4.257842   5.187624
                   11         12         13         14         15
    11  C    0.000000
    12  C    2.489252   0.000000
    13  C    3.949975   3.052964   0.000000
    14  C    5.095556   4.430998   1.541650   0.000000
    15  H    4.452626   5.131060   3.325383   2.796308   0.000000
    16  H    6.348310   7.261306   4.991281   4.172621   2.466031
    17  H    5.213955   6.653844   5.044045   4.714146   2.392067
    18  H    6.364635   7.089462   4.670819   4.255988   3.835790
    19  H    5.306744   6.553677   4.815649   4.862484   3.836032
    20  H    7.123601   8.688978   6.939105   6.625071   4.853369
    21  H    7.758768   9.021309   6.998166   6.698180   5.624039
    22  H    7.951567   9.105412   6.842058   6.198389   4.869917
    23  H    3.514024   4.304988   2.750202   3.328244   3.051818
    24  H    2.677058   4.236407   3.472943   3.959804   2.461140
    25  H    2.701170   2.715237   2.143105   2.741959   2.478902
    26  H    2.733862   2.726640   4.155309   5.641879   6.094731
    27  H    3.484621   2.783216   2.863417   4.315922   5.406726
    28  H    2.776816   3.483972   3.567878   4.819561   4.969038
    29  H    1.094725   3.469223   4.334188   5.350910   4.327447
    30  H    1.096449   2.672191   4.773674   6.038045   5.546648
    31  H    1.097476   2.781357   4.190222   5.126908   4.181695
    32  H    2.668671   1.096443   4.096519   5.513582   6.080409
    33  H    3.468685   1.094789   2.797052   4.195982   5.491124
    34  H    2.785465   1.097507   3.301144   4.422221   4.930683
    35  H    4.317047   3.480877   1.098328   2.161807   3.997220
    36  H    4.235530   2.668133   1.094446   2.154810   4.148145
    37  H    6.048421   5.101031   2.197475   1.094198   3.785309
    38  H    5.212166   4.514700   2.165989   1.101083   2.669383
                   16         17         18         19         20
    16  H    0.000000
    17  H    1.760930   0.000000
    18  H    2.514943   3.062939   0.000000
    19  H    3.066654   2.502589   1.762183   0.000000
    20  H    3.078490   2.599189   3.081887   2.527515   0.000000
    21  H    3.749037   3.785807   2.510128   2.493052   1.770680
    22  H    2.548575   3.162136   2.516781   3.076065   1.770154
    23  H    3.823029   3.268725   2.957155   2.291963   4.632757
    24  H    3.765833   2.603293   3.947163   2.925447   4.572205
    25  H    4.805712   4.342014   5.312694   4.974003   6.694904
    26  H    7.601313   6.742076   6.688239   5.776853   8.095498
    27  H    6.763539   6.292466   5.644591   5.162895   7.637620
    28  H    6.085851   5.246824   5.005349   4.027922   6.390793
    29  H    5.890069   4.573862   5.831369   4.562568   6.263356
    30  H    7.421030   6.232215   7.314485   6.176386   8.013128
    31  H    6.284391   5.162522   6.719740   5.751396   7.320790
    32  H    8.183105   7.429037   7.928855   7.233941   9.376568
    33  H    7.515611   7.130896   7.147608   6.833274   9.085762
    34  H    7.248959   6.681897   7.442104   6.974641   8.925554
    35  H    5.243768   5.319330   4.366149   4.548300   6.863496
    36  H    5.986569   6.045868   5.743098   5.893538   8.021634
    37  H    4.793251   5.578076   4.623786   5.504694   7.266993
    38  H    4.401301   4.917822   5.026487   5.553055   7.083187
                   21         22         23         24         25
    21  H    0.000000
    22  H    1.770368   0.000000
    23  H    4.726137   4.995335   0.000000
    24  H    5.285457   5.294383   1.756838   0.000000
    25  H    7.280117   6.961524   3.056921   2.521114   0.000000
    26  H    8.158051   8.767642   3.870335   4.246222   4.308952
    27  H    7.470067   7.967065   3.099807   4.074461   3.842850
    28  H    6.392829   7.044938   2.295191   2.994995   3.840243
    29  H    6.947317   7.248019   3.130742   2.131766   3.167310
    30  H    8.612929   8.927262   4.417025   3.702585   3.674226
    31  H    8.142575   8.116195   4.051357   2.876332   2.445010
    32  H    9.721144   9.927555   5.044533   4.901469   3.681712
    33  H    9.237783   9.327476   4.541572   4.838988   3.193401
    34  H    9.412562   9.304344   4.786766   4.431268   2.458527
    35  H    6.668014   6.741702   2.552317   3.766300   3.059259
    36  H    8.088190   7.914867   3.760762   4.339723   2.512683
    37  H    7.127132   6.626113   4.105972   4.972656   3.767720
    38  H    7.376438   6.687847   4.042723   4.246554   2.575407
                   26         27         28         29         30
    26  H    0.000000
    27  H    1.765607   0.000000
    28  H    1.765588   1.772395   0.000000
    29  H    3.047267   3.781430   2.563881   0.000000
    30  H    2.546163   3.775934   3.159485   1.763082   0.000000
    31  H    3.761330   4.354177   3.780132   1.772713   1.770075
    32  H    2.542930   3.174604   3.774341   3.670857   2.381854
    33  H    3.030039   2.566988   3.780587   4.352780   3.671121
    34  H    3.757522   3.782883   4.354079   3.819892   3.070544
    35  H    3.878492   2.296309   3.158724   4.571084   5.051013
    36  H    4.281251   3.057596   4.134913   4.845948   4.904981
    37  H    6.258942   4.750470   5.495162   6.331177   6.935101
    38  H    6.160145   5.019283   5.487531   5.569214   6.161356
                   31         32         33         34         35
    31  H    0.000000
    32  H    3.059274   0.000000
    33  H    3.817895   1.763145   0.000000
    34  H    2.628464   1.770060   1.772932   0.000000
    35  H    4.792205   4.392338   3.082729   4.006211   0.000000
    36  H    4.410088   3.701859   2.140793   2.828898   1.757767
    37  H    6.137181   6.163928   4.653962   5.143847   2.483029
    38  H    5.013175   5.608517   4.382951   4.234057   3.063922
                   36         37         38
    36  H    0.000000
    37  H    2.525800   0.000000
    38  H    2.453998   1.769190   0.000000
 Stoichiometry    C13H24O
 Framework group  C1[X(C13H24O)]
 Deg. of freedom   108
 Full point group                 C1      NOp   1
 Largest Abelian subgroup         C1      NOp   1
 Largest concise Abelian subgroup C1      NOp   1
                         Standard orientation:                         
 ---------------------------------------------------------------------
 Center     Atomic      Atomic             Coordinates (Angstroms)
 Number     Number       Type             X           Y           Z
 ---------------------------------------------------------------------
      1          8           0       -2.336344    2.070177    0.324793
      2          6           0       -1.292361    1.622437   -0.114667
      3          6           0       -1.193180    0.266085   -0.813995
      4          6           0       -2.522982   -0.509210   -0.829140
      5          6           0       -2.996444   -1.070814    0.520159
      6          6           0       -4.361679   -1.758324    0.411833
      7          6           0        0.009167   -0.542126   -0.263939
      8          6           0        1.340874    0.236199   -0.336274
      9          6           0        2.604419   -0.614781    0.042598
     10          6           0        2.552946   -1.129788    1.495815
     11          6           0        2.722416   -1.825657   -0.909316
     12          6           0        3.879927    0.238086   -0.136329
     13          6           0        1.187093    1.539887    0.475673
     14          6           0        0.013833    2.400606   -0.033551
     15          1           0       -0.944712    0.513620   -1.861067
     16          1           0       -3.299564    0.159288   -1.220422
     17          1           0       -2.429034   -1.335928   -1.548110
     18          1           0       -3.055554   -0.254456    1.248224
     19          1           0       -2.263648   -1.791283    0.907139
     20          1           0       -4.333888   -2.591053   -0.302326
     21          1           0       -4.683585   -2.160524    1.379240
     22          1           0       -5.130809   -1.055087    0.070729
     23          1           0       -0.191397   -0.820584    0.778252
     24          1           0        0.069229   -1.477877   -0.830013
     25          1           0        1.488920    0.528915   -1.389731
     26          1           0        3.454869   -1.711292    1.722116
     27          1           0        2.504401   -0.309292    2.220491
     28          1           0        1.691608   -1.784534    1.668755
     29          1           0        1.911919   -2.548010   -0.768877
     30          1           0        3.664338   -2.358018   -0.731619
     31          1           0        2.714132   -1.508668   -1.959983
     32          1           0        4.773656   -0.381916    0.001636
     33          1           0        3.939752    1.056496    0.588370
     34          1           0        3.930736    0.673212   -1.142612
     35          1           0        1.015325    1.297965    1.533167
     36          1           0        2.100505    2.141580    0.437520
     37          1           0       -0.148093    3.281093    0.595569
     38          1           0        0.247477    2.759331   -1.048001
 ---------------------------------------------------------------------
 Rotational constants (GHZ):           1.0384816           0.3845156           0.3163768
 Standard basis: 6-31G(d) (6D, 7F)
 There are   258 symmetry adapted cartesian basis functions of A   symmetry.
 There are   258 symmetry adapted basis functions of A   symmetry.
   258 basis functions,   488 primitive gaussians,   258 cartesian basis functions
    55 alpha electrons       55 beta electrons
       nuclear repulsion energy       969.9876583699 Hartrees.
 NAtoms=   38 NActive=   38 NUniq=   38 SFac= 1.00D+00 NAtFMM=   60 NAOKFM=F Big=F
 Integral buffers will be    131072 words long.
 Raffenetti 2 integral format.
 Two-electron integral symmetry is turned on.
 One-electron integrals computed using PRISM.
 NBasis=   258 RedAO= T EigKep=  2.47D-03  NBF=   258
 NBsUse=   258 1.00D-06 EigRej= -1.00D+00 NBFU=   258
 ExpMin= 1.61D-01 ExpMax= 5.48D+03 ExpMxC= 8.25D+02 IAcc=3 IRadAn=         5 AccDes= 0.00D+00
 Harris functional with IExCor=  402 and IRadAn=       5 diagonalized for initial guess.
 HarFok:  IExCor=  402 AccDes= 0.00D+00 IRadAn=         5 IDoV= 1 UseB2=F ITyADJ=14
 ICtDFT=  3500011 ScaDFX=  1.000000  1.000000  1.000000  1.000000
 FoFCou: FMM=F IPFlag=           0 FMFlag=      100000 FMFlg1=           0
         NFxFlg=           0 DoJE=T BraDBF=F KetDBF=T FulRan=T
         wScrn=  0.000000 ICntrl=       500 IOpCl=  0 I1Cent=   200000004 NGrid=           0
         NMat0=    1 NMatS0=      1 NMatT0=    0 NMatD0=    1 NMtDS0=    0 NMtDT0=    0
 Petite list used in FoFCou.
 Requested convergence on RMS density matrix=1.00D-08 within 128 cycles.
 Requested convergence on MAX density matrix=1.00D-06.
 Requested convergence on             energy=1.00D-06.
 No special actions if energy rises.
 Integral accuracy reduced to 1.0D-05 until final iterations.
 Initial convergence to 1.0D-05 achieved.  Increase integral accuracy.
 SCF Done:  E(RB3LYP) =  -585.080884487     A.U. after   14 cycles
            NFock= 14  Conv=0.30D-08     -V/T= 2.0099
 DoSCS=F DFT=T ScalE2(SS,OS)=  1.000000  1.000000
 Range of M.O.s used for correlation:     1   258
 NBasis=   258 NAE=    55 NBE=    55 NFC=     0 NFV=     0
 NROrb=    258 NOA=    55 NOB=    55 NVA=   203 NVB=   203
 Symmetrizing basis deriv contribution to polar:
 IMax=3 JMax=2 DiffMx= 0.00D+00
 G2DrvN: will do    39 centers at a time, making    1 passes.
 Calling FoFCou, ICntrl=  3107 FMM=F I1Cent=   0 AccDes= 0.00D+00.
 End of G2Drv F.D. properties file   721 does not exist.
 End of G2Drv F.D. properties file   722 does not exist.
 End of G2Drv F.D. properties file   788 does not exist.
          IDoAtm=11111111111111111111111111111111111111
          Differentiating once with respect to electric field.
                with respect to dipole field.
          Differentiating once with respect to nuclear coordinates.
 Keep R1 ints in memory in canonical form, NReq=569063388.
          There are   117 degrees of freedom in the 1st order CPHF.  IDoFFX=6 NUNeed=     3.
    114 vectors produced by pass  0 Test12= 1.12D-14 1.00D-09 XBig12= 9.48D+01 1.95D+00.
 AX will form   114 AO Fock derivatives at one time.
    114 vectors produced by pass  1 Test12= 1.12D-14 1.00D-09 XBig12= 1.45D+01 1.07D+00.
    114 vectors produced by pass  2 Test12= 1.12D-14 1.00D-09 XBig12= 7.91D-02 2.94D-02.
    114 vectors produced by pass  3 Test12= 1.12D-14 1.00D-09 XBig12= 1.88D-04 1.66D-03.
    114 vectors produced by pass  4 Test12= 1.12D-14 1.00D-09 XBig12= 1.73D-07 3.11D-05.
     47 vectors produced by pass  5 Test12= 1.12D-14 1.00D-09 XBig12= 1.05D-10 7.37D-07.
      3 vectors produced by pass  6 Test12= 1.12D-14 1.00D-09 XBig12= 6.39D-14 2.17D-08.
 InvSVY:  IOpt=1 It=  1 EMax= 7.11D-15
 Solved reduced A of dimension   620 with   117 vectors.
 Isotropic polarizability for W=    0.000000      135.71 Bohr**3.
 End of Minotr F.D. properties file   721 does not exist.
 End of Minotr F.D. properties file   722 does not exist.
 End of Minotr F.D. properties file   788 does not exist.

 **********************************************************************

            Population analysis using the SCF density.

 **********************************************************************

 Orbital symmetries:
       Occupied  (A) (A) (A) (A) (A) (A) (A) (A) (A) (A) (A) (A)
                 (A) (A) (A) (A) (A) (A) (A) (A) (A) (A) (A) (A)
                 (A) (A) (A) (A) (A) (A) (A) (A) (A) (A) (A) (A)
                 (A) (A) (A) (A) (A) (A) (A) (A) (A) (A) (A) (A)
                 (A) (A) (A) (A) (A) (A) (A)
       Virtual   (A) (A) (A) (A) (A) (A) (A) (A) (A) (A) (A) (A)
                 (A) (A) (A) (A) (A) (A) (A) (A) (A) (A) (A) (A)
                 (A) (A) (A) (A) (A) (A) (A) (A) (A) (A) (A) (A)
                 (A) (A) (A) (A) (A) (A) (A) (A) (A) (A) (A) (A)
                 (A) (A) (A) (A) (A) (A) (A) (A) (A) (A) (A) (A)
                 (A) (A) (A) (A) (A) (A) (A) (A) (A) (A) (A) (A)
                 (A) (A) (A) (A) (A) (A) (A) (A) (A) (A) (A) (A)
                 (A) (A) (A) (A) (A) (A) (A) (A) (A) (A) (A) (A)
                 (A) (A) (A) (A) (A) (A) (A) (A) (A) (A) (A) (A)
                 (A) (A) (A) (A) (A) (A) (A) (A) (A) (A) (A) (A)
                 (A) (A) (A) (A) (A) (A) (A) (A) (A) (A) (A) (A)
                 (A) (A) (A) (A) (A) (A) (A) (A) (A) (A) (A) (A)
                 (A) (A) (A) (A) (A) (A) (A) (A) (A) (A) (A) (A)
                 (A) (A) (A) (A) (A) (A) (A) (A) (A) (A) (A) (A)
                 (A) (A) (A) (A) (A) (A) (A) (A) (A) (A) (A) (A)
                 (A) (A) (A) (A) (A) (A) (A) (A) (A) (A) (A) (A)
                 (A) (A) (A) (A) (A) (A) (A) (A) (A) (A) (A)
 The electronic state is 1-A.
 Alpha  occ. eigenvalues --  -19.13271 -10.26574 -10.20199 -10.19385 -10.19346
 Alpha  occ. eigenvalues --  -10.18967 -10.18887 -10.18690 -10.17574 -10.17518
 Alpha  occ. eigenvalues --  -10.17503 -10.17500 -10.17140 -10.16662  -1.03113
 Alpha  occ. eigenvalues --   -0.84579  -0.80695  -0.78254  -0.74513  -0.71612
 Alpha  occ. eigenvalues --   -0.68674  -0.68633  -0.66379  -0.61588  -0.60169
 Alpha  occ. eigenvalues --   -0.57671  -0.53127  -0.51860  -0.47291  -0.46906
 Alpha  occ. eigenvalues --   -0.45375  -0.44866  -0.44360  -0.43674  -0.42789
 Alpha  occ. eigenvalues --   -0.42279  -0.41433  -0.40440  -0.38950  -0.38422
 Alpha  occ. eigenvalues --   -0.37679  -0.37485  -0.36542  -0.36054  -0.35784
 Alpha  occ. eigenvalues --   -0.34851  -0.34724  -0.33884  -0.33115  -0.31945
 Alpha  occ. eigenvalues --   -0.31750  -0.31269  -0.30307  -0.29753  -0.23267
 Alpha virt. eigenvalues --   -0.01191   0.07608   0.09105   0.09941   0.11158
 Alpha virt. eigenvalues --    0.12006   0.12332   0.12752   0.13228   0.14562
 Alpha virt. eigenvalues --    0.14875   0.15351   0.15797   0.16223   0.16642
 Alpha virt. eigenvalues --    0.17440   0.18106   0.18478   0.19229   0.19462
 Alpha virt. eigenvalues --    0.19826   0.19937   0.20769   0.21320   0.22050
 Alpha virt. eigenvalues --    0.23099   0.23287   0.23960   0.24844   0.25079
 Alpha virt. eigenvalues --    0.25402   0.26351   0.27402   0.28234   0.29372
 Alpha virt. eigenvalues --    0.29860   0.31967   0.33498   0.37891   0.48817
 Alpha virt. eigenvalues --    0.49502   0.50305   0.50765   0.51821   0.52600
 Alpha virt. eigenvalues --    0.55180   0.55804   0.56574   0.56585   0.57827
 Alpha virt. eigenvalues --    0.59445   0.60413   0.61547   0.63187   0.64468
 Alpha virt. eigenvalues --    0.64696   0.66310   0.68084   0.68805   0.69626
 Alpha virt. eigenvalues --    0.70258   0.70501   0.72236   0.74316   0.75002
 Alpha virt. eigenvalues --    0.75968   0.78177   0.81001   0.82222   0.83516
 Alpha virt. eigenvalues --    0.84153   0.84924   0.85569   0.86620   0.86775
 Alpha virt. eigenvalues --    0.87920   0.88813   0.89565   0.90218   0.90349
 Alpha virt. eigenvalues --    0.90859   0.91133   0.91570   0.92162   0.92693
 Alpha virt. eigenvalues --    0.92897   0.93517   0.94445   0.94537   0.95748
 Alpha virt. eigenvalues --    0.96160   0.96455   0.97091   0.98645   0.98800
 Alpha virt. eigenvalues --    1.00729   1.00860   1.02945   1.03904   1.05258
 Alpha virt. eigenvalues --    1.06268   1.09913   1.13081   1.15867   1.18028
 Alpha virt. eigenvalues --    1.20202   1.23708   1.26689   1.31730   1.35890
 Alpha virt. eigenvalues --    1.39080   1.41104   1.44162   1.45237   1.48298
 Alpha virt. eigenvalues --    1.49778   1.52258   1.55596   1.57865   1.58363
 Alpha virt. eigenvalues --    1.60529   1.65663   1.66828   1.70224   1.72270
 Alpha virt. eigenvalues --    1.74328   1.75467   1.77275   1.78062   1.81003
 Alpha virt. eigenvalues --    1.83048   1.84342   1.84524   1.86050   1.87261
 Alpha virt. eigenvalues --    1.87737   1.89174   1.90315   1.93830   1.94184
 Alpha virt. eigenvalues --    1.95551   1.96395   1.97813   1.98240   1.99068
 Alpha virt. eigenvalues --    2.03146   2.04476   2.05441   2.06520   2.07813
 Alpha virt. eigenvalues --    2.09648   2.10854   2.11886   2.15209   2.17341
 Alpha virt. eigenvalues --    2.18042   2.19734   2.23609   2.25736   2.26508
 Alpha virt. eigenvalues --    2.26771   2.27491   2.29109   2.30118   2.31465
 Alpha virt. eigenvalues --    2.36423   2.37508   2.38767   2.39284   2.43480
 Alpha virt. eigenvalues --    2.44655   2.45421   2.50762   2.53043   2.55303
 Alpha virt. eigenvalues --    2.57142   2.61101   2.62868   2.64923   2.67060
 Alpha virt. eigenvalues --    2.67755   2.74722   2.74962   2.78734   2.82427
 Alpha virt. eigenvalues --    2.87038   2.90126   2.99886   3.05096   4.02101
 Alpha virt. eigenvalues --    4.10678   4.16399   4.22278   4.29064   4.30715
 Alpha virt. eigenvalues --    4.31081   4.34312   4.38919   4.52778   4.57812
 Alpha virt. eigenvalues --    4.60511   4.65483   4.71638
          Condensed to atoms (all electrons):
               1          2          3          4          5          6
     1  O    8.021453   0.573471  -0.090806   0.004366  -0.005179  -0.000004
     2  C    0.573471   4.518873   0.298506  -0.030597  -0.005262   0.000058
     3  C   -0.090806   0.298506   5.280654   0.339776  -0.032858   0.004000
     4  C    0.004366  -0.030597   0.339776   5.015660   0.390013  -0.042903
     5  C   -0.005179  -0.005262  -0.032858   0.390013   4.965674   0.372922
     6  C   -0.000004   0.000058   0.004000  -0.042903   0.372922   5.062627
     7  C    0.001021  -0.022412   0.337405  -0.040808  -0.006302   0.000146
     8  C    0.000157  -0.013627  -0.026011   0.003390   0.000245  -0.000003
     9  C    0.000001   0.000329   0.003188  -0.000098   0.000002  -0.000000
    10  C   -0.000000  -0.000030   0.000183   0.000002  -0.000005   0.000000
    11  C   -0.000000  -0.000008   0.000157  -0.000003   0.000000   0.000000
    12  C   -0.000000  -0.000008  -0.000095   0.000001   0.000000  -0.000000
    13  C    0.001302  -0.026855  -0.001278  -0.000029  -0.000010   0.000000
    14  C   -0.074375   0.344285  -0.137359   0.006185  -0.000089   0.000000
    15  H    0.001064  -0.038136   0.351676  -0.034270   0.004426  -0.000120
    16  H    0.007739  -0.005821  -0.034388   0.368038  -0.037490  -0.003997
    17  H    0.000321   0.005088  -0.031862   0.359129  -0.041962  -0.003161
    18  H    0.008985   0.004973  -0.006395  -0.039102   0.377457  -0.033940
    19  H    0.000160  -0.000151  -0.005535  -0.040597   0.373099  -0.038678
    20  H   -0.000003   0.000001   0.000058  -0.004063  -0.035771   0.376048
    21  H   -0.000001  -0.000002  -0.000137   0.004172  -0.028151   0.372152
    22  H    0.000041  -0.000014  -0.000013  -0.004701  -0.034386   0.378453
    23  H    0.000349  -0.005091  -0.040027  -0.005307   0.003475  -0.000075
    24  H   -0.000071   0.003359  -0.032662  -0.001793  -0.000931  -0.000039
    25  H   -0.000012  -0.002674  -0.003639   0.000017   0.000003   0.000000
    26  H    0.000000   0.000000  -0.000002  -0.000000   0.000000   0.000000
    27  H   -0.000000  -0.000002  -0.000011   0.000000   0.000000  -0.000000
    28  H   -0.000000  -0.000001  -0.000033   0.000009  -0.000009  -0.000000
    29  H   -0.000000  -0.000004  -0.000063   0.000004   0.000001   0.000000
    30  H   -0.000000   0.000000  -0.000001  -0.000000  -0.000000  -0.000000
    31  H   -0.000000   0.000000  -0.000053   0.000000  -0.000000   0.000000
    32  H   -0.000000   0.000000   0.000001  -0.000000   0.000000  -0.000000
    33  H   -0.000000  -0.000003  -0.000001   0.000000  -0.000000   0.000000
    34  H   -0.000000  -0.000000  -0.000003   0.000000   0.000000   0.000000
    35  H    0.000364  -0.003164   0.000359  -0.000049  -0.000000   0.000000
    36  H   -0.000064   0.003254  -0.000193   0.000009  -0.000000   0.000000
    37  H    0.005115  -0.024063   0.006810  -0.000147   0.000003  -0.000000
    38  H    0.001019  -0.029552   0.002911  -0.000120  -0.000000   0.000000
               7          8          9         10         11         12
     1  O    0.001021   0.000157   0.000001  -0.000000  -0.000000  -0.000000
     2  C   -0.022412  -0.013627   0.000329  -0.000030  -0.000008  -0.000008
     3  C    0.337405  -0.026011   0.003188   0.000183   0.000157  -0.000095
     4  C   -0.040808   0.003390  -0.000098   0.000002  -0.000003   0.000001
     5  C   -0.006302   0.000245   0.000002  -0.000005   0.000000   0.000000
     6  C    0.000146  -0.000003  -0.000000   0.000000   0.000000  -0.000000
     7  C    5.113347   0.366236  -0.033554  -0.007507  -0.006963   0.004355
     8  C    0.366236   4.973599   0.378856  -0.051056  -0.050006  -0.049621
     9  C   -0.033554   0.378856   4.756155   0.382119   0.380880   0.379771
    10  C   -0.007507  -0.051056   0.382119   5.161498  -0.063796  -0.063695
    11  C   -0.006963  -0.050006   0.380880  -0.063796   5.168649  -0.063364
    12  C    0.004355  -0.049621   0.379771  -0.063695  -0.063364   5.169114
    13  C   -0.046975   0.373642  -0.033649  -0.007556   0.004461  -0.007013
    14  C   -0.005350  -0.034436   0.003499   0.000168  -0.000119   0.000150
    15  H   -0.045462  -0.002990   0.000004   0.000004  -0.000014  -0.000006
    16  H    0.004814  -0.000104   0.000001  -0.000000   0.000000  -0.000000
    17  H   -0.004635  -0.000034   0.000001   0.000000  -0.000003  -0.000000
    18  H   -0.000897  -0.000038  -0.000000   0.000000   0.000000  -0.000000
    19  H    0.003347   0.000015   0.000007  -0.000007   0.000000  -0.000000
    20  H   -0.000015  -0.000000   0.000000   0.000000   0.000000  -0.000000
    21  H    0.000002  -0.000000   0.000000   0.000000  -0.000000  -0.000000
    22  H    0.000004   0.000000   0.000000  -0.000000  -0.000000   0.000000
    23  H    0.367913  -0.036636  -0.005369   0.002812  -0.000343   0.000016
    24  H    0.364722  -0.031932  -0.006066  -0.000394   0.003011   0.000079
    25  H   -0.051872   0.363732  -0.040489   0.006333  -0.007339  -0.006962
    26  H    0.000084   0.005267  -0.029595   0.367277  -0.005121  -0.005223
    27  H   -0.000088  -0.005633  -0.028509   0.367252   0.005627  -0.004727
    28  H    0.002005  -0.005726  -0.028509   0.367346  -0.004805   0.005616
    29  H    0.000515  -0.005505  -0.027342  -0.005041   0.366252   0.005734
    30  H    0.000237   0.004891  -0.028022  -0.004113   0.364851  -0.006941
    31  H   -0.000506  -0.005539  -0.029843   0.005842   0.365401  -0.004059
    32  H   -0.000114   0.004862  -0.027932  -0.004141  -0.006947   0.365002
    33  H   -0.000047  -0.005623  -0.027182  -0.005067   0.005732   0.366312
    34  H    0.000032  -0.005383  -0.029943   0.005849  -0.004008   0.365294
    35  H   -0.007485  -0.037295  -0.005417   0.002568   0.000015  -0.000393
    36  H    0.005359  -0.031626  -0.006227  -0.000240   0.000070   0.003211
    37  H   -0.000212   0.003650  -0.000096   0.000001   0.000001   0.000000
    38  H   -0.001248  -0.003805  -0.000007   0.000002  -0.000004  -0.000014
              13         14         15         16         17         18
     1  O    0.001302  -0.074375   0.001064   0.007739   0.000321   0.008985
     2  C   -0.026855   0.344285  -0.038136  -0.005821   0.005088   0.004973
     3  C   -0.001278  -0.137359   0.351676  -0.034388  -0.031862  -0.006395
     4  C   -0.000029   0.006185  -0.034270   0.368038   0.359129  -0.039102
     5  C   -0.000010  -0.000089   0.004426  -0.037490  -0.041962   0.377457
     6  C    0.000000   0.000000  -0.000120  -0.003997  -0.003161  -0.033940
     7  C   -0.046975  -0.005350  -0.045462   0.004814  -0.004635  -0.000897
     8  C    0.373642  -0.034436  -0.002990  -0.000104  -0.000034  -0.000038
     9  C   -0.033649   0.003499   0.000004   0.000001   0.000001  -0.000000
    10  C   -0.007556   0.000168   0.000004  -0.000000   0.000000   0.000000
    11  C    0.004461  -0.000119  -0.000014   0.000000  -0.000003   0.000000
    12  C   -0.007013   0.000150  -0.000006  -0.000000  -0.000000  -0.000000
    13  C    5.084014   0.326249  -0.002056  -0.000007  -0.000003  -0.000028
    14  C    0.326249   5.296494   0.002622   0.000347  -0.000140   0.000141
    15  H   -0.002056   0.002622   0.621506  -0.002047  -0.004588   0.000117
    16  H   -0.000007   0.000347  -0.002047   0.588809  -0.037493  -0.004735
    17  H   -0.000003  -0.000140  -0.004588  -0.037493   0.629600   0.005827
    18  H   -0.000028   0.000141   0.000117  -0.004735   0.005827   0.570207
    19  H    0.000002   0.000015  -0.000033   0.005769  -0.005581  -0.038852
    20  H    0.000000  -0.000000  -0.000002  -0.000406   0.004895   0.004874
    21  H   -0.000000  -0.000000   0.000002   0.000000  -0.000067  -0.002521
    22  H   -0.000000   0.000000  -0.000003   0.005193  -0.000378  -0.004375
    23  H   -0.008132   0.000540   0.006230  -0.000007  -0.000061   0.000856
    24  H    0.005414  -0.000274  -0.006691  -0.000090   0.004313   0.000086
    25  H   -0.053027  -0.002339   0.006833  -0.000007  -0.000009   0.000000
    26  H    0.000060  -0.000001   0.000000   0.000000  -0.000000  -0.000000
    27  H    0.001951  -0.000057  -0.000000  -0.000000   0.000000   0.000000
    28  H    0.000016  -0.000009  -0.000001  -0.000000  -0.000000  -0.000001
    29  H   -0.000045  -0.000001   0.000010  -0.000000  -0.000007  -0.000000
    30  H   -0.000120   0.000001  -0.000000   0.000000   0.000000  -0.000000
    31  H    0.000030  -0.000003   0.000016  -0.000000   0.000000   0.000000
    32  H    0.000255  -0.000000   0.000000   0.000000  -0.000000   0.000000
    33  H    0.000648  -0.000056   0.000000  -0.000000  -0.000000   0.000000
    34  H   -0.000625  -0.000057   0.000000  -0.000000   0.000000   0.000000
    35  H    0.370685  -0.041649   0.000121  -0.000001   0.000000   0.000007
    36  H    0.366116  -0.028519  -0.000037  -0.000000  -0.000000   0.000000
    37  H   -0.025496   0.342044  -0.000127  -0.000008   0.000002   0.000004
    38  H   -0.036083   0.349868   0.001390  -0.000030  -0.000002  -0.000000
              19         20         21         22         23         24
     1  O    0.000160  -0.000003  -0.000001   0.000041   0.000349  -0.000071
     2  C   -0.000151   0.000001  -0.000002  -0.000014  -0.005091   0.003359
     3  C   -0.005535   0.000058  -0.000137  -0.000013  -0.040027  -0.032662
     4  C   -0.040597  -0.004063   0.004172  -0.004701  -0.005307  -0.001793
     5  C    0.373099  -0.035771  -0.028151  -0.034386   0.003475  -0.000931
     6  C   -0.038678   0.376048   0.372152   0.378453  -0.000075  -0.000039
     7  C    0.003347  -0.000015   0.000002   0.000004   0.367913   0.364722
     8  C    0.000015  -0.000000  -0.000000   0.000000  -0.036636  -0.031932
     9  C    0.000007   0.000000   0.000000   0.000000  -0.005369  -0.006066
    10  C   -0.000007   0.000000   0.000000  -0.000000   0.002812  -0.000394
    11  C    0.000000   0.000000  -0.000000  -0.000000  -0.000343   0.003011
    12  C   -0.000000  -0.000000  -0.000000   0.000000   0.000016   0.000079
    13  C    0.000002   0.000000  -0.000000  -0.000000  -0.008132   0.005414
    14  C    0.000015  -0.000000  -0.000000   0.000000   0.000540  -0.000274
    15  H   -0.000033  -0.000002   0.000002  -0.000003   0.006230  -0.006691
    16  H    0.005769  -0.000406   0.000000   0.005193  -0.000007  -0.000090
    17  H   -0.005581   0.004895  -0.000067  -0.000378  -0.000061   0.004313
    18  H   -0.038852   0.004874  -0.002521  -0.004375   0.000856   0.000086
    19  H    0.620519  -0.004697  -0.002676   0.005254   0.002385   0.000401
    20  H   -0.004697   0.587880  -0.031860  -0.033175   0.000006   0.000006
    21  H   -0.002676  -0.031860   0.579537  -0.030706   0.000006   0.000000
    22  H    0.005254  -0.033175  -0.030706   0.571680   0.000001  -0.000000
    23  H    0.002385   0.000006   0.000006   0.000001   0.592791  -0.038178
    24  H    0.000401   0.000006   0.000000  -0.000000  -0.038178   0.595344
    25  H   -0.000002  -0.000000   0.000000  -0.000000   0.006291  -0.003675
    26  H   -0.000000  -0.000000   0.000000  -0.000000  -0.000074  -0.000036
    27  H   -0.000000  -0.000000  -0.000000   0.000000   0.000066   0.000033
    28  H    0.000023  -0.000000  -0.000000   0.000000   0.003192   0.000265
    29  H    0.000004  -0.000000  -0.000000   0.000000   0.000258   0.003976
    30  H    0.000000   0.000000   0.000000   0.000000  -0.000027  -0.000121
    31  H   -0.000000   0.000000  -0.000000  -0.000000   0.000067   0.000475
    32  H    0.000000  -0.000000   0.000000   0.000000   0.000002  -0.000004
    33  H    0.000000  -0.000000  -0.000000  -0.000000  -0.000003  -0.000002
    34  H   -0.000000   0.000000  -0.000000  -0.000000   0.000003  -0.000008
    35  H   -0.000007   0.000000   0.000000  -0.000000   0.005159   0.000016
    36  H   -0.000000  -0.000000  -0.000000   0.000000   0.000004  -0.000186
    37  H   -0.000000   0.000000   0.000000  -0.000000  -0.000037   0.000019
    38  H   -0.000000  -0.000000   0.000000   0.000000   0.000100  -0.000016
              25         26         27         28         29         30
     1  O   -0.000012   0.000000  -0.000000  -0.000000  -0.000000  -0.000000
     2  C   -0.002674   0.000000  -0.000002  -0.000001  -0.000004   0.000000
     3  C   -0.003639  -0.000002  -0.000011  -0.000033  -0.000063  -0.000001
     4  C    0.000017  -0.000000   0.000000   0.000009   0.000004  -0.000000
     5  C    0.000003   0.000000   0.000000  -0.000009   0.000001  -0.000000
     6  C    0.000000   0.000000  -0.000000  -0.000000   0.000000  -0.000000
     7  C   -0.051872   0.000084  -0.000088   0.002005   0.000515   0.000237
     8  C    0.363732   0.005267  -0.005633  -0.005726  -0.005505   0.004891
     9  C   -0.040489  -0.029595  -0.028509  -0.028509  -0.027342  -0.028022
    10  C    0.006333   0.367277   0.367252   0.367346  -0.005041  -0.004113
    11  C   -0.007339  -0.005121   0.005627  -0.004805   0.366252   0.364851
    12  C   -0.006962  -0.005223  -0.004727   0.005616   0.005734  -0.006941
    13  C   -0.053027   0.000060   0.001951   0.000016  -0.000045  -0.000120
    14  C   -0.002339  -0.000001  -0.000057  -0.000009  -0.000001   0.000001
    15  H    0.006833   0.000000  -0.000000  -0.000001   0.000010  -0.000000
    16  H   -0.000007   0.000000  -0.000000  -0.000000  -0.000000   0.000000
    17  H   -0.000009  -0.000000   0.000000  -0.000000  -0.000007   0.000000
    18  H    0.000000  -0.000000   0.000000  -0.000001  -0.000000  -0.000000
    19  H   -0.000002  -0.000000  -0.000000   0.000023   0.000004   0.000000
    20  H   -0.000000  -0.000000  -0.000000  -0.000000  -0.000000   0.000000
    21  H    0.000000   0.000000  -0.000000  -0.000000  -0.000000   0.000000
    22  H   -0.000000  -0.000000   0.000000   0.000000   0.000000   0.000000
    23  H    0.006291  -0.000074   0.000066   0.003192   0.000258  -0.000027
    24  H   -0.003675  -0.000036   0.000033   0.000265   0.003976  -0.000121
    25  H    0.659358  -0.000151  -0.000033  -0.000030  -0.000103  -0.000051
    26  H   -0.000151   0.580249  -0.030522  -0.030432  -0.000129   0.003940
    27  H   -0.000033  -0.030522   0.575060  -0.030945  -0.000017  -0.000080
    28  H   -0.000030  -0.030432  -0.030945   0.574069   0.003891  -0.000157
    29  H   -0.000103  -0.000129  -0.000017   0.003891   0.574657  -0.030137
    30  H   -0.000051   0.003940  -0.000080  -0.000157  -0.030137   0.580702
    31  H    0.006112  -0.000040  -0.000192  -0.000036  -0.031477  -0.030217
    32  H   -0.000072   0.003967  -0.000161  -0.000080   0.000021   0.005368
    33  H   -0.000106  -0.000122   0.003868  -0.000014  -0.000195   0.000019
    34  H    0.006005  -0.000035  -0.000041  -0.000192  -0.000074  -0.000100
    35  H    0.006383  -0.000081   0.003344   0.000023  -0.000002   0.000002
    36  H   -0.003862  -0.000032   0.000165   0.000021  -0.000002  -0.000003
    37  H    0.000004  -0.000000   0.000006   0.000000   0.000000  -0.000000
    38  H    0.005459   0.000000   0.000000  -0.000000   0.000000   0.000000
              31         32         33         34         35         36
     1  O   -0.000000  -0.000000  -0.000000  -0.000000   0.000364  -0.000064
     2  C    0.000000   0.000000  -0.000003  -0.000000  -0.003164   0.003254
     3  C   -0.000053   0.000001  -0.000001  -0.000003   0.000359  -0.000193
     4  C    0.000000  -0.000000   0.000000   0.000000  -0.000049   0.000009
     5  C   -0.000000   0.000000  -0.000000   0.000000  -0.000000  -0.000000
     6  C    0.000000  -0.000000   0.000000   0.000000   0.000000   0.000000
     7  C   -0.000506  -0.000114  -0.000047   0.000032  -0.007485   0.005359
     8  C   -0.005539   0.004862  -0.005623  -0.005383  -0.037295  -0.031626
     9  C   -0.029843  -0.027932  -0.027182  -0.029943  -0.005417  -0.006227
    10  C    0.005842  -0.004141  -0.005067   0.005849   0.002568  -0.000240
    11  C    0.365401  -0.006947   0.005732  -0.004008   0.000015   0.000070
    12  C   -0.004059   0.365002   0.366312   0.365294  -0.000393   0.003211
    13  C    0.000030   0.000255   0.000648  -0.000625   0.370685   0.366116
    14  C   -0.000003  -0.000000  -0.000056  -0.000057  -0.041649  -0.028519
    15  H    0.000016   0.000000   0.000000   0.000000   0.000121  -0.000037
    16  H   -0.000000   0.000000  -0.000000  -0.000000  -0.000001  -0.000000
    17  H    0.000000  -0.000000  -0.000000   0.000000   0.000000  -0.000000
    18  H    0.000000   0.000000   0.000000   0.000000   0.000007   0.000000
    19  H   -0.000000   0.000000   0.000000  -0.000000  -0.000007  -0.000000
    20  H    0.000000  -0.000000  -0.000000   0.000000   0.000000  -0.000000
    21  H   -0.000000   0.000000  -0.000000  -0.000000   0.000000  -0.000000
    22  H   -0.000000   0.000000  -0.000000  -0.000000  -0.000000   0.000000
    23  H    0.000067   0.000002  -0.000003   0.000003   0.005159   0.000004
    24  H    0.000475  -0.000004  -0.000002  -0.000008   0.000016  -0.000186
    25  H    0.006112  -0.000072  -0.000106   0.006005   0.006383  -0.003862
    26  H   -0.000040   0.003967  -0.000122  -0.000035  -0.000081  -0.000032
    27  H   -0.000192  -0.000161   0.003868  -0.000041   0.003344   0.000165
    28  H   -0.000036  -0.000080  -0.000014  -0.000192   0.000023   0.000021
    29  H   -0.031477   0.000021  -0.000195  -0.000074  -0.000002  -0.000002
    30  H   -0.030217   0.005368   0.000019  -0.000100   0.000002  -0.000003
    31  H    0.583356  -0.000101  -0.000072   0.003361   0.000003  -0.000009
    32  H   -0.000101   0.580430  -0.030218  -0.030215  -0.000031  -0.000105
    33  H   -0.000072  -0.030218   0.575496  -0.031588   0.000316   0.003452
    34  H    0.003361  -0.030215  -0.031588   0.583634   0.000082   0.000560
    35  H    0.000003  -0.000031   0.000316   0.000082   0.597132  -0.037529
    36  H   -0.000009  -0.000105   0.003452   0.000560  -0.037529   0.590737
    37  H    0.000000  -0.000000   0.000003   0.000001  -0.003072  -0.002388
    38  H    0.000000  -0.000000   0.000006   0.000016   0.005693  -0.006407
              37         38
     1  O    0.005115   0.001019
     2  C   -0.024063  -0.029552
     3  C    0.006810   0.002911
     4  C   -0.000147  -0.000120
     5  C    0.000003  -0.000000
     6  C   -0.000000   0.000000
     7  C   -0.000212  -0.001248
     8  C    0.003650  -0.003805
     9  C   -0.000096  -0.000007
    10  C    0.000001   0.000002
    11  C    0.000001  -0.000004
    12  C    0.000000  -0.000014
    13  C   -0.025496  -0.036083
    14  C    0.342044   0.349868
    15  H   -0.000127   0.001390
    16  H   -0.000008  -0.000030
    17  H    0.000002  -0.000002
    18  H    0.000004  -0.000000
    19  H   -0.000000  -0.000000
    20  H    0.000000  -0.000000
    21  H    0.000000   0.000000
    22  H   -0.000000   0.000000
    23  H   -0.000037   0.000100
    24  H    0.000019  -0.000016
    25  H    0.000004   0.005459
    26  H   -0.000000   0.000000
    27  H    0.000006   0.000000
    28  H    0.000000  -0.000000
    29  H    0.000000   0.000000
    30  H   -0.000000   0.000000
    31  H    0.000000   0.000000
    32  H   -0.000000  -0.000000
    33  H    0.000003   0.000006
    34  H    0.000001   0.000016
    35  H   -0.003072   0.005693
    36  H   -0.002388  -0.006407
    37  H    0.563531  -0.026882
    38  H   -0.026882   0.584263
 Mulliken charges:
               1
     1  O   -0.456414
     2  C    0.455281
     3  C   -0.182258
     4  C   -0.246186
     5  C   -0.258915
     6  C   -0.443487
     7  C   -0.289093
     8  C   -0.075911
     9  C    0.103036
    10  C   -0.456609
    11  C   -0.452267
    12  C   -0.452535
    13  C   -0.285859
    14  C   -0.347776
    15  H    0.140560
    16  H    0.145920
    17  H    0.120809
    18  H    0.157350
    19  H    0.125816
    20  H    0.136222
    21  H    0.140250
    22  H    0.147125
    23  H    0.146846
    24  H    0.141649
    25  H    0.109923
    26  H    0.140750
    27  H    0.143647
    28  H    0.144506
    29  H    0.144820
    30  H    0.140079
    31  H    0.137481
    32  H    0.140212
    33  H    0.144447
    34  H    0.137435
    35  H    0.143902
    36  H    0.144470
    37  H    0.161332
    38  H    0.153442
 Sum of Mulliken charges =  -0.00000
 Mulliken charges with hydrogens summed into heavy atoms:
               1
     1  O   -0.456414
     2  C    0.455281
     3  C   -0.041698
     4  C    0.020543
     5  C    0.024250
     6  C   -0.019890
     7  C   -0.000598
     8  C    0.034013
     9  C    0.103036
    10  C   -0.027706
    11  C   -0.029887
    12  C   -0.030442
    13  C    0.002514
    14  C   -0.033002
 APT charges:
               1
     1  O   -0.648587
     2  C    0.693782
     3  C   -0.015393
     4  C    0.106788
     5  C    0.088429
     6  C    0.111815
     7  C    0.061288
     8  C    0.090162
     9  C    0.135218
    10  C    0.029165
    11  C    0.035695
    12  C    0.037172
    13  C    0.096953
    14  C   -0.041084
    15  H   -0.048752
    16  H   -0.036793
    17  H   -0.056748
    18  H   -0.016461
    19  H   -0.053701
    20  H   -0.036167
    21  H   -0.045623
    22  H   -0.029343
    23  H   -0.018666
    24  H   -0.031976
    25  H   -0.072442
    26  H   -0.027715
    27  H   -0.018136
    28  H   -0.019255
    29  H   -0.018407
    30  H   -0.033467
    31  H   -0.023909
    32  H   -0.034278
    33  H   -0.017912
    34  H   -0.024340
    35  H   -0.030386
    36  H   -0.037520
    37  H   -0.036700
    38  H   -0.012702
 Sum of APT charges =  -0.00000
 APT charges with hydrogens summed into heavy atoms:
               1
     1  O   -0.648587
     2  C    0.693782
     3  C   -0.064145
     4  C    0.013246
     5  C    0.018267
     6  C    0.000683
     7  C    0.010645
     8  C    0.017719
     9  C    0.135218
    10  C   -0.035942
    11  C   -0.040088
    12  C   -0.039358
    13  C    0.029047
    14  C   -0.090487
 Electronic spatial extent (au):  <R**2>=           3791.1039
 Charge=             -0.0000 electrons
 Dipole moment (field-independent basis, Debye):
    X=              2.6297    Y=             -1.0728    Z=             -0.8702  Tot=              2.9704
 Quadrupole moment (field-independent basis, Debye-Ang):
   XX=            -96.2615   YY=            -92.2578   ZZ=            -88.4537
   XY=              5.7670   XZ=              1.9744   YZ=             -1.8102
 Traceless Quadrupole moment (field-independent basis, Debye-Ang):
   XX=             -3.9372   YY=              0.0665   ZZ=              3.8706
   XY=              5.7670   XZ=              1.9744   YZ=             -1.8102
 Octapole moment (field-independent basis, Debye-Ang**2):
  XXX=             13.6966  YYY=              4.0399  ZZZ=             -0.2798  XYY=             13.4219
  XXY=            -13.5379  XXZ=             -2.4219  XZZ=             -4.4448  YZZ=              5.5209
  YYZ=             -2.9039  XYZ=              3.9020
 Hexadecapole moment (field-independent basis, Debye-Ang**3):
 XXXX=          -3619.0776 YYYY=          -1184.8093 ZZZZ=           -422.5550 XXXY=            -10.8875
 XXXZ=             13.5451 YYYX=             14.9515 YYYZ=             -3.8396 ZZZX=             -8.4795
 ZZZY=              1.3794 XXYY=           -832.7316 XXZZ=           -664.3230 YYZZ=           -263.6823
 XXYZ=            -12.5133 YYXZ=             11.0919 ZZXY=             -0.7017
 N-N= 9.699876583699D+02 E-N=-3.295086489953D+03  KE= 5.793309006781D+02
  Exact polarizability: 158.886  -0.616 132.296  -1.826   1.739 115.946
 Approx polarizability: 198.510  -6.803 185.347  -6.685   3.588 181.105
 Calling FoFJK, ICntrl=    100127 FMM=F ISym2X=0 I1Cent= 0 IOpClX= 0 NMat=1 NMatS=1 NMatT=0.
 Full mass-weighted force constant matrix:
 Low frequencies ---   -5.9438   -4.5482   -1.3729    0.0003    0.0008    0.0009
 Low frequencies ---   28.6060   55.6216   66.1408
 Diagonal vibrational polarizability:
        5.1005760       9.0030144      19.6504294
 Harmonic frequencies (cm**-1), IR intensities (KM/Mole), Raman scattering
 activities (A**4/AMU), depolarization ratios for plane and unpolarized
 incident light, reduced masses (AMU), force constants (mDyne/A),
 and normal coordinates:
                      1                      2                      3
                      A                      A                      A
 Frequencies --     28.5528                55.6203                66.1305
 Red. masses --      2.6307                 3.9633                 2.0475
 Frc consts  --      0.0013                 0.0072                 0.0053
 IR Inten    --      0.0523                 1.5564                 0.2977
  Atom  AN      X      Y      Z        X      Y      Z        X      Y      Z
     1   8    -0.00   0.02  -0.07     0.09  -0.03   0.25    -0.00  -0.08   0.06
     2   6    -0.00  -0.00  -0.05     0.02   0.03   0.03    -0.01  -0.04   0.00
     3   6    -0.00  -0.02  -0.00    -0.03   0.06  -0.01     0.00  -0.02  -0.04
     4   6    -0.00  -0.03   0.04    -0.03   0.06  -0.00     0.00  -0.01  -0.03
     5   6     0.01   0.03   0.06     0.04  -0.07  -0.03     0.08  -0.10  -0.04
     6   6     0.01   0.03   0.10     0.08  -0.14  -0.05    -0.08   0.19   0.06
     7   6     0.00  -0.00   0.02    -0.03   0.05  -0.01     0.01  -0.02  -0.06
     8   6     0.00  -0.00  -0.01    -0.01   0.01  -0.07     0.01   0.00  -0.02
     9   6    -0.00  -0.01  -0.00    -0.05  -0.01   0.02     0.01   0.02   0.01
    10   6    -0.10  -0.16  -0.06    -0.15   0.01   0.03    -0.01   0.03   0.02
    11   6     0.10   0.10  -0.12    -0.03  -0.04   0.05     0.04   0.01   0.03
    12   6    -0.01   0.04   0.19    -0.01  -0.06   0.08     0.00   0.03   0.02
    13   6     0.01   0.01  -0.04     0.05   0.09  -0.18    -0.02  -0.01  -0.01
    14   6    -0.00  -0.00  -0.05     0.02   0.06  -0.17    -0.02  -0.01  -0.02
    15   1    -0.01  -0.06  -0.01    -0.03   0.06  -0.01    -0.01   0.01  -0.04
    16   1    -0.01  -0.04   0.02    -0.05   0.09   0.09    -0.01   0.03   0.07
    17   1    -0.01  -0.05   0.07    -0.06   0.12  -0.08    -0.06   0.04  -0.10
    18   1     0.02   0.05   0.03     0.02  -0.12   0.03     0.34  -0.20   0.08
    19   1     0.01   0.04   0.08     0.09  -0.06  -0.10    -0.00  -0.30  -0.25
    20   1    -0.00  -0.00   0.14     0.11  -0.08  -0.11    -0.37   0.31  -0.09
    21   1     0.02   0.06   0.12     0.13  -0.23  -0.07     0.01   0.08   0.04
    22   1     0.01   0.01   0.09     0.03  -0.16   0.02     0.01   0.41   0.32
    23   1     0.01   0.04   0.03    -0.01   0.11   0.01     0.00  -0.06  -0.07
    24   1     0.00  -0.03   0.05    -0.06   0.03   0.03     0.03   0.00  -0.10
    25   1    -0.00  -0.02  -0.02     0.01  -0.09  -0.09     0.03   0.01  -0.01
    26   1    -0.07  -0.09  -0.03    -0.15   0.04   0.11    -0.02   0.04   0.03
    27   1    -0.27  -0.24   0.02    -0.21   0.03   0.01    -0.02   0.04   0.01
    28   1    -0.05  -0.27  -0.22    -0.14   0.00  -0.02    -0.01   0.03   0.01
    29   1     0.06   0.10  -0.32    -0.08   0.01  -0.00     0.04  -0.00   0.03
    30   1     0.06   0.06  -0.06    -0.07  -0.08   0.15     0.04   0.02   0.05
    31   1     0.25   0.22  -0.09     0.08  -0.06   0.05     0.05  -0.01   0.02
    32   1    -0.01   0.03   0.13    -0.04  -0.09   0.12     0.01   0.04   0.05
    33   1    -0.05  -0.08   0.33    -0.02  -0.07   0.09    -0.02   0.04   0.01
    34   1     0.03   0.21   0.26     0.05  -0.05   0.09     0.02   0.01   0.02
    35   1     0.02   0.04  -0.03     0.13   0.19  -0.15    -0.04  -0.02  -0.02
    36   1     0.00   0.02  -0.07     0.06   0.08  -0.31    -0.03   0.00   0.01
    37   1    -0.00   0.01  -0.07     0.08   0.11  -0.22    -0.03  -0.01  -0.02
    38   1    -0.00  -0.02  -0.06    -0.06  -0.04  -0.22    -0.03  -0.02  -0.02
                      4                      5                      6
                      A                      A                      A
 Frequencies --     75.4123               104.5767               157.0416
 Red. masses --      3.0728                 2.4146                 2.5830
 Frc consts  --      0.0103                 0.0156                 0.0375
 IR Inten    --      0.3697                 0.9463                 0.9520
  Atom  AN      X      Y      Z        X      Y      Z        X      Y      Z
     1   8    -0.03   0.08  -0.11    -0.02   0.09  -0.11     0.09   0.10   0.01
     2   6    -0.01   0.05  -0.04     0.00   0.04  -0.01     0.04   0.04  -0.03
     3   6    -0.02   0.07  -0.07     0.01  -0.00   0.07    -0.04   0.00   0.01
     4   6    -0.01   0.05  -0.01    -0.00   0.02   0.02    -0.10   0.09   0.06
     5   6     0.16  -0.06   0.00     0.05  -0.16  -0.03    -0.06  -0.04   0.02
     6   6     0.17  -0.09   0.13    -0.01  -0.03  -0.05    -0.04  -0.07  -0.02
     7   6    -0.01   0.03  -0.14    -0.03   0.03   0.20    -0.04  -0.07  -0.06
     8   6    -0.00   0.03  -0.01    -0.02  -0.01   0.05    -0.03  -0.06   0.02
     9   6    -0.04  -0.02   0.01    -0.01  -0.01  -0.00     0.02   0.00   0.01
    10   6    -0.08  -0.01   0.01     0.04  -0.04  -0.01     0.07   0.01   0.02
    11   6    -0.08  -0.03   0.02    -0.05   0.01  -0.03     0.10   0.01   0.02
    12   6    -0.01  -0.07   0.02    -0.02  -0.01  -0.04    -0.04   0.10  -0.01
    13   6    -0.04  -0.03   0.09     0.04   0.05  -0.02    -0.06  -0.10   0.06
    14   6     0.00   0.02   0.07     0.01   0.02  -0.00     0.08  -0.03  -0.11
    15   1    -0.06   0.10  -0.07     0.08  -0.07   0.07    -0.08  -0.02  -0.00
    16   1    -0.06   0.07   0.13    -0.00   0.09   0.14    -0.08   0.18   0.18
    17   1    -0.07   0.11  -0.08    -0.04   0.11  -0.09    -0.22   0.15  -0.04
    18   1     0.22  -0.11   0.07     0.17  -0.28   0.11    -0.06  -0.10   0.10
    19   1     0.22  -0.06  -0.13     0.02  -0.28  -0.21    -0.04  -0.06  -0.06
    20   1     0.11  -0.04   0.06    -0.15   0.13  -0.24    -0.04   0.03  -0.13
    21   1     0.31  -0.18   0.14     0.05  -0.22  -0.11     0.01  -0.21  -0.06
    22   1     0.10  -0.10   0.28     0.01   0.11   0.18    -0.08  -0.05   0.10
    23   1    -0.02  -0.08  -0.17    -0.03   0.20   0.24    -0.04  -0.18  -0.09
    24   1     0.01   0.09  -0.24    -0.07  -0.07   0.35    -0.04  -0.01  -0.17
    25   1     0.06   0.11   0.02    -0.09  -0.08   0.02    -0.00  -0.01   0.04
    26   1    -0.13  -0.08   0.01     0.07  -0.01  -0.04     0.13   0.10   0.02
    27   1    -0.01   0.00   0.01     0.02  -0.05   0.00    -0.01   0.02   0.01
    28   1    -0.14   0.07   0.02     0.07  -0.07  -0.01     0.13  -0.07   0.02
    29   1    -0.07  -0.03   0.06    -0.07   0.02  -0.04     0.11  -0.00  -0.03
    30   1    -0.07  -0.03   0.00    -0.06  -0.02  -0.06     0.10   0.03   0.07
    31   1    -0.11  -0.05   0.02    -0.06   0.03  -0.02     0.15   0.01   0.02
    32   1    -0.03  -0.09   0.10    -0.01  -0.02  -0.12     0.00   0.15  -0.12
    33   1    -0.02  -0.03  -0.02     0.03  -0.05  -0.00    -0.04   0.05   0.05
    34   1     0.05  -0.13   0.00    -0.07   0.03  -0.02    -0.14   0.18   0.03
    35   1    -0.13  -0.12   0.05     0.12   0.12   0.01    -0.25  -0.13   0.03
    36   1    -0.03  -0.04   0.20     0.04   0.04  -0.13    -0.02  -0.15   0.24
    37   1    -0.01  -0.01   0.11     0.02   0.03  -0.01     0.12   0.06  -0.22
    38   1     0.07   0.07   0.10    -0.01   0.03  -0.01     0.17  -0.18  -0.14
                      7                      8                      9
                      A                      A                      A
 Frequencies --    173.1062               197.1933               236.5569
 Red. masses --      2.7031                 1.8974                 1.4244
 Frc consts  --      0.0477                 0.0435                 0.0470
 IR Inten    --      0.4363                 0.5373                 0.3014
  Atom  AN      X      Y      Z        X      Y      Z        X      Y      Z
     1   8    -0.06   0.08  -0.08     0.02   0.03  -0.01    -0.02  -0.03  -0.00
     2   6    -0.03   0.01   0.08     0.01   0.01  -0.01    -0.01  -0.02  -0.00
     3   6    -0.03   0.01   0.06    -0.00  -0.02   0.04    -0.01  -0.00  -0.02
     4   6    -0.04   0.02   0.08     0.02  -0.06   0.10    -0.06   0.07  -0.04
     5   6    -0.06  -0.04   0.05    -0.05  -0.08   0.08    -0.03   0.06  -0.04
     6   6    -0.07  -0.03  -0.04    -0.08  -0.01  -0.06     0.01  -0.02   0.04
     7   6     0.03  -0.01  -0.09     0.06   0.02  -0.06    -0.03  -0.02   0.03
     8   6     0.04  -0.02  -0.12     0.04   0.06   0.00    -0.01  -0.03  -0.00
     9   6     0.03  -0.00  -0.03     0.02   0.02  -0.00     0.02  -0.01   0.01
    10   6    -0.05   0.07  -0.01    -0.02  -0.01  -0.01     0.04  -0.03   0.00
    11   6     0.13  -0.06   0.05    -0.05   0.04  -0.04     0.06   0.01  -0.01
    12   6     0.05  -0.01   0.02     0.07  -0.06   0.04     0.01   0.02   0.04
    13   6     0.08  -0.01  -0.11    -0.02   0.04   0.03     0.02  -0.00  -0.05
    14   6    -0.02  -0.01   0.14     0.01   0.02  -0.07    -0.02  -0.02   0.02
    15   1    -0.11   0.07   0.06    -0.09  -0.02   0.02     0.03  -0.01  -0.01
    16   1    -0.03   0.04   0.11     0.00  -0.09   0.07    -0.03   0.14   0.00
    17   1    -0.06   0.04   0.04     0.04  -0.07   0.11    -0.13   0.09  -0.07
    18   1    -0.07  -0.08   0.09    -0.07  -0.10   0.10    -0.04   0.06  -0.04
    19   1    -0.07  -0.07   0.03    -0.10  -0.12   0.10     0.02   0.10  -0.06
    20   1    -0.06   0.04  -0.12    -0.07   0.04  -0.13    -0.02   0.07  -0.07
    21   1    -0.09  -0.12  -0.08    -0.16  -0.08  -0.11     0.17  -0.18   0.03
    22   1    -0.05   0.01   0.01    -0.02   0.05  -0.05    -0.10  -0.04   0.23
    23   1     0.10  -0.09  -0.09     0.08  -0.09  -0.08    -0.04   0.05   0.05
    24   1    -0.01   0.03  -0.16     0.10   0.07  -0.14    -0.03  -0.05   0.09
    25   1     0.04  -0.05  -0.13     0.07   0.10   0.02    -0.02  -0.07  -0.02
    26   1    -0.04   0.13   0.09    -0.14  -0.21  -0.08    -0.09  -0.29  -0.12
    27   1    -0.15   0.09  -0.05     0.20  -0.01   0.01     0.37  -0.03   0.03
    28   1    -0.03   0.03  -0.04    -0.16   0.18   0.02    -0.12   0.21   0.10
    29   1     0.04   0.01  -0.07     0.05  -0.04   0.11     0.20  -0.12   0.14
    30   1     0.05  -0.12   0.27     0.04   0.13  -0.24     0.18   0.16  -0.17
    31   1     0.36  -0.11   0.03    -0.29   0.06  -0.04    -0.17   0.00  -0.01
    32   1     0.04  -0.02   0.07     0.02  -0.07   0.31     0.01   0.08   0.29
    33   1     0.03  -0.00   0.01    -0.01   0.08  -0.10    -0.13   0.15  -0.10
    34   1     0.11  -0.03   0.01     0.26  -0.25  -0.03     0.14  -0.16  -0.03
    35   1     0.27  -0.03  -0.09    -0.10   0.02   0.01     0.11   0.03  -0.03
    36   1     0.06   0.02  -0.25    -0.02   0.05   0.11     0.01   0.01  -0.14
    37   1     0.01  -0.11   0.30     0.01   0.08  -0.15    -0.01  -0.04   0.06
    38   1    -0.15   0.18   0.18     0.04  -0.08  -0.10    -0.05   0.04   0.03
                     10                     11                     12
                      A                      A                      A
 Frequencies --    247.9593               255.8718               266.1948
 Red. masses --      1.1887                 1.2527                 1.0784
 Frc consts  --      0.0431                 0.0483                 0.0450
 IR Inten    --      0.3167                 0.0706                 0.0514
  Atom  AN      X      Y      Z        X      Y      Z        X      Y      Z
     1   8     0.01   0.04   0.01    -0.00  -0.00   0.02     0.00  -0.00  -0.00
     2   6    -0.00   0.01   0.01    -0.01   0.01  -0.01    -0.00  -0.00  -0.01
     3   6    -0.01   0.01   0.01    -0.01   0.00  -0.00    -0.01  -0.00  -0.02
     4   6    -0.02   0.01  -0.02    -0.01   0.01  -0.02    -0.01  -0.02  -0.01
     5   6     0.02  -0.08  -0.04    -0.01   0.00  -0.02    -0.02  -0.01  -0.00
     6   6    -0.02  -0.00   0.02    -0.01  -0.01   0.02    -0.02  -0.01   0.02
     7   6    -0.02  -0.00   0.00    -0.02   0.02   0.05    -0.00   0.01  -0.02
     8   6    -0.01  -0.01  -0.01    -0.00   0.01   0.02     0.01   0.01   0.00
     9   6     0.00  -0.00   0.00     0.01   0.00  -0.01     0.01   0.00   0.01
    10   6     0.01  -0.00   0.00    -0.01   0.02  -0.01     0.03   0.02   0.01
    11   6     0.03   0.00   0.00     0.05   0.02  -0.03    -0.02   0.01  -0.00
    12   6    -0.01   0.02   0.01     0.05  -0.05  -0.04     0.02  -0.01   0.02
    13   6     0.01  -0.01  -0.02    -0.04  -0.01   0.05     0.01   0.01  -0.00
    14   6     0.01  -0.00   0.01    -0.01  -0.00  -0.02     0.00  -0.00  -0.00
    15   1    -0.01   0.02   0.01     0.02  -0.02  -0.00    -0.02  -0.00  -0.02
    16   1    -0.03   0.06   0.07    -0.01   0.01  -0.02    -0.01  -0.03  -0.03
    17   1    -0.06   0.08  -0.10    -0.01   0.01  -0.03     0.01  -0.03   0.00
    18   1     0.10  -0.11   0.01     0.00   0.00  -0.02    -0.02  -0.00  -0.01
    19   1     0.01  -0.13  -0.12     0.00   0.01  -0.03    -0.02  -0.00   0.00
    20   1     0.02  -0.34   0.42    -0.02  -0.03   0.04    -0.04  -0.00   0.00
    21   1    -0.23   0.49   0.16     0.02   0.02   0.03     0.01  -0.03   0.02
    22   1     0.11  -0.08  -0.44    -0.02  -0.02   0.02    -0.04  -0.01   0.05
    23   1    -0.02   0.00   0.01    -0.02   0.09   0.07    -0.01   0.00  -0.02
    24   1    -0.02  -0.01   0.01    -0.04  -0.02   0.12     0.00   0.02  -0.02
    25   1    -0.01  -0.03  -0.01    -0.03   0.03   0.02     0.02   0.01   0.00
    26   1    -0.05  -0.11  -0.04    -0.04  -0.01   0.01    -0.14  -0.30  -0.12
    27   1     0.13   0.00   0.01     0.02   0.04  -0.03     0.43   0.04   0.01
    28   1    -0.06   0.10   0.04    -0.05   0.07  -0.01    -0.18   0.32   0.15
    29   1     0.07  -0.04   0.04    -0.14   0.18  -0.34    -0.16   0.14  -0.17
    30   1     0.06   0.05  -0.04    -0.11  -0.18   0.27    -0.14  -0.14   0.14
    31   1    -0.04  -0.00  -0.00     0.48   0.08  -0.01     0.21   0.05   0.01
    32   1    -0.00   0.04   0.07     0.01  -0.04   0.28     0.01  -0.08  -0.29
    33   1    -0.05   0.05  -0.02    -0.04   0.15  -0.26     0.17  -0.21   0.24
    34   1     0.02  -0.02  -0.00     0.21  -0.34  -0.16    -0.12   0.27   0.13
    35   1     0.04  -0.00  -0.01    -0.12  -0.05   0.03     0.03   0.01   0.00
    36   1     0.01  -0.01  -0.04    -0.04  -0.01   0.14     0.02   0.00  -0.02
    37   1     0.03  -0.00   0.01    -0.01   0.02  -0.05    -0.00  -0.00  -0.01
    38   1    -0.00  -0.00   0.00     0.04  -0.05  -0.02     0.01  -0.01  -0.00
                     13                     14                     15
                      A                      A                      A
 Frequencies --    268.9229               284.5017               290.8867
 Red. masses --      2.5272                 2.7634                 2.5673
 Frc consts  --      0.1077                 0.1318                 0.1280
 IR Inten    --      0.1016                 0.2238                 2.7512
  Atom  AN      X      Y      Z        X      Y      Z        X      Y      Z
     1   8    -0.07   0.02   0.01     0.09  -0.08  -0.04     0.05   0.16   0.05
     2   6    -0.07   0.02   0.01     0.09  -0.06  -0.05    -0.00   0.04   0.05
     3   6    -0.05   0.04  -0.01     0.02  -0.06  -0.05    -0.03   0.02   0.02
     4   6    -0.06   0.02  -0.05    -0.09   0.06  -0.03     0.06  -0.17  -0.13
     5   6    -0.05  -0.01  -0.06    -0.10  -0.02  -0.05    -0.06  -0.04  -0.11
     6   6    -0.05  -0.04   0.06    -0.10  -0.08   0.09    -0.08  -0.05   0.10
     7   6     0.01   0.04  -0.06     0.03  -0.00   0.03    -0.01   0.03   0.00
     8   6     0.05   0.04   0.03     0.02   0.05   0.01     0.00  -0.00  -0.01
     9   6     0.06  -0.02   0.05     0.01   0.05  -0.02    -0.00  -0.00  -0.01
    10   6     0.20  -0.09   0.03    -0.09   0.12   0.00    -0.04   0.01  -0.01
    11   6    -0.03  -0.01   0.02    -0.07   0.07  -0.04     0.03  -0.01   0.01
    12   6     0.11  -0.09   0.04     0.07  -0.04   0.01    -0.02   0.03  -0.01
    13   6    -0.01   0.07  -0.02     0.07   0.01   0.05     0.03  -0.02   0.01
    14   6    -0.06   0.02  -0.04     0.07  -0.02   0.06     0.05  -0.02   0.02
    15   1    -0.06   0.08  -0.01     0.03  -0.12  -0.06     0.00   0.08   0.04
    16   1    -0.05   0.04  -0.03    -0.02   0.20   0.07     0.02  -0.36  -0.39
    17   1    -0.06   0.05  -0.08    -0.23   0.12  -0.12     0.35  -0.25   0.01
    18   1    -0.03  -0.01  -0.05    -0.08  -0.05  -0.02    -0.04   0.06  -0.21
    19   1    -0.02   0.00  -0.08    -0.07  -0.01  -0.10    -0.06   0.02  -0.01
    20   1    -0.09  -0.09   0.12    -0.14  -0.14   0.16    -0.23  -0.01   0.04
    21   1     0.03   0.03   0.12     0.02  -0.01   0.16     0.16  -0.12   0.15
    22   1    -0.09  -0.08   0.07    -0.17  -0.14   0.11    -0.17  -0.04   0.33
    23   1     0.02  -0.06  -0.09     0.02   0.06   0.04    -0.00   0.02   0.00
    24   1     0.03   0.10  -0.15     0.08  -0.04   0.10    -0.02   0.03  -0.00
    25   1     0.11   0.02   0.04    -0.01   0.08   0.01    -0.01   0.01  -0.01
    26   1     0.39   0.19  -0.01    -0.02   0.29   0.17    -0.04   0.02   0.03
    27   1    -0.05  -0.14   0.07    -0.32   0.17  -0.06    -0.07   0.01  -0.02
    28   1     0.41  -0.37   0.01     0.00  -0.01  -0.07    -0.04   0.01  -0.04
    29   1    -0.08   0.05   0.01    -0.05   0.06   0.02     0.09  -0.07   0.08
    30   1    -0.07  -0.08   0.01    -0.05   0.07  -0.17     0.08   0.07  -0.05
    31   1    -0.01   0.01   0.02    -0.19   0.11  -0.03    -0.07  -0.04  -0.00
    32   1     0.07  -0.16   0.02     0.01  -0.14  -0.07    -0.01   0.06   0.03
    33   1     0.17  -0.12   0.08     0.17  -0.11   0.09    -0.06   0.06  -0.04
    34   1     0.14  -0.05   0.06     0.09   0.05   0.05    -0.02  -0.01  -0.03
    35   1     0.02   0.12  -0.01     0.09  -0.00   0.05     0.04  -0.03   0.01
    36   1    -0.03   0.11  -0.07     0.08   0.00   0.04     0.04  -0.03   0.02
    37   1    -0.05   0.06  -0.09    -0.03  -0.08   0.12     0.08   0.00  -0.00
    38   1    -0.09  -0.03  -0.07     0.10   0.07   0.10     0.05  -0.04   0.01
                     16                     17                     18
                      A                      A                      A
 Frequencies --    334.3931               340.7453               370.0797
 Red. masses --      2.4470                 2.0735                 2.3312
 Frc consts  --      0.1612                 0.1418                 0.1881
 IR Inten    --      0.3721                 0.2314                 1.3326
  Atom  AN      X      Y      Z        X      Y      Z        X      Y      Z
     1   8    -0.07   0.06   0.02    -0.04  -0.03   0.01    -0.05   0.01  -0.05
     2   6    -0.07   0.01   0.06    -0.03   0.02  -0.03     0.00  -0.04   0.12
     3   6    -0.01   0.00   0.08    -0.00   0.02  -0.01     0.07  -0.04   0.15
     4   6     0.01   0.02  -0.03    -0.02   0.02   0.01     0.02   0.07  -0.04
     5   6     0.05   0.04  -0.03    -0.02  -0.01  -0.00    -0.01   0.03  -0.08
     6   6     0.06   0.04  -0.02    -0.03  -0.02   0.01     0.01  -0.01   0.03
     7   6    -0.02  -0.06   0.06     0.02   0.07   0.05     0.09  -0.11  -0.02
     8   6    -0.01  -0.06  -0.03     0.04   0.06   0.01     0.02   0.00   0.06
     9   6     0.03  -0.01  -0.04     0.05   0.00  -0.04     0.00   0.01   0.05
    10   6    -0.01   0.15   0.01    -0.09  -0.06  -0.07    -0.09  -0.04   0.03
    11   6     0.02   0.02  -0.09     0.14  -0.09   0.07    -0.01   0.05   0.00
    12   6     0.12  -0.09   0.07     0.07  -0.03  -0.08    -0.02   0.01  -0.10
    13   6    -0.08  -0.09  -0.02    -0.04   0.03   0.07     0.01   0.06  -0.01
    14   6    -0.04  -0.05  -0.04    -0.03   0.04  -0.03    -0.02  -0.01  -0.05
    15   1     0.05   0.05   0.10     0.00  -0.01  -0.02     0.10   0.08   0.18
    16   1     0.02   0.02  -0.03    -0.01   0.05   0.03     0.11   0.19   0.00
    17   1     0.03   0.02  -0.03    -0.04   0.04  -0.02    -0.02   0.13  -0.11
    18   1     0.05   0.05  -0.04    -0.02  -0.02   0.01     0.00   0.03  -0.07
    19   1     0.06   0.05  -0.03    -0.02  -0.01  -0.02     0.01   0.05  -0.09
    20   1     0.07   0.04  -0.02    -0.03  -0.03   0.03    -0.03  -0.04   0.06
    21   1     0.06   0.03  -0.02    -0.01   0.00   0.03     0.11   0.02   0.08
    22   1     0.06   0.03  -0.02    -0.04  -0.03   0.01    -0.05  -0.05   0.07
    23   1     0.02  -0.02   0.08     0.02   0.18   0.08     0.13  -0.39  -0.09
    24   1    -0.10  -0.08   0.08     0.03   0.01   0.15     0.14   0.05  -0.27
    25   1    -0.07  -0.07  -0.04     0.02   0.10   0.01     0.02  -0.00   0.06
    26   1    -0.01   0.21   0.15    -0.17  -0.17  -0.02    -0.16  -0.14   0.06
    27   1    -0.06   0.27  -0.13    -0.09  -0.11  -0.01    -0.08  -0.08   0.07
    28   1    -0.01   0.16   0.09    -0.17   0.01  -0.21    -0.16   0.02  -0.07
    29   1     0.11  -0.06  -0.01     0.28  -0.22   0.26    -0.04   0.06  -0.08
    30   1     0.11   0.11  -0.27     0.25   0.11   0.07    -0.03   0.01   0.02
    31   1    -0.17   0.09  -0.07    -0.01  -0.26   0.02     0.05   0.11   0.02
    32   1     0.03  -0.24  -0.07     0.07  -0.09  -0.34     0.01   0.03  -0.18
    33   1     0.23  -0.26   0.25     0.22  -0.15   0.05     0.06   0.06  -0.16
    34   1     0.16   0.11   0.16    -0.08   0.15  -0.01    -0.17  -0.06  -0.13
    35   1    -0.16  -0.13  -0.04    -0.17  -0.03   0.03     0.06   0.16   0.02
    36   1    -0.06  -0.10   0.08    -0.05   0.06   0.21     0.00   0.06  -0.11
    37   1     0.06   0.02  -0.11    -0.04   0.07  -0.07     0.04   0.12  -0.22
    38   1    -0.06  -0.16  -0.09     0.02  -0.02  -0.03    -0.10  -0.22  -0.15
                     19                     20                     21
                      A                      A                      A
 Frequencies --    393.0892               431.2516               445.7839
 Red. masses --      2.2289                 2.9780                 2.5419
 Frc consts  --      0.2029                 0.3263                 0.2976
 IR Inten    --      0.3585                 3.0349                 0.3080
  Atom  AN      X      Y      Z        X      Y      Z        X      Y      Z
     1   8     0.01   0.01   0.02     0.01  -0.08  -0.01     0.05   0.03   0.03
     2   6    -0.01   0.01  -0.04     0.06   0.09  -0.04     0.02   0.04  -0.05
     3   6    -0.05   0.03  -0.08     0.11   0.03   0.07     0.01  -0.02   0.00
     4   6    -0.02  -0.04   0.01     0.09   0.03   0.02     0.01  -0.02  -0.00
     5   6     0.01  -0.01   0.04    -0.04  -0.03  -0.03     0.01  -0.01   0.00
[...]
 00709,-0.00000592,-0.00000467,-0.00000151,-0.00000023,-0.00000034,0.00
 015970,-0.00011646,-0.00001805,0.00000203,-0.00005653,0.00001709,-0.00
 014267,0.00035527,-0.00078542,0.00028327,0.00002748,0.00024536,0.00016
 613,0.00002127,-0.00038861,0.00005367,0.00033984,0.00143590,-0.0001666
 4,-0.00006048,-0.00009688,0.00003556,0.00010238,-0.00016162,0.00044778
 ,0.00010093,-0.00019812,0.00791156,-0.00159325,-0.02844886,-0.00382744
 ,0.00176128,0.01602536,0.06299417,-0.00001697,-0.00001784,0.00000387,0
 .00001666,0.00004793,-0.00000615,-0.00002369,0.00002308,0.00005609,-0.
 00000662,-0.00000571,-0.00001496,-0.00000733,0.00000159,-0.00001594,0.
 00000033,0.00000070,0.00000354,-0.00024906,-0.00010101,0.00008176,-0.0
 0073788,0.00098639,-0.00107827,0.00483182,-0.00127044,-0.02651766,0.00
 280158,-0.00474909,0.00001023,0.00021048,0.00149174,-0.00105155,0.0028
 0290,-0.05094720,-0.01550422,0.00006609,0.00017234,0.00009813,0.000025
 74,0.00002474,-0.00000435,0.00001995,-0.00000530,0.00002420,-0.0000070
 8,0.00000737,0.00000154,-0.00000062,-0.00000470,0.00000124,-0.00000225
 ,-0.00000203,0.00000116,0.00000432,0.00000246,0.00000038,-0.00000015,-
 0.00000143,-0.00000085,-0.00000343,0.00000239,0.00000197,0.00000136,-0
 .00000025,0.00000088,-0.00015106,0.00008636,0.00001862,0.00002578,-0.0
 0001756,-0.00002321,0.00013095,0.00000545,0.00075044,-0.00015377,-0.00
 011633,0.00028445,0.00028894,0.00018909,-0.00005355,0.00076759,0.00014
 674,-0.00178882,-0.00000365,0.00026541,0.00033879,-0.00003805,-0.00010
 913,-0.00001163,-0.00015102,-0.00043756,0.00056950,0.00036619,-0.00098
 259,-0.00211703,-0.00473465,0.00302638,0.02773381,-0.00615676,0.052513
 90,0.00001277,0.00002655,-0.00000425,-0.00001005,-0.00006767,0.0000266
 5,0.00002362,-0.00004875,-0.00002199,0.00002567,0.00001887,0.00002276,
 -0.00001448,-0.00000161,-0.00001314,0.00000008,0.00000470,0.00000028,0
 .00007110,-0.00007043,0.00041540,-0.00102143,0.00052226,0.00009905,0.0
 0105271,0.00016407,-0.00644171,0.00102044,-0.00236957,0.00095903,-0.00
 010732,0.00064394,0.00005786,0.05473132,-0.01579854,-0.29423872,0.0003
 1254,-0.00008847,0.00015764,0.00001813,0.00003969,-0.00001697,0.000007
 33,-0.00000448,0.00002561,0.00001224,-0.00001180,0.00000536,-0.0000052
 4,-0.00000191,-0.00000196,-0.00000178,-0.00000227,-0.00000085,0.000006
 42,0.00000560,0.00000639,-0.00000141,-0.00000257,-0.00000067,-0.000002
 18,0.00000033,-0.00000012,0.00000443,-0.00000111,0.00000376,-0.0001702
 0,0.00012816,0.00008113,0.00000226,0.00001050,-0.00002392,0.00034707,-
 0.00009329,0.00083051,-0.00003554,0.00020885,0.00043441,-0.00015098,0.
 00015823,0.00014534,0.00023493,-0.00001582,-0.00053351,-0.00008153,-0.
 00016215,0.00031376,0.00008935,-0.00001780,-0.00006595,-0.00021669,-0.
 00054832,0.00052366,0.00397194,-0.00043793,-0.01549675,0.00091519,-0.0
 0044675,-0.00768905,-0.06103224,0.01810537,0.32050101,-0.00016314,-0.0
 0028422,0.00031236,0.00173371,-0.00071317,-0.00048122,0.00001084,0.000
 04289,-0.00026698,0.00006775,0.00002805,0.00002446,0.00001503,0.000008
 59,0.00001174,-0.00000624,0.00000468,0.00000056,0.00026510,0.00144127,
 -0.00034425,-0.00930695,-0.00093677,0.01936966,0.00066662,0.00033858,0
 .00127390,-0.00052788,-0.00097104,0.00011763,-0.00005469,-0.00007420,-
 0.00025787,-0.00026130,-0.00006373,-0.00014733,-0.09064764,-0.00020772
 ,0.09519042,0.00893178,0.00060427,-0.02505291,-0.00013332,0.00000036,-
 0.00001047,0.00002202,-0.00002699,0.00000158,-0.00000640,0.00001188,0.
 00000475,-0.00000567,0.00000221,0.00000662,-0.00000313,0.00000367,0.00
 001125,0.,-0.00000683,0.00000302,0.00000656,-0.00000448,-0.00000469,0.
 00000299,-0.00000260,0.00000056,0.00068379,-0.00032789,-0.00036285,-0.
 00003416,0.00007252,-0.00026249,-0.00184855,-0.00381213,-0.00002500,0.
 00029196,0.00036488,-0.00014842,-0.00044295,0.00029745,-0.00135416,0.0
 0006110,0.00007377,-0.00006606,0.00000871,-0.00002746,0.00000056,-0.00
 008074,-0.00003745,-0.00011219,0.00017383,0.00014443,-0.00018007,-0.00
 011064,-0.00000274,-0.00009242,-0.00004627,0.00008813,0.00016558,0.000
 30106,-0.00002498,-0.00017430,0.10003405,-0.00014869,0.00016076,-0.000
 13614,-0.00033774,-0.00025224,0.00069498,0.00023038,-0.00012045,-0.000
 12493,0.00003513,0.00001845,0.00002593,0.00000103,-0.00001371,0.000034
 83,0.00001123,-0.00000822,-0.00002082,-0.00067939,0.00176368,0.0014211
 4,-0.01130889,-0.00169212,0.02580458,0.00064711,0.00063267,0.00028053,
 -0.00015493,0.00016068,-0.00027468,0.00001337,-0.00001004,0.00005774,0
 .00008646,-0.00001508,0.00000521,0.00025133,-0.05258740,0.00512188,-0.
 00039443,-0.00007619,0.00046426,-0.00005781,0.00011108,-0.00020420,0.0
 0000758,-0.00002390,-0.00000240,0.00000278,0.00001202,-0.00000098,0.00
 002895,0.00000558,-0.00000598,-0.00001375,-0.00002319,-0.00001667,-0.0
 0000142,0.00001303,-0.00000224,-0.00000066,-0.00000016,0.00000408,-0.0
 0000893,0.00000657,-0.00000499,0.00035492,-0.00046313,-0.00061739,0.00
 004102,0.00033282,-0.00036253,-0.00342277,-0.00429665,0.00081616,0.000
 12407,0.00002921,-0.00006251,-0.00027823,0.00022162,-0.00039220,-0.000
 06060,-0.00015439,-0.00010036,0.00000781,-0.00003109,-0.00002435,-0.00
 002457,-0.00001271,-0.00013560,0.00012458,0.00007973,-0.00012865,0.000
 01877,0.00010084,0.00002741,-0.00005951,0.00004733,-0.00014320,-0.0000
 1569,-0.00014384,0.00005510,0.00423318,0.05367329,-0.00120763,0.000364
 99,0.00032012,0.00193968,-0.00154367,-0.00049028,-0.00006782,0.0003671
 3,-0.00031457,0.00007369,0.00001708,-0.00002473,0.00001918,0.00004957,
 -0.00007181,-0.00002158,-0.00000686,0.00004092,-0.00012353,-0.00061848
 ,0.00009691,0.00250909,0.00080757,-0.00282394,-0.00025712,0.00033783,-
 0.00043537,-0.00059112,0.00019833,-0.00091938,0.00019420,-0.00004986,0
 .00008560,0.00012750,0.00007287,0.00011594,0.09501540,0.00468094,-0.25
 920016,0.00662597,0.00099108,-0.02097399,-0.00000100,-0.00003566,0.000
 17696,0.00000008,-0.00001288,0.00001975,-0.00002433,0.00004370,0.00001
 762,-0.00004643,-0.00001372,-0.00001542,0.00002188,0.00003184,0.000025
 45,0.00000436,-0.00001640,0.00000028,-0.00001363,0.00001748,0.00000912
 ,0.00001295,-0.00000790,0.00000197,-0.00034137,0.00062681,0.00043622,-
 0.00015657,0.00007552,0.00036423,0.00011437,0.00055022,0.00106749,-0.0
 0023563,-0.00024229,0.00023200,-0.00122868,-0.00100541,-0.00035219,0.0
 0003791,0.00001302,0.00002756,-0.00000290,0.00002698,0.00000139,0.0000
 6778,0.00007942,0.00000178,-0.00002158,-0.00001889,0.00008644,0.000066
 02,0.00002984,0.00002572,0.00005979,0.00002733,-0.00006874,-0.00009534
 ,-0.00001484,0.00005991,-0.10022167,-0.00531533,0.28688439,-0.00192254
 ,0.00178936,0.00084734,-0.00096263,-0.00463017,-0.00398039,-0.00015613
 ,0.00010658,0.00055214,0.00015814,0.00004673,0.00012509,-0.00007102,-0
 .00004062,-0.00001693,0.00003107,0.00000855,0.00001844,-0.00261075,-0.
 00286170,0.00025534,0.01243360,-0.01662533,-0.00291665,0.00074543,0.00
 048882,-0.00031458,-0.00000816,0.00006162,-0.00007520,0.00013688,0.000
 05012,0.00026757,-0.00206236,-0.00014080,-0.00109803,-0.12162471,0.118
 00972,0.02029422,-0.01499198,0.02179545,-0.00032607,-0.00002868,-0.000
 03883,0.00001557,0.00004169,-0.00008165,0.00003301,-0.00000396,0.00011
 929,-0.00001703,0.00005397,-0.00001211,-0.00008116,0.00001188,0.000030
 75,0.00004856,-0.00000248,0.00002171,-0.00000531,-0.00000969,0.0000074
 7,0.00000739,0.00000511,-0.00001157,-0.00000058,-0.00004432,-0.0000108
 7,-0.00016207,0.00086054,-0.00121228,-0.00005041,0.00066911,0.00082254
 ,-0.00003119,0.00003671,0.00002706,-0.00003281,-0.00000869,0.00002715,
 -0.00003330,-0.00002207,-0.00000869,0.00007505,0.00004446,0.00010309,0
 .00001901,0.00004415,0.00007244,0.00000732,0.00000120,-0.00002513,0.00
 000293,-0.00001343,-0.00017388,0.00007612,-0.00265362,-0.00039099,-0.0
 0092865,-0.00006868,0.00010794,0.00011726,-0.00731129,0.01087692,0.001
 58371,0.13746310,0.00011598,0.00003665,0.00010674,-0.00049253,0.000831
 18,-0.00018227,-0.00038584,0.00060024,-0.00023063,0.00010842,0.0001182
 5,0.00008062,-0.00003710,-0.00004236,0.00001813,0.00000503,0.00003201,
 -0.00000951,-0.00542019,-0.00365964,0.00111021,0.01456167,-0.02173869,
 -0.00429075,0.00142763,-0.00037246,0.00034867,-0.00028921,0.00002344,-
 0.00011883,-0.00005493,0.00017020,0.00004091,0.00065869,-0.00053820,0.
 00077145,0.11617168,-0.23425442,-0.02654169,-0.00017747,0.00125280,-0.
 00003682,0.00001643,-0.00002842,0.00004180,0.00008575,-0.00006272,0.00
 001071,-0.00003704,0.00006041,-0.00003852,0.00001122,-0.00000077,-0.00
 000358,0.00000129,0.00002324,0.00005293,-0.00000522,-0.00000687,0.0000
 0481,0.00001955,-0.00002029,-0.00001922,0.00001267,-0.00001081,0.00001
 073,-0.00007953,0.00035987,-0.00006527,0.00115830,-0.00169336,-0.00013
 089,0.00003678,0.00095538,0.00043985,-0.00004984,0.00000543,-0.0001079
 8,0.00007171,-0.00006412,-0.00012659,0.00000354,0.00015731,0.00018537,
 0.00009291,0.00021520,0.00007209,-0.00014798,0.00003344,-0.00005146,0.
 00004694,-0.00002145,-0.00000333,0.00030015,0.00073027,0.00003174,0.00
 055230,0.00148757,-0.00047908,-0.00024849,-0.00010362,0.00010963,-0.00
 072520,0.00140207,-0.00053429,-0.12754547,0.25351383,-0.00228667,0.001
 72866,0.00087270,-0.00190366,-0.00331764,-0.00357733,0.00017807,-0.000
 09762,0.00025021,0.00009955,0.00002336,0.00003739,-0.00001100,-0.00000
 716,-0.00001690,0.00000433,0.00000058,0.00002499,0.00039985,0.00020014
 ,0.00021132,-0.00185017,0.00372628,-0.00056847,0.00032387,-0.00062651,
 0.00015136,-0.00020107,-0.00003266,-0.00005226,-0.00018013,0.00010396,
 -0.00001999,-0.00074955,-0.00069925,0.00051408,0.01988392,-0.02680189,
 -0.05393673,-0.01513055,0.02209637,-0.00008504,-0.00002235,-0.00000950
 ,0.00001215,0.00001135,-0.00004392,0.00003092,-0.00000163,0.00005937,0
 .00001368,-0.00001235,-0.00000916,-0.00006161,0.00002229,0.00003891,0.
 00002059,0.00000247,-0.00000036,-0.00000037,-0.00000853,0.00000944,0.0
 0000496,0.00000757,-0.00001056,0.00000236,-0.00027015,0.00036578,0.000
 37687,-0.00003386,0.00010941,0.00060946,-0.00053935,-0.00005454,0.0002
 6025,-0.00006362,-0.00000128,-0.00001890,0.00018857,-0.00009215,-0.000
 06040,0.00007689,0.00017617,0.00006256,0.00002002,0.00006212,-0.000015
 24,-0.00002019,-0.00004242,-0.00001985,0.00001829,0.00001777,-0.000022
 04,0.00013374,0.00018624,-0.00014942,-0.00109111,0.00032843,-0.0002343
 0,0.00021633,0.00011581,-0.00018931,0.01668062,-0.02635001,-0.00314347
 ,-0.01535810,0.02883040,0.05673014,0.00179449,-0.00112750,0.00013133,0
 .01133313,0.01534892,-0.00314322,-0.00208955,0.00245797,0.00041784,0.0
 0073769,0.00070470,0.00005225,0.00001527,-0.00000918,-0.00011258,-0.00
 000802,0.00000682,0.00004061,-0.00025679,0.00026596,-0.00004217,-0.002
 66583,0.00207546,-0.00422736,0.00000734,-0.00149968,0.00053925,-0.0001
 7630,-0.00000513,0.00009001,-0.00036647,0.00022138,-0.00038982,0.00007
 280,-0.00016743,-0.00001087,-0.01370514,-0.01751927,0.00439867,-0.1554
 9399,-0.13104626,0.02509274,-0.00011320,-0.00007252,-0.00003353,0.0000
 6856,-0.00007306,-0.00000216,-0.00012332,0.00034151,0.00002154,-0.0000
 0174,-0.00002323,0.00001378,0.00000738,0.00001550,0.00003790,0.0000000
 2,-0.00000953,-0.00000317,-0.00001454,0.00000714,0.00000549,0.00000636
 ,-0.00000461,-0.00000050,0.00006534,-0.00005875,0.00000438,0.00006263,
 -0.00011168,0.00002164,0.00031073,0.00043121,-0.00005506,-0.00001081,0
 .00000259,-0.00010181,0.00004106,0.00002933,-0.00000345,0.00001781,-0.
 00001834,-0.00001506,0.00002118,-0.00003663,-0.00000508,-0.00015056,-0
 .00017090,0.00000909,0.00001713,0.00001240,0.00002797,-0.00005776,0.00
 003247,-0.00002121,0.00003249,0.00003781,-0.00000668,0.00001157,0.0000
 0370,0.00001804,0.00124008,0.00020661,0.00003629,0.00022088,0.00033453
 ,0.00058942,0.16689495,-0.00008565,0.00606668,-0.00085302,-0.02242184,
 -0.02692656,0.00519654,0.00527286,-0.00324519,-0.00086706,-0.00163593,
 -0.00080918,-0.00001671,-0.00004654,-0.00014563,0.00026144,0.00003344,
 0.00003231,-0.00013907,0.00043991,0.00027750,0.00035033,0.00059038,0.0
 0081740,0.00027484,0.00019983,0.00017919,0.00017261,-0.00002856,-0.000
 03320,-0.00001424,0.00004270,-0.00001347,-0.00000997,-0.00003437,0.000
 00429,-0.00004431,0.00191357,0.00256620,-0.00113995,-0.12653423,-0.204
 28813,0.03054997,0.00015594,0.00053895,0.00017439,0.00004194,0.0000301
 5,0.00005924,0.00032003,-0.00057981,-0.00005181,0.00004071,0.00003285,
 -0.00007984,0.00000169,0.00000423,-0.00003489,-0.00000997,0.00003026,0
 .00001015,0.00005341,-0.00004877,-0.00002926,0.00000059,-0.00000355,0.
 00001907,-0.00004933,-0.00000803,-0.00010303,-0.00011122,0.00000677,-0
 .00007255,-0.00000815,-0.00006056,0.00006681,-0.00000030,0.00001151,-0
 .00000520,0.00000341,0.00001676,-0.00000089,-0.00000231,0.00000782,0.0
 0001870,0.00000259,0.00001678,0.00001918,0.00000943,0.00001950,0.00000
 041,0.00000565,-0.00000336,-0.00000025,-0.00001796,0.00000900,0.000003
 10,0.00000373,-0.00000225,0.00000749,-0.00000227,-0.00000134,0.0000046
 5,-0.00008722,0.00013922,-0.00041093,-0.00024316,0.00040474,-0.0004201
 0,0.13902450,0.22123828,-0.00089103,0.00031056,-0.00117111,0.00040443,
 -0.00322837,-0.00048054,0.00023941,0.00022845,0.00098200,0.00004496,-0
 .00008940,0.00042386,-0.00006404,0.00005981,-0.00005662,0.00000081,-0.
 00000057,0.00004565,-0.00008273,0.00051973,-0.00005260,-0.00283161,0.0
 0162397,-0.00355133,-0.00047495,-0.00124737,0.00073133,-0.00000258,-0.
 00001969,0.00015334,-0.00036978,0.00016000,-0.00037712,0.00008301,-0.0
 0012409,-0.00003606,-0.01454326,-0.01938510,0.00349490,0.02457546,0.03
 096045,-0.05599438,-0.00041727,-0.00027592,0.00031621,0.00002634,-0.00
 004776,0.00000162,0.00001477,0.00000224,-0.00002912,0.00001634,-0.0000
 0156,-0.00000788,0.00000895,0.00000773,0.00002014,0.00000159,0.0000077
 7,-0.00000464,-0.00001241,0.00001077,0.00000258,0.00000116,-0.00000393
 ,-0.00000209,0.00003193,-0.00002023,-0.00000528,0.00009682,-0.00006131
 ,0.00004693,-0.00024917,-0.00006303,0.00035094,-0.00000198,0.00001463,
 -0.00003559,0.00002669,0.00004024,-0.00002206,0.00000648,-0.00001356,-
 0.00001703,0.00001836,-0.00002855,-0.00000425,-0.00013918,-0.00016158,
 0.00001129,0.00000794,0.00001767,0.00001703,-0.00004054,0.00002419,-0.
 00000201,0.00001974,0.00003057,0.00000708,-0.00000851,0.00001086,0.000
 01320,0.00085159,-0.00040414,0.00082975,0.00065625,0.00033089,0.000653
 87,-0.02505659,-0.03286031,0.05753121,-0.00119211,0.00365353,-0.003319
 49,-0.01037177,0.00007984,0.01765282,0.00005504,-0.00029693,-0.0009108
 6,-0.00005392,0.00011466,-0.00036525,-0.00000794,-0.00013283,0.0000223
 7,0.00002707,0.00000048,-0.00003775,-0.00010141,-0.00034786,-0.0000409
 2,0.00171037,0.00059359,-0.00053993,0.00006331,0.00033262,-0.00012415,
 -0.00003756,0.00010530,-0.00016036,0.00004447,-0.00003394,0.00009693,0
 .00004752,0.00002956,0.00000854,0.00875753,-0.00306530,-0.02589026,-0.
 08525877,0.00816006,0.09871612,0.00066853,0.00023302,-0.00032516,-0.00
 001283,-0.00003959,0.00005558,-0.00000622,0.00003796,0.00001368,0.0000
 2173,0.00000305,-0.00003597,0.00000759,0.00000993,-0.00000184,-0.00000
 194,0.00001480,-0.00000097,0.00000292,-0.00000672,0.00000406,-0.000002
 27,-0.00000388,0.00000139,-0.00011677,0.00005935,0.00001106,-0.0000174
 3,-0.00000935,-0.00001740,-0.00022309,-0.00006587,0.00050376,-0.000054
 02,-0.00008968,0.00002977,-0.00004293,-0.00012039,0.00013965,-0.000004
 46,-0.00000562,0.00001562,-0.00000298,0.00001422,0.00000025,0.00003116
 ,0.00003367,0.00000524,-0.00002114,-0.00002043,0.00001056,0.00001558,0
 .00001202,0.00002504,0.00001412,0.00000626,-0.00003749,-0.00005380,-0.
 00000330,0.00003052,-0.00352599,-0.00033526,-0.00385192,0.00161927,-0.
 00009710,0.00087690,-0.00774488,0.00316268,0.01805261,0.09576801,0.002
 46428,-0.00268067,0.00345982,0.01160456,0.00083077,-0.02924221,-0.0013
 0006,-0.00027689,0.00335686,0.00018385,0.00001555,0.00043621,-0.000012
 67,0.00013883,-0.00002126,-0.00003383,-0.00000426,0.00004109,0.0005410
 0,0.00018642,0.00019410,0.00038212,0.00002734,-0.00107283,-0.00008747,
 0.00005280,0.00007636,0.00004042,-0.00005728,0.00001965,0.00002537,-0.
 00003024,-0.00000558,-0.00001331,0.00002398,-0.00000764,-0.00090850,0.
 00049261,0.00175967,0.00937418,-0.05371657,-0.02742114,-0.00047071,-0.
 00170013,0.00002380,-0.00002730,0.00005340,-0.00007194,0.00001881,-0.0
 0001038,-0.00001292,-0.00002206,0.00000781,0.00005202,-0.00001135,-0.0
 0002199,-0.00002294,0.00000499,-0.00001658,-0.00000057,-0.00000856,0.0
 0000728,-0.00000021,-0.00000526,0.00000774,-0.00000468,0.00000274,0.00
 010373,0.00003744,0.00005846,-0.00000174,-0.00000208,-0.00027133,0.000
 03316,0.00006732,0.00001836,0.00000505,0.00001886,-0.00000915,0.000024
 02,-0.00000976,-0.00000360,0.00000075,-0.00000423,-0.00000554,0.000000
 61,0.00000214,0.00001538,0.00001035,0.00001750,-0.00001737,-0.00000518
 ,0.00000534,0.00000997,-0.00001783,-0.00000145,-0.00000829,-0.00001456
 ,0.00003199,0.00000531,0.00002291,-0.00001524,0.00057598,0.00101389,0.
 00043786,-0.00052008,0.00020469,0.00043752,-0.00960680,0.00371863,0.02
 367595,-0.01198257,0.05157197,-0.00061817,-0.00075039,-0.00058683,0.00
 117131,-0.00002854,0.00009569,0.00084697,0.00010058,-0.00077841,-0.000
 14501,-0.00023045,0.00028601,-0.00002124,0.00010957,-0.00006266,-0.000
 01462,-0.00000520,0.00004507,-0.00038424,-0.00001892,-0.00001448,0.001
 68588,0.00073781,0.00035524,-0.00022816,0.00009461,0.00022141,0.000154
 60,0.00021646,-0.00008948,-0.00003294,-0.00000305,0.00000114,0.0000367
 0,0.00007953,-0.00009149,0.00754092,-0.00199497,-0.02428584,0.09424470
 ,-0.02162799,-0.25045737,-0.00032943,0.00016619,0.00067217,0.00001967,
 0.00002775,-0.00002034,0.00002227,-0.00004504,-0.00000714,-0.00002285,
 0.,0.00001676,0.00000489,0.00000757,0.00001325,0.00000087,-0.00000620,
 -0.00000069,-0.00001022,0.00001588,0.00000205,0.00000420,-0.00000067,-
 0.00000148,0.00000563,0.00017598,0.00016494,0.00001247,-0.00004862,0.0
 0001632,-0.00077387,-0.00072395,0.00069075,-0.00007867,-0.00007920,0.0
 0008241,-0.00003575,-0.00016990,0.00015245,-0.00000913,-0.00000912,0.0
 0001566,0.00000090,0.00000587,-0.00000126,-0.00000370,-0.00000360,0.00
 000470,-0.00002820,-0.00001903,0.00002417,-0.00001735,-0.00001936,0.00
 003615,0.00003280,-0.00006316,-0.00000701,-0.00006515,-0.00000959,0.00
 005618,-0.00446152,0.00001649,-0.00209345,0.00042614,0.00037305,0.0013
 3178,0.00168210,-0.00003555,-0.00378320,-0.10061277,0.02376520,0.27799
 682\\-0.00005336,0.00000474,0.00000630,0.00000199,0.00001868,-0.000010
 13,0.00000090,-0.00002729,-0.00000538,-0.00001713,0.00001771,0.0000070
 4,-0.00000030,-0.00001840,-0.00006987,-0.00000897,-0.00000724,0.000057
 94,0.00001545,0.00000851,-0.00005403,0.00001128,-0.00004425,-0.0000078
 3,0.00000158,0.00001126,0.00001498,-0.00000050,0.00001062,-0.00000961,
 -0.00000300,-0.00001518,-0.00000152,-0.00000533,-0.00001131,0.00001975
 ,0.00002435,0.00005506,-0.00000807,-0.00002574,-0.00001711,0.00002470,
 0.00000803,-0.00002586,0.00001792,0.00000142,0.00001508,-0.00000729,0.
 00000713,0.00001257,-0.00000864,-0.00004399,-0.00009328,0.00003112,0.0
 0007955,0.00000467,0.00005732,0.00003911,0.00007755,-0.00001771,-0.000
 01150,0.00001031,0.00000871,-0.00007530,-0.00000239,-0.00005418,-0.000
 00429,0.00000582,-0.00001591,0.00003690,0.00002365,0.00002446,0.000002
 70,-0.00000580,-0.00001226,-0.00000254,-0.00000480,0.00000718,-0.00000
 621,-0.00000382,0.00000804,0.00000751,-0.00000649,0.00000809,-0.000019
 84,0.00001504,-0.00001202,0.00000091,0.00000384,0.00000437,0.00000543,
 -0.00000429,0.00000538,0.00000491,-0.00000337,-0.00000337,0.00001422,-
 0.00001125,-0.00000301,0.00000352,-0.00001507,-0.00000668,0.00000859,0
 .00001320,0.00001240,0.00001233,0.00001874,-0.00000076,-0.00001353,-0.
 00000836,-0.00000309,0.00000374,-0.00000146,-0.00000434\\\@


 We find comfort among those who agree with us -- growth among those who don't.
 -- Frank A. Clark
 Job cpu time:       0 days  0 hours  4 minutes 46.4 seconds.
 Elapsed time:       0 days  0 hours  4 minutes 54.9 seconds.
 File lengths (MBytes):  RWF=    297 Int=      0 D2E=      0 Chk=     11 Scr=      1
 Normal termination of Gaussian 16 at Sat Feb 24 01:55:38 2024.
