 Entering Gaussian System, Link 0=g16
 Input=/Volumes/SSD-PMU3/b3lyp_6-31gd_freq/KMIVZYGUCIUIAK-GHMZBOCLSA-N_calculating/gaussianinput1.gjf
 Output=/Volumes/SSD-PMU3/b3lyp_6-31gd_freq/KMIVZYGUCIUIAK-GHMZBOCLSA-N_calculating/gaussianinput1.log
 Initial command:
 /Applications/g16/l1.exe "/Users/macmini_m1_2022/PycharmProjects/sphere_model/sphere_model_lib/Gau-84606.inp" -scrdir="/Users/macmini_m1_2022/PycharmProjects/sphere_model/sphere_model_lib/"
 Entering Link 1 = /Applications/g16/l1.exe PID=     84607.
  
 Copyright (c) 1988,1990,1992,1993,1995,1998,2003,2009,2016,
            Gaussian, Inc.  All Rights Reserved.
  
 This is part of the Gaussian(R) 16 program.  It is based on
 the Gaussian(R) 09 system (copyright 2009, Gaussian, Inc.),
 the Gaussian(R) 03 system (copyright 2003, Gaussian, Inc.),
 the Gaussian(R) 98 system (copyright 1998, Gaussian, Inc.),
 the Gaussian(R) 94 system (copyright 1995, Gaussian, Inc.),
 the Gaussian 92(TM) system (copyright 1992, Gaussian, Inc.),
 the Gaussian 90(TM) system (copyright 1990, Gaussian, Inc.),
 the Gaussian 88(TM) system (copyright 1988, Gaussian, Inc.),
 the Gaussian 86(TM) system (copyright 1986, Carnegie Mellon
 University), and the Gaussian 82(TM) system (copyright 1983,
 Carnegie Mellon University). Gaussian is a federally registered
 trademark of Gaussian, Inc.
  
 This software contains proprietary and confidential information,
 including trade secrets, belonging to Gaussian, Inc.
  
 This software is provided under written license and may be
 used, copied, transmitted, or stored only in accord with that
 written license.
  
 The following legend is applicable only to US Government
 contracts under FAR:
  
                    RESTRICTED RIGHTS LEGEND
  
 Use, reproduction and disclosure by the US Government is
 subject to restrictions as set forth in subparagraphs (a)
 and (c) of the Commercial Computer Software - Restricted
 Rights clause in FAR 52.227-19.
  
 Gaussian, Inc.
 340 Quinnipiac St., Bldg. 40, Wallingford CT 06492
  
  
 ---------------------------------------------------------------
 Warning -- This program may not be used in any manner that
 competes with the business of Gaussian, Inc. or will provide
 assistance to any competitor of Gaussian, Inc.  The licensee
 of this program is prohibited from giving any competitor of
 Gaussian, Inc. access to this program.  By using this program,
 the user acknowledges that Gaussian, Inc. is engaged in the
 business of creating and licensing software in the field of
 computational chemistry and represents and warrants to the
 licensee that it is not a competitor of Gaussian, Inc. and that
 it will not use this program in any manner prohibited above.
 ---------------------------------------------------------------
  

 Cite this work as:
 Gaussian 16, Revision A.03,
 M. J. Frisch, G. W. Trucks, H. B. Schlegel, G. E. Scuseria, 
 M. A. Robb, J. R. Cheeseman, G. Scalmani, V. Barone, 
 G. A. Petersson, H. Nakatsuji, X. Li, M. Caricato, A. V. Marenich, 
 J. Bloino, B. G. Janesko, R. Gomperts, B. Mennucci, H. P. Hratchian, 
 J. V. Ortiz, A. F. Izmaylov, J. L. Sonnenberg, D. Williams-Young, 
 F. Ding, F. Lipparini, F. Egidi, J. Goings, B. Peng, A. Petrone, 
 T. Henderson, D. Ranasinghe, V. G. Zakrzewski, J. Gao, N. Rega, 
 G. Zheng, W. Liang, M. Hada, M. Ehara, K. Toyota, R. Fukuda, 
 J. Hasegawa, M. Ishida, T. Nakajima, Y. Honda, O. Kitao, H. Nakai, 
 T. Vreven, K. Throssell, J. A. Montgomery, Jr., J. E. Peralta, 
 F. Ogliaro, M. J. Bearpark, J. J. Heyd, E. N. Brothers, K. N. Kudin, 
 V. N. Staroverov, T. A. Keith, R. Kobayashi, J. Normand, 
 K. Raghavachari, A. P. Rendell, J. C. Burant, S. S. Iyengar, 
 J. Tomasi, M. Cossi, J. M. Millam, M. Klene, C. Adamo, R. Cammi, 
 J. W. Ochterski, R. L. Martin, K. Morokuma, O. Farkas, 
 J. B. Foresman, and D. J. Fox, Gaussian, Inc., Wallingford CT, 2016.
 
 ******************************************
 Gaussian 16:  EM64M-G16RevA.03 25-Dec-2016
                24-Feb-2024 
 ******************************************
 %nprocshared=10
 Will use up to   10 processors via shared memory.
 %mem=12GB
 %chk= 1.chk
 ---------------------
 # freq b3lyp/6-31g(d)
 ---------------------
 1/10=4,30=1,38=1/1,3;
 2/12=2,17=6,18=5,40=1/2;
 3/5=1,6=6,7=1,11=2,25=1,30=1,71=2,74=-5,140=1/1,2,3;
 4//1;
 5/5=2,38=5,98=1/2;
 8/6=4,10=90,11=11/1;
 11/6=1,8=1,9=11,15=111,16=1/1,2,10;
 10/6=1/2;
 6/7=2,8=2,9=2,10=2,28=1/1;
 7/8=1,10=1,25=1/1,2,3,16;
 1/10=4,30=1/3;
 99//99;
 ---------
 good luck
 ---------
 Symbolic Z-matrix:
 Charge =  0 Multiplicity = 1
 O                     1.21742   0.        0. 
 C                     0.        0.        0. 
 C                    -0.83236  -1.28429  -0.00488 
 C                     0.05101  -2.53955  -0.06129 
 C                    -0.68087  -3.85215   0.24899 
 C                     0.25848  -5.06321   0.24844 
 C                    -1.88749  -1.21215  -1.13942 
 C                    -2.77447   0.05064  -1.0713 
 C                    -3.95144   0.06517  -2.1105 
 C                    -4.82332   1.32152  -1.89161 
 C                    -4.85681  -1.16764  -1.89335 
 C                    -3.44875   0.05941  -3.56897 
 C                    -1.86726   1.2977   -1.12656 
 C                    -0.8089    1.28828  -0.00488 
 H                    -1.38631  -1.28329   0.95042 
 H                     0.52141  -2.60225  -1.05261 
 H                     0.8782   -2.40892   0.64634 
 H                    -1.17089  -3.77187   1.23043 
 H                    -1.48487  -4.0232   -0.47931 
 H                    -0.28186  -5.98906   0.47649 
 H                     1.0538   -4.94693   0.99454 
 H                     0.73991  -5.18985  -0.72892 
 H                    -2.50294  -2.11483  -1.09275 
 H                    -1.35926  -1.24373  -2.10306 
 H                    -3.25856   0.04992  -0.07987 
 H                    -5.16205   1.39526  -0.85029 
 H                    -4.29267   2.24637  -2.13982 
 H                    -5.71546   1.28004  -2.52765 
 H                    -4.35281  -2.10588  -2.14664 
 H                    -5.74927  -1.0994   -2.52662 
 H                    -5.19447  -1.23601  -0.85135 
 H                    -2.85709  -0.83457  -3.79539 
 H                    -4.29942   0.0712   -4.26111 
 H                    -2.83351   0.93755  -3.79467 
 H                    -2.45338   2.21834  -1.0441 
 H                    -1.35264   1.33897  -2.09589 
 H                    -1.317     1.37281   0.96791 
 H                    -0.11757   2.13173  -0.09287 
 

 GradGradGradGradGradGradGradGradGradGradGradGradGradGradGradGradGradGrad
 Berny optimization.
 Initialization pass.
 Trust Radius=3.00D-01 FncErr=1.00D-07 GrdErr=1.00D-07 EigMax=2.50D+02 EigMin=1.00D-04
 Number of steps in this run=      2 maximum allowed number of steps=      2.
 GradGradGradGradGradGradGradGradGradGradGradGradGradGradGradGradGradGrad

                          Input orientation:                          
 ---------------------------------------------------------------------
 Center     Atomic      Atomic             Coordinates (Angstroms)
 Number     Number       Type             X           Y           Z
 ---------------------------------------------------------------------
      1          8           0        1.217424    0.000000    0.000000
      2          6           0        0.000000    0.000000    0.000000
      3          6           0       -0.832357   -1.284286   -0.004877
      4          6           0        0.051011   -2.539552   -0.061287
      5          6           0       -0.680869   -3.852153    0.248994
      6          6           0        0.258475   -5.063210    0.248438
      7          6           0       -1.887487   -1.212153   -1.139421
      8          6           0       -2.774473    0.050642   -1.071296
      9          6           0       -3.951438    0.065169   -2.110502
     10          6           0       -4.823324    1.321524   -1.891609
     11          6           0       -4.856813   -1.167640   -1.893352
     12          6           0       -3.448748    0.059412   -3.568967
     13          6           0       -1.867263    1.297697   -1.126562
     14          6           0       -0.808902    1.288284   -0.004877
     15          1           0       -1.386309   -1.283291    0.950419
     16          1           0        0.521410   -2.602249   -1.052612
     17          1           0        0.878199   -2.408919    0.646336
     18          1           0       -1.170894   -3.771873    1.230433
     19          1           0       -1.484871   -4.023204   -0.479305
     20          1           0       -0.281863   -5.989060    0.476485
     21          1           0        1.053795   -4.946931    0.994542
     22          1           0        0.739906   -5.189846   -0.728924
     23          1           0       -2.502936   -2.114831   -1.092748
     24          1           0       -1.359257   -1.243733   -2.103062
     25          1           0       -3.258565    0.049918   -0.079872
     26          1           0       -5.162048    1.395255   -0.850286
     27          1           0       -4.292670    2.246368   -2.139819
     28          1           0       -5.715459    1.280043   -2.527654
     29          1           0       -4.352814   -2.105880   -2.146640
     30          1           0       -5.749266   -1.099399   -2.526621
     31          1           0       -5.194465   -1.236008   -0.851347
     32          1           0       -2.857090   -0.834565   -3.795386
     33          1           0       -4.299420    0.071203   -4.261113
     34          1           0       -2.833505    0.937548   -3.794674
     35          1           0       -2.453383    2.218343   -1.044104
     36          1           0       -1.352635    1.338967   -2.095888
     37          1           0       -1.317002    1.372806    0.967907
     38          1           0       -0.117573    2.131729   -0.092866
 ---------------------------------------------------------------------
                    Distance matrix (angstroms):
                    1          2          3          4          5
     1  O    0.000000
     2  C    1.217424   0.000000
     3  C    2.418887   1.530435   0.000000
     4  C    2.795282   2.540804   1.535973   0.000000
     5  C    4.301697   3.919778   2.584829   1.534550   0.000000
     6  C    5.159205   5.075887   3.941364   2.551043   1.532653
     7  C    3.522509   2.515989   1.551030   2.584983   3.217642
     8  C    4.133459   2.974549   2.586715   3.963910   4.621488
     9  C    5.583511   4.480215   3.997918   5.196485   5.622211
    10  C    6.466471   5.346874   5.126190   6.482062   6.964844
    11  C    6.468734   5.341984   4.447043   5.415288   5.406918
    12  C    5.874880   4.963358   4.621013   5.595243   6.126852
    13  C    3.531070   2.537682   2.999307   4.420302   5.460828
    14  C    2.401186   1.521191   2.572677   3.923641   5.148294
    15  H    3.054432   2.114707   1.104289   2.160470   2.754759
    16  H    2.892080   2.855094   2.160431   1.099059   2.168389
    17  H    2.517085   2.644215   2.148227   1.096374   2.161365
    18  H    4.630880   4.136663   2.797979   2.163379   1.099905
    19  H    4.870144   4.315176   2.855263   2.175982   1.098225
    20  H    6.192232   6.014593   4.761266   3.507009   2.185710
    21  H    5.048566   5.154777   4.239266   2.813507   2.182531
    22  H    5.262495   5.292759   4.271961   2.818577   2.182739
    23  H    4.416751   3.454171   2.159653   2.786924   2.852803
    24  H    3.550919   2.795947   2.163712   2.799437   3.577182
    25  H    4.476980   3.259926   2.769875   4.202261   4.688158
    26  H    6.585392   5.414468   5.161480   6.578846   6.987465
    27  H    6.323459   5.296415   5.384910   6.789174   7.479538
    28  H    7.489487   6.379186   6.065053   7.343327   7.706900
    29  H    6.330114   5.290537   4.201879   4.891875   4.719291
    30  H    7.491813   6.375465   5.528957   6.464915   6.400808
    31  H    6.585198   5.406938   4.443740   5.462457   5.331746
    32  H    5.630552   4.823320   4.320851   5.030659   5.495342
    33  H    6.971207   6.053690   5.654505   6.586413   6.987682
    34  H    5.629260   4.827763   4.827391   5.860788   6.627694
    35  H    4.414298   3.468470   3.997015   5.465847   6.454830
    36  H    3.576420   2.831113   3.394771   4.599210   5.735631
    37  H    3.040519   2.134464   2.870771   4.270509   5.312410
    38  H    2.516964   2.136988   3.491105   4.674429   6.020051
                    6          7          8          9         10
     6  C    0.000000
     7  C    4.621898   0.000000
     8  C    6.090316   1.544680   0.000000
     9  C    7.041892   2.614277   1.570161   0.000000
    10  C    8.436191   3.950246   2.546732   1.544839   0.000000
    11  C    6.777086   3.063869   2.548750   1.544887   2.489390
    12  C    7.386294   3.155488   2.587100   1.542676   2.509166
    13  C    6.846205   2.509964   1.543124   2.613627   3.053549
    14  C    6.445536   2.950037   2.555871   3.975575   4.435814
    15  H    4.181612   2.150272   2.791721   4.215148   5.164809
    16  H    2.796104   2.782568   4.230960   5.314190   6.683270
    17  H    2.754567   3.502884   4.726702   6.086597   7.270814
    18  H    2.162166   3.561163   4.741418   5.797945   7.002149
    19  H    2.156497   2.915452   4.313902   5.045746   6.458017
    20  H    1.095978   5.292260   6.714665   7.537372   8.926218
    21  H    1.096689   5.210902   6.625636   7.734003   9.064432
    22  H    1.096836   4.784741   6.319082   7.178624   8.642876
    23  H    4.256420   1.093519   2.182537   2.808270   4.222667
    24  H    4.768125   1.099376   2.177793   2.903908   4.315671
    25  H    6.214615   2.143670   1.103298   2.145638   2.710691
    26  H    8.503001   4.195822   2.749062   2.196099   1.097508
    27  H    8.935694   4.329789   2.875391   2.207924   1.094778
    28  H    9.145022   4.774055   3.504540   2.182133   1.096439
    29  H    5.978811   2.809106   2.880644   2.208136   3.468936
    30  H    7.713994   4.104921   3.505704   2.182100   2.668610
    31  H    6.752152   3.319587   2.749583   2.196281   2.785832
    32  H    6.628778   2.852517   2.865499   2.201353   3.484130
    33  H    8.214174   4.148420   3.535650   2.178590   2.729895
    34  H    7.868684   3.544931   2.864764   2.201648   2.780013
    35  H    7.876919   3.478164   2.191521   2.831525   2.671922
    36  H    7.005670   2.776528   2.175131   2.894227   3.476739
    37  H    6.664988   3.383533   2.833847   4.257554   4.524793
    38  H    7.212839   3.925483   3.513882   4.800005   5.102548
                   11         12         13         14         15
    11  C    0.000000
    12  C    2.509181   0.000000
    13  C    3.950097   3.162244   0.000000
    14  C    5.097400   4.602353   1.542204   0.000000
    15  H    4.488297   5.146004   3.347636   2.803389   0.000000
    16  H    5.629408   5.401725   4.573927   4.243080   3.064502
    17  H    6.393837   6.525635   4.941632   4.115786   2.547057
    18  H    5.488721   6.549932   5.633906   5.221323   2.513534
    19  H    4.639371   5.483665   5.373747   5.375307   3.092078
    20  H    7.056372   7.935922   7.627587   7.312265   4.856818
    21  H    7.586716   8.134001   7.212977   6.583797   4.402080
    22  H    6.989800   7.291459   7.003118   6.699942   4.754172
    23  H    2.660615   3.428346   3.471393   3.954037   2.472417
    24  H    3.504664   2.865840   2.769565   3.334124   3.053857
    25  H    2.706576   3.494287   2.142016   2.745910   2.518787
    26  H    2.783808   3.480101   3.307787   4.435768   4.967228
    27  H    3.469071   2.745441   2.794506   4.196730   5.518605
    28  H    2.670349   2.777094   4.095361   5.517135   6.116307
    29  H    1.094744   2.743873   4.336226   5.354140   4.366758
    30  H    1.096430   2.778797   4.772440   6.038826   5.582026
    31  H    1.097478   3.480100   4.191143   5.130470   4.213152
    32  H    2.779850   1.095682   3.556532   4.803074   4.988709
    33  H    2.729782   1.096744   4.152720   5.637424   6.122168
    34  H    3.484339   1.095715   2.860446   4.310985   5.435293
    35  H    4.238228   3.467949   1.094498   2.156228   4.168718
    36  H    4.313162   2.863724   1.098243   2.161144   4.019622
    37  H    5.212574   5.181947   2.166848   1.100735   2.657059
    38  H    6.048800   5.241613   2.196714   1.094110   3.789525
                   16         17         18         19         20
    16  H    0.000000
    17  H    1.746740   0.000000
    18  H    3.073143   2.529347   0.000000
    19  H    2.524472   3.075237   1.756403   0.000000
    20  H    3.801825   3.767227   2.504941   2.495066   0.000000
    21  H    3.157817   2.567798   2.526984   3.077389   1.771552
    22  H    2.616901   3.105482   3.082350   2.524479   1.770809
    23  H    3.063634   3.813525   3.149174   2.248256   4.733425
    24  H    2.546747   3.731361   4.187978   3.221463   5.507537
    25  H    4.718943   4.866834   4.547676   4.460478   6.755704
    26  H    6.951451   7.293573   6.852584   6.558884   8.950119
    27  H    6.918560   7.494814   7.571216   7.067431   9.526484
    28  H    7.493095   8.195058   7.765188   7.086469   9.559742
    29  H    5.020094   5.937680   4.929987   3.831610   6.207456
    30  H    6.614578   7.463631   6.497620   5.561043   7.925902
    31  H    5.880336   6.363649   5.191680   4.654886   6.963354
    32  H    4.696997   6.013308   6.060519   4.800708   7.172830
    33  H    6.378262   7.552602   7.396890   6.244031   8.678271
    34  H    5.595044   6.685668   7.084816   6.117152   8.528281
    35  H    5.664589   5.947149   6.534599   6.341445   8.624915
    36  H    4.487054   5.151996   6.100666   5.602116   7.839875
    37  H    4.823206   4.384491   5.153444   5.589233   7.450509
    38  H    4.872367   4.706959   6.141101   6.316806   8.142381
                   21         22         23         24         25
    21  H    0.000000
    22  H    1.768578   0.000000
    23  H    5.002790   4.483761   0.000000
    24  H    5.397374   4.676168   1.757142   0.000000
    25  H    6.687250   6.623003   2.506598   3.061732   0.000000
    26  H    9.069918   8.843718   4.410257   4.795302   2.454937
    27  H    9.494865   9.089264   4.829033   4.559284   3.183889
    28  H    9.849054   9.314861   4.889216   5.052348   3.679833
    29  H    6.868043   6.120177   2.129041   3.115538   3.180625
    30  H    8.572265   7.878631   3.691308   4.412756   3.675745
    31  H    7.497934   7.131941   2.841643   4.034312   2.448773
    32  H    7.426304   6.427289   3.011438   2.296711   3.840382
    33  H    9.025546   8.096283   4.247898   3.876957   4.308899
    34  H    8.524951   7.727422   4.089829   3.129368   3.842957
    35  H    8.233925   8.073271   4.333730   3.782126   2.506018
    36  H    7.406361   6.990902   3.776004   2.582718   3.059173
    37  H    6.749849   7.083679   4.220942   4.034713   2.572458
    38  H    7.256858   7.399007   4.972222   4.120244   3.768280
                   26         27         28         29         30
    26  H    0.000000
    27  H    1.772881   0.000000
    28  H    1.770057   1.763102   0.000000
    29  H    3.820123   4.352669   3.669666   0.000000
    30  H    3.062388   3.669529   2.379682   1.762801   0.000000
    31  H    2.631463   3.821039   3.067891   1.772805   1.770031
    32  H    4.354141   3.780733   3.774783   2.563551   3.169319
    33  H    3.759120   3.038302   2.543883   3.035381   2.545746
    34  H    3.781670   2.565291   3.166749   3.779784   3.776079
    35  H    2.837588   2.141110   3.704385   4.849982   4.905926
    36  H    4.008281   3.077192   4.384533   4.568437   5.045941
    37  H    4.253317   4.390407   5.619072   5.569364   6.161857
    38  H    5.153912   4.651300   6.163594   6.333450   6.933925
                   31         32         33         34         35
    31  H    0.000000
    32  H    3.780456   0.000000
    33  H    3.759842   1.765682   0.000000
    34  H    4.354498   1.772270   1.765510   0.000000
    35  H    4.413981   4.129501   4.285698   3.057869   0.000000
    36  H    4.789471   3.142598   3.870267   2.289102   1.758180
    37  H    5.015009   5.471135   6.158867   5.017112   2.460586
    38  H    6.139363   5.478367   6.253631   4.744021   2.523562
                   36         37         38
    36  H    0.000000
    37  H    3.064189   0.000000
    38  H    2.483132   1.771958   0.000000
 Stoichiometry    C13H24O
 Framework group  C1[X(C13H24O)]
 Deg. of freedom   108
 Full point group                 C1      NOp   1
 Largest Abelian subgroup         C1      NOp   1
 Largest concise Abelian subgroup C1      NOp   1
                         Standard orientation:                         
 ---------------------------------------------------------------------
 Center     Atomic      Atomic             Coordinates (Angstroms)
 Number     Number       Type             X           Y           Z
 ---------------------------------------------------------------------
      1          8           0       -1.927857    2.580223    0.514392
      2          6           0       -1.086926    1.895338   -0.038679
      3          6           0       -1.294075    0.410751   -0.347426
      4          6           0       -2.648668   -0.098171    0.167639
      5          6           0       -3.064658   -1.472239   -0.374331
      6          6           0       -4.452577   -1.901191    0.114247
      7          6           0       -0.081479   -0.400756    0.178653
      8          6           0        1.275668    0.114921   -0.348856
      9          6           0        2.500304   -0.787557    0.039996
     10          6           0        3.784653   -0.231940   -0.614421
     11          6           0        2.288960   -2.218727   -0.502003
     12          6           0        2.714841   -0.862748    1.565831
     13          6           0        1.431696    1.597614    0.049273
     14          6           0        0.260139    2.457399   -0.467077
     15          1           0       -1.281089    0.331404   -1.448784
     16          1           0       -2.627642   -0.123330    1.266209
     17          1           0       -3.414567    0.641919   -0.092556
     18          1           0       -3.057562   -1.446619   -1.473915
     19          1           0       -2.331434   -2.236244   -0.083166
     20          1           0       -4.732910   -2.881730   -0.287157
     21          1           0       -5.220140   -1.181050   -0.193924
     22          1           0       -4.483614   -1.967300    1.208649
     23          1           0       -0.225487   -1.449188   -0.096732
     24          1           0       -0.092135   -0.362077    1.277297
     25          1           0        1.225346    0.082271   -1.450523
     26          1           0        3.660030   -0.111866   -1.698200
     27          1           0        4.078877    0.737470   -0.199433
     28          1           0        4.622094   -0.920752   -0.451910
     29          1           0        1.466250   -2.738192   -0.000237
     30          1           0        3.192523   -2.820317   -0.347662
     31          1           0        2.076588   -2.210205   -1.578703
     32          1           0        1.848188   -1.291401    2.081280
     33          1           0        3.577905   -1.499721    1.794377
     34          1           0        2.913401    0.122782    2.001600
     35          1           0        2.366602    2.015575   -0.336971
     36          1           0        1.477111    1.684847    1.143104
     37          1           0        0.285665    2.474107   -1.567390
     38          1           0        0.331588    3.491686   -0.117474
 ---------------------------------------------------------------------
 Rotational constants (GHZ):           0.9054486           0.4002324           0.3050161
 Standard basis: 6-31G(d) (6D, 7F)
 There are   258 symmetry adapted cartesian basis functions of A   symmetry.
 There are   258 symmetry adapted basis functions of A   symmetry.
   258 basis functions,   488 primitive gaussians,   258 cartesian basis functions
    55 alpha electrons       55 beta electrons
       nuclear repulsion energy       963.8091350718 Hartrees.
 NAtoms=   38 NActive=   38 NUniq=   38 SFac= 1.00D+00 NAtFMM=   60 NAOKFM=F Big=F
 Integral buffers will be    131072 words long.
 Raffenetti 2 integral format.
 Two-electron integral symmetry is turned on.
 One-electron integrals computed using PRISM.
 NBasis=   258 RedAO= T EigKep=  2.30D-03  NBF=   258
 NBsUse=   258 1.00D-06 EigRej= -1.00D+00 NBFU=   258
 ExpMin= 1.61D-01 ExpMax= 5.48D+03 ExpMxC= 8.25D+02 IAcc=3 IRadAn=         5 AccDes= 0.00D+00
 Harris functional with IExCor=  402 and IRadAn=       5 diagonalized for initial guess.
 HarFok:  IExCor=  402 AccDes= 0.00D+00 IRadAn=         5 IDoV= 1 UseB2=F ITyADJ=14
 ICtDFT=  3500011 ScaDFX=  1.000000  1.000000  1.000000  1.000000
 FoFCou: FMM=F IPFlag=           0 FMFlag=      100000 FMFlg1=           0
         NFxFlg=           0 DoJE=T BraDBF=F KetDBF=T FulRan=T
         wScrn=  0.000000 ICntrl=       500 IOpCl=  0 I1Cent=   200000004 NGrid=           0
         NMat0=    1 NMatS0=      1 NMatT0=    0 NMatD0=    1 NMtDS0=    0 NMtDT0=    0
 Petite list used in FoFCou.
 Requested convergence on RMS density matrix=1.00D-08 within 128 cycles.
 Requested convergence on MAX density matrix=1.00D-06.
 Requested convergence on             energy=1.00D-06.
 No special actions if energy rises.
 Integral accuracy reduced to 1.0D-05 until final iterations.
 Initial convergence to 1.0D-05 achieved.  Increase integral accuracy.
 SCF Done:  E(RB3LYP) =  -585.081634247     A.U. after   13 cycles
            NFock= 13  Conv=0.87D-08     -V/T= 2.0099
 DoSCS=F DFT=T ScalE2(SS,OS)=  1.000000  1.000000
 Range of M.O.s used for correlation:     1   258
 NBasis=   258 NAE=    55 NBE=    55 NFC=     0 NFV=     0
 NROrb=    258 NOA=    55 NOB=    55 NVA=   203 NVB=   203
 Symmetrizing basis deriv contribution to polar:
 IMax=3 JMax=2 DiffMx= 0.00D+00
 G2DrvN: will do    39 centers at a time, making    1 passes.
 Calling FoFCou, ICntrl=  3107 FMM=F I1Cent=   0 AccDes= 0.00D+00.
 End of G2Drv F.D. properties file   721 does not exist.
 End of G2Drv F.D. properties file   722 does not exist.
 End of G2Drv F.D. properties file   788 does not exist.
          IDoAtm=11111111111111111111111111111111111111
          Differentiating once with respect to electric field.
                with respect to dipole field.
          Differentiating once with respect to nuclear coordinates.
 Keep R1 ints in memory in canonical form, NReq=569063409.
          There are   117 degrees of freedom in the 1st order CPHF.  IDoFFX=6 NUNeed=     3.
    114 vectors produced by pass  0 Test12= 1.12D-14 1.00D-09 XBig12= 9.09D+01 2.02D+00.
 AX will form   114 AO Fock derivatives at one time.
    114 vectors produced by pass  1 Test12= 1.12D-14 1.00D-09 XBig12= 1.04D+01 8.80D-01.
    114 vectors produced by pass  2 Test12= 1.12D-14 1.00D-09 XBig12= 6.15D-02 2.52D-02.
    114 vectors produced by pass  3 Test12= 1.12D-14 1.00D-09 XBig12= 1.41D-04 1.22D-03.
    114 vectors produced by pass  4 Test12= 1.12D-14 1.00D-09 XBig12= 1.20D-07 2.54D-05.
     46 vectors produced by pass  5 Test12= 1.12D-14 1.00D-09 XBig12= 7.47D-11 8.61D-07.
      3 vectors produced by pass  6 Test12= 1.12D-14 1.00D-09 XBig12= 4.65D-14 2.09D-08.
 InvSVY:  IOpt=1 It=  1 EMax= 7.11D-15
 Solved reduced A of dimension   619 with   117 vectors.
 Isotropic polarizability for W=    0.000000      136.12 Bohr**3.
 End of Minotr F.D. properties file   721 does not exist.
 End of Minotr F.D. properties file   722 does not exist.
 End of Minotr F.D. properties file   788 does not exist.

 **********************************************************************

            Population analysis using the SCF density.

 **********************************************************************

 Orbital symmetries:
       Occupied  (A) (A) (A) (A) (A) (A) (A) (A) (A) (A) (A) (A)
                 (A) (A) (A) (A) (A) (A) (A) (A) (A) (A) (A) (A)
                 (A) (A) (A) (A) (A) (A) (A) (A) (A) (A) (A) (A)
                 (A) (A) (A) (A) (A) (A) (A) (A) (A) (A) (A) (A)
                 (A) (A) (A) (A) (A) (A) (A)
       Virtual   (A) (A) (A) (A) (A) (A) (A) (A) (A) (A) (A) (A)
                 (A) (A) (A) (A) (A) (A) (A) (A) (A) (A) (A) (A)
                 (A) (A) (A) (A) (A) (A) (A) (A) (A) (A) (A) (A)
                 (A) (A) (A) (A) (A) (A) (A) (A) (A) (A) (A) (A)
                 (A) (A) (A) (A) (A) (A) (A) (A) (A) (A) (A) (A)
                 (A) (A) (A) (A) (A) (A) (A) (A) (A) (A) (A) (A)
                 (A) (A) (A) (A) (A) (A) (A) (A) (A) (A) (A) (A)
                 (A) (A) (A) (A) (A) (A) (A) (A) (A) (A) (A) (A)
                 (A) (A) (A) (A) (A) (A) (A) (A) (A) (A) (A) (A)
                 (A) (A) (A) (A) (A) (A) (A) (A) (A) (A) (A) (A)
                 (A) (A) (A) (A) (A) (A) (A) (A) (A) (A) (A) (A)
                 (A) (A) (A) (A) (A) (A) (A) (A) (A) (A) (A) (A)
                 (A) (A) (A) (A) (A) (A) (A) (A) (A) (A) (A) (A)
                 (A) (A) (A) (A) (A) (A) (A) (A) (A) (A) (A) (A)
                 (A) (A) (A) (A) (A) (A) (A) (A) (A) (A) (A) (A)
                 (A) (A) (A) (A) (A) (A) (A) (A) (A) (A) (A) (A)
                 (A) (A) (A) (A) (A) (A) (A) (A) (A) (A) (A)
 The electronic state is 1-A.
 Alpha  occ. eigenvalues --  -19.13198 -10.26454 -10.20198 -10.19342 -10.19307
 Alpha  occ. eigenvalues --  -10.18952 -10.18829 -10.18711 -10.17954 -10.17508
 Alpha  occ. eigenvalues --  -10.17506 -10.17483 -10.17416 -10.17116  -1.03048
 Alpha  occ. eigenvalues --   -0.84558  -0.80765  -0.78442  -0.74723  -0.71601
 Alpha  occ. eigenvalues --   -0.68686  -0.68620  -0.66497  -0.61682  -0.60154
 Alpha  occ. eigenvalues --   -0.57456  -0.53069  -0.52599  -0.47379  -0.46706
 Alpha  occ. eigenvalues --   -0.45886  -0.44598  -0.44208  -0.43799  -0.42841
 Alpha  occ. eigenvalues --   -0.41916  -0.41818  -0.40656  -0.39286  -0.38225
 Alpha  occ. eigenvalues --   -0.37872  -0.37408  -0.37118  -0.36224  -0.35312
 Alpha  occ. eigenvalues --   -0.34616  -0.34379  -0.33832  -0.33084  -0.32593
 Alpha  occ. eigenvalues --   -0.32255  -0.31527  -0.30321  -0.29726  -0.23256
 Alpha virt. eigenvalues --   -0.01044   0.07640   0.09172   0.09654   0.11165
 Alpha virt. eigenvalues --    0.11635   0.12218   0.12736   0.13265   0.14184
 Alpha virt. eigenvalues --    0.14389   0.15229   0.15910   0.16451   0.16609
 Alpha virt. eigenvalues --    0.16881   0.17931   0.18522   0.18695   0.19312
 Alpha virt. eigenvalues --    0.19677   0.19969   0.21346   0.21641   0.21862
 Alpha virt. eigenvalues --    0.22833   0.23309   0.24160   0.24422   0.25288
 Alpha virt. eigenvalues --    0.26010   0.26247   0.27251   0.28101   0.28880
 Alpha virt. eigenvalues --    0.30114   0.31592   0.34816   0.37841   0.49411
 Alpha virt. eigenvalues --    0.49938   0.50068   0.50682   0.52382   0.52549
 Alpha virt. eigenvalues --    0.53232   0.55091   0.55600   0.56097   0.58355
 Alpha virt. eigenvalues --    0.60290   0.61015   0.61941   0.62919   0.64106
 Alpha virt. eigenvalues --    0.65046   0.66142   0.68075   0.69223   0.70060
 Alpha virt. eigenvalues --    0.70141   0.71506   0.72509   0.74398   0.74892
 Alpha virt. eigenvalues --    0.77371   0.78602   0.79351   0.81405   0.83909
 Alpha virt. eigenvalues --    0.84202   0.85417   0.85463   0.85894   0.86713
 Alpha virt. eigenvalues --    0.87529   0.87881   0.88631   0.89311   0.89913
 Alpha virt. eigenvalues --    0.90827   0.91014   0.91493   0.92164   0.92253
 Alpha virt. eigenvalues --    0.92551   0.93106   0.93337   0.95020   0.95339
 Alpha virt. eigenvalues --    0.96194   0.97623   0.98137   0.99003   0.99610
 Alpha virt. eigenvalues --    0.99949   1.01068   1.02544   1.03472   1.06006
 Alpha virt. eigenvalues --    1.08046   1.09743   1.14000   1.15311   1.15550
 Alpha virt. eigenvalues --    1.20986   1.23156   1.25968   1.32444   1.35493
 Alpha virt. eigenvalues --    1.38567   1.42401   1.43893   1.45661   1.49117
 Alpha virt. eigenvalues --    1.49709   1.54677   1.55164   1.57489   1.60067
 Alpha virt. eigenvalues --    1.61625   1.66493   1.68109   1.69678   1.71949
 Alpha virt. eigenvalues --    1.73003   1.74660   1.75795   1.78632   1.80691
 Alpha virt. eigenvalues --    1.81984   1.84142   1.84589   1.86056   1.87613
 Alpha virt. eigenvalues --    1.87931   1.89571   1.91879   1.93171   1.93789
 Alpha virt. eigenvalues --    1.95739   1.96208   1.97705   1.98242   2.01076
 Alpha virt. eigenvalues --    2.03804   2.04365   2.05337   2.06317   2.07268
 Alpha virt. eigenvalues --    2.07597   2.09554   2.10757   2.14656   2.17309
 Alpha virt. eigenvalues --    2.17625   2.19982   2.23632   2.24863   2.25864
 Alpha virt. eigenvalues --    2.26781   2.27286   2.28973   2.30295   2.33188
 Alpha virt. eigenvalues --    2.35409   2.35999   2.37157   2.39557   2.43042
 Alpha virt. eigenvalues --    2.44219   2.47944   2.51221   2.54256   2.56028
 Alpha virt. eigenvalues --    2.58470   2.61225   2.62625   2.65780   2.67893
 Alpha virt. eigenvalues --    2.69799   2.70772   2.75894   2.79756   2.82573
 Alpha virt. eigenvalues --    2.86430   2.89937   2.99334   3.05647   4.01801
 Alpha virt. eigenvalues --    4.10987   4.16168   4.23059   4.28211   4.30716
 Alpha virt. eigenvalues --    4.31111   4.34316   4.38480   4.50857   4.58322
 Alpha virt. eigenvalues --    4.59245   4.65503   4.71782
          Condensed to atoms (all electrons):
               1          2          3          4          5          6
     1  O    8.010613   0.583255  -0.093362   0.004008   0.000618   0.000001
     2  C    0.583255   4.521152   0.288950  -0.028693   0.004166  -0.000081
     3  C   -0.093362   0.288950   5.286414   0.349196  -0.030809   0.003319
     4  C    0.004008  -0.028693   0.349196   5.013880   0.364492  -0.044071
     5  C    0.000618   0.004166  -0.030809   0.364492   4.986259   0.373591
     6  C    0.000001  -0.000081   0.003319  -0.044071   0.373591   5.063346
     7  C    0.000555  -0.022421   0.340081  -0.038665  -0.004673   0.000134
     8  C    0.000161  -0.013210  -0.026767   0.003236   0.000149  -0.000001
     9  C    0.000001   0.000322   0.003211  -0.000094   0.000003  -0.000000
    10  C   -0.000000  -0.000007  -0.000098   0.000001   0.000000   0.000000
    11  C   -0.000000  -0.000006   0.000167   0.000003  -0.000008   0.000000
    12  C   -0.000000  -0.000032   0.000178  -0.000000  -0.000000   0.000000
    13  C    0.000986  -0.028192  -0.001804  -0.000063  -0.000013   0.000000
    14  C   -0.074694   0.347865  -0.136591   0.005952  -0.000063   0.000001
    15  H    0.001250  -0.036316   0.351668  -0.041564  -0.004874   0.000042
    16  H    0.002292  -0.003931  -0.036944   0.372097  -0.040785  -0.002554
    17  H    0.009288  -0.003131  -0.039030   0.373105  -0.040348  -0.003254
    18  H    0.000001   0.000008  -0.004020  -0.041202   0.375070  -0.038228
    19  H   -0.000010  -0.000050  -0.004738  -0.035690   0.371709  -0.038191
    20  H    0.000000   0.000001  -0.000124   0.004070  -0.027788   0.371330
    21  H   -0.000003  -0.000005   0.000003  -0.003850  -0.034743   0.377931
    22  H   -0.000000  -0.000001   0.000096  -0.004079  -0.034918   0.378023
    23  H   -0.000067   0.003164  -0.032353  -0.004096   0.001968  -0.000154
    24  H    0.000451  -0.004994  -0.042709  -0.003085  -0.000252  -0.000020
    25  H   -0.000011  -0.002726  -0.003402   0.000080  -0.000019  -0.000000
    26  H   -0.000000  -0.000000  -0.000003   0.000000   0.000000   0.000000
    27  H   -0.000000  -0.000004  -0.000001   0.000000   0.000000   0.000000
    28  H   -0.000000   0.000000   0.000001  -0.000000   0.000000  -0.000000
    29  H   -0.000000  -0.000004  -0.000053   0.000009  -0.000014   0.000000
    30  H   -0.000000   0.000000  -0.000001  -0.000000  -0.000000   0.000000
    31  H   -0.000000  -0.000000  -0.000053   0.000000   0.000001  -0.000000
    32  H   -0.000000  -0.000001  -0.000042   0.000006   0.000000  -0.000000
    33  H    0.000000   0.000000  -0.000001  -0.000000   0.000000  -0.000000
    34  H   -0.000000  -0.000003  -0.000011   0.000000   0.000000  -0.000000
    35  H   -0.000063   0.003394  -0.000238   0.000010   0.000000  -0.000000
    36  H    0.000476  -0.003418   0.000505  -0.000044  -0.000001  -0.000000
    37  H    0.001347  -0.030171   0.003236  -0.000080  -0.000002  -0.000000
    38  H    0.005221  -0.024372   0.006832  -0.000150   0.000001  -0.000000
               7          8          9         10         11         12
     1  O    0.000555   0.000161   0.000001  -0.000000  -0.000000  -0.000000
     2  C   -0.022421  -0.013210   0.000322  -0.000007  -0.000006  -0.000032
     3  C    0.340081  -0.026767   0.003211  -0.000098   0.000167   0.000178
     4  C   -0.038665   0.003236  -0.000094   0.000001   0.000003  -0.000000
     5  C   -0.004673   0.000149   0.000003   0.000000  -0.000008  -0.000000
     6  C    0.000134  -0.000001  -0.000000   0.000000   0.000000   0.000000
     7  C    5.115131   0.366872  -0.033133   0.004352  -0.007178  -0.007456
     8  C    0.366872   4.971537   0.378560  -0.049755  -0.049638  -0.051255
     9  C   -0.033133   0.378560   4.756234   0.379851   0.380269   0.382433
    10  C    0.004352  -0.049755   0.379851   5.169225  -0.063220  -0.063804
    11  C   -0.007178  -0.049638   0.380269  -0.063220   5.169244  -0.063814
    12  C   -0.007456  -0.051255   0.382433  -0.063804  -0.063814   5.161375
    13  C   -0.046750   0.374514  -0.034041  -0.006895   0.004484  -0.007645
    14  C   -0.005565  -0.034894   0.003566   0.000149  -0.000120   0.000170
    15  H   -0.045113  -0.002722   0.000002  -0.000005  -0.000016   0.000003
    16  H   -0.007820   0.000108  -0.000001   0.000000   0.000000  -0.000003
    17  H    0.004628  -0.000118   0.000001  -0.000000  -0.000000   0.000000
    18  H   -0.000405  -0.000023   0.000000  -0.000000   0.000000  -0.000000
    19  H    0.001181  -0.000048   0.000007  -0.000000  -0.000024   0.000000
    20  H    0.000002  -0.000000   0.000000  -0.000000   0.000000   0.000000
    21  H   -0.000001   0.000000   0.000000  -0.000000  -0.000000  -0.000000
    22  H   -0.000013  -0.000000   0.000000  -0.000000  -0.000000   0.000000
    23  H    0.366302  -0.031532  -0.006116   0.000081   0.003640  -0.000375
    24  H    0.365475  -0.036571  -0.005380   0.000018  -0.000381   0.002525
    25  H   -0.051782   0.363945  -0.040299  -0.007081  -0.007276   0.006322
    26  H    0.000034  -0.005371  -0.029952   0.365297  -0.004012   0.005847
    27  H   -0.000048  -0.005669  -0.027199   0.366354   0.005731  -0.005060
    28  H   -0.000114   0.004876  -0.027927   0.364966  -0.006967  -0.004131
    29  H    0.000415  -0.005488  -0.027366   0.005723   0.366042  -0.005065
    30  H    0.000269   0.004867  -0.028000  -0.007023   0.364566  -0.004082
    31  H   -0.000621  -0.005448  -0.029837  -0.003982   0.365428   0.005838
    32  H    0.002051  -0.005761  -0.028475   0.005621  -0.004786   0.367398
    33  H    0.000067   0.005276  -0.029618  -0.005165  -0.005181   0.367334
    34  H   -0.000048  -0.005614  -0.028494  -0.004779   0.005630   0.367297
    35  H    0.005318  -0.031614  -0.006055   0.003125   0.000065  -0.000255
    36  H   -0.007238  -0.037247  -0.005618  -0.000392   0.000020   0.002654
    37  H   -0.001290  -0.004003  -0.000009  -0.000014  -0.000004   0.000003
    38  H   -0.000183   0.003684  -0.000096   0.000000   0.000001   0.000001
              13         14         15         16         17         18
     1  O    0.000986  -0.074694   0.001250   0.002292   0.009288   0.000001
     2  C   -0.028192   0.347865  -0.036316  -0.003931  -0.003131   0.000008
     3  C   -0.001804  -0.136591   0.351668  -0.036944  -0.039030  -0.004020
     4  C   -0.000063   0.005952  -0.041564   0.372097   0.373105  -0.041202
     5  C   -0.000013  -0.000063  -0.004874  -0.040785  -0.040348   0.375070
     6  C    0.000000   0.000001   0.000042  -0.002554  -0.003254  -0.038228
     7  C   -0.046750  -0.005565  -0.045113  -0.007820   0.004628  -0.000405
     8  C    0.374514  -0.034894  -0.002722   0.000108  -0.000118  -0.000023
     9  C   -0.034041   0.003566   0.000002  -0.000001   0.000001   0.000000
    10  C   -0.006895   0.000149  -0.000005   0.000000  -0.000000  -0.000000
    11  C    0.004484  -0.000120  -0.000016   0.000000  -0.000000   0.000000
    12  C   -0.007645   0.000170   0.000003  -0.000003   0.000000  -0.000000
    13  C    5.079215   0.330890  -0.001792  -0.000038  -0.000013   0.000001
    14  C    0.330890   5.288360   0.002121   0.000081   0.000553  -0.000002
    15  H   -0.001792   0.002121   0.622572   0.005963  -0.001779   0.006170
    16  H   -0.000038   0.000081   0.005963   0.601291  -0.034858   0.005808
    17  H   -0.000013   0.000553  -0.001779  -0.034858   0.578463  -0.004728
    18  H    0.000001  -0.000002   0.006170   0.005808  -0.004728   0.616394
    19  H    0.000000  -0.000001  -0.000219  -0.005288   0.005358  -0.041045
    20  H   -0.000000  -0.000000  -0.000001  -0.000047  -0.000006  -0.002763
    21  H   -0.000000  -0.000000   0.000004  -0.000392   0.004868  -0.004529
    22  H    0.000000  -0.000000   0.000010   0.004561  -0.000396   0.005257
    23  H    0.005244  -0.000242  -0.006318  -0.000243  -0.000053   0.000355
    24  H   -0.007609   0.000513   0.006451   0.006058   0.000015   0.000051
    25  H   -0.052730  -0.002459   0.006204   0.000009   0.000001  -0.000004
    26  H   -0.000621  -0.000054   0.000000  -0.000000  -0.000000  -0.000000
    27  H    0.000706  -0.000057   0.000000   0.000000  -0.000000   0.000000
    28  H    0.000246  -0.000001   0.000000  -0.000000   0.000000  -0.000000
    29  H   -0.000045  -0.000001   0.000009   0.000000  -0.000000  -0.000001
    30  H   -0.000119   0.000001  -0.000000  -0.000000  -0.000000   0.000000
    31  H    0.000030  -0.000003   0.000016   0.000000  -0.000000   0.000000
    32  H   -0.000000  -0.000011  -0.000001  -0.000004  -0.000000  -0.000000
    33  H    0.000067  -0.000001   0.000000   0.000000   0.000000  -0.000000
    34  H    0.001905  -0.000056  -0.000000   0.000000  -0.000000   0.000000
    35  H    0.367088  -0.029075  -0.000032  -0.000000   0.000000  -0.000000
    36  H    0.370606  -0.041837   0.000109  -0.000007  -0.000001  -0.000000
    37  H   -0.035790   0.349066   0.001535  -0.000004  -0.000033  -0.000002
    38  H   -0.025309   0.342323  -0.000136   0.000003  -0.000013   0.000000
              19         20         21         22         23         24
     1  O   -0.000010   0.000000  -0.000003  -0.000000  -0.000067   0.000451
     2  C   -0.000050   0.000001  -0.000005  -0.000001   0.003164  -0.004994
     3  C   -0.004738  -0.000124   0.000003   0.000096  -0.032353  -0.042709
     4  C   -0.035690   0.004070  -0.003850  -0.004079  -0.004096  -0.003085
     5  C    0.371709  -0.027788  -0.034743  -0.034918   0.001968  -0.000252
     6  C   -0.038191   0.371330   0.377931   0.378023  -0.000154  -0.000020
     7  C    0.001181   0.000002  -0.000001  -0.000013   0.366302   0.365475
     8  C   -0.000048  -0.000000   0.000000  -0.000000  -0.031532  -0.036571
     9  C    0.000007   0.000000   0.000000   0.000000  -0.006116  -0.005380
    10  C   -0.000000  -0.000000  -0.000000  -0.000000   0.000081   0.000018
    11  C   -0.000024   0.000000  -0.000000  -0.000000   0.003640  -0.000381
    12  C    0.000000   0.000000  -0.000000   0.000000  -0.000375   0.002525
    13  C    0.000000  -0.000000  -0.000000   0.000000   0.005244  -0.007609
    14  C   -0.000001  -0.000000  -0.000000  -0.000000  -0.000242   0.000513
    15  H   -0.000219  -0.000001   0.000004   0.000010  -0.006318   0.006451
    16  H   -0.005288  -0.000047  -0.000392   0.004561  -0.000243   0.006058
    17  H    0.005358  -0.000006   0.004868  -0.000396  -0.000053   0.000015
    18  H   -0.041045  -0.002763  -0.004529   0.005257   0.000355   0.000051
    19  H    0.611444  -0.002543   0.005196  -0.004530   0.005057   0.000211
    20  H   -0.002543   0.579825  -0.031061  -0.031330   0.000006   0.000000
    21  H    0.005196  -0.031061   0.573681  -0.032266   0.000003   0.000001
    22  H   -0.004530  -0.031330  -0.032266   0.576164   0.000012  -0.000001
    23  H    0.005057   0.000006   0.000003   0.000012   0.583649  -0.037669
    24  H    0.000211   0.000000   0.000001  -0.000001  -0.037669   0.602484
    25  H    0.000012   0.000000   0.000000  -0.000000  -0.003827   0.006317
    26  H    0.000000  -0.000000  -0.000000  -0.000000  -0.000009   0.000003
    27  H   -0.000000  -0.000000  -0.000000   0.000000  -0.000002  -0.000003
    28  H    0.000000   0.000000   0.000000  -0.000000  -0.000004   0.000002
    29  H    0.000029  -0.000000   0.000000  -0.000000   0.004034   0.000318
    30  H    0.000000   0.000000  -0.000000   0.000000  -0.000130  -0.000028
    31  H   -0.000002   0.000000   0.000000   0.000000   0.000576   0.000071
    32  H    0.000001  -0.000000  -0.000000  -0.000000   0.000203   0.003205
    33  H    0.000000   0.000000   0.000000  -0.000000  -0.000035  -0.000072
    34  H   -0.000000  -0.000000  -0.000000   0.000000   0.000030   0.000047
    35  H   -0.000000  -0.000000   0.000000  -0.000000  -0.000181  -0.000005
    36  H    0.000000   0.000000   0.000000  -0.000000   0.000011   0.004849
    37  H    0.000001   0.000000   0.000000  -0.000000  -0.000019   0.000106
    38  H    0.000000   0.000000  -0.000000   0.000000   0.000019  -0.000042
              25         26         27         28         29         30
     1  O   -0.000011  -0.000000  -0.000000  -0.000000  -0.000000  -0.000000
     2  C   -0.002726  -0.000000  -0.000004   0.000000  -0.000004   0.000000
     3  C   -0.003402  -0.000003  -0.000001   0.000001  -0.000053  -0.000001
     4  C    0.000080   0.000000   0.000000  -0.000000   0.000009  -0.000000
     5  C   -0.000019   0.000000   0.000000   0.000000  -0.000014  -0.000000
     6  C   -0.000000   0.000000   0.000000  -0.000000   0.000000   0.000000
     7  C   -0.051782   0.000034  -0.000048  -0.000114   0.000415   0.000269
     8  C    0.363945  -0.005371  -0.005669   0.004876  -0.005488   0.004867
     9  C   -0.040299  -0.029952  -0.027199  -0.027927  -0.027366  -0.028000
    10  C   -0.007081   0.365297   0.366354   0.364966   0.005723  -0.007023
    11  C   -0.007276  -0.004012   0.005731  -0.006967   0.366042   0.364566
    12  C    0.006322   0.005847  -0.005060  -0.004131  -0.005065  -0.004082
    13  C   -0.052730  -0.000621   0.000706   0.000246  -0.000045  -0.000119
    14  C   -0.002459  -0.000054  -0.000057  -0.000001  -0.000001   0.000001
    15  H    0.006204   0.000000   0.000000   0.000000   0.000009  -0.000000
    16  H    0.000009  -0.000000   0.000000  -0.000000   0.000000  -0.000000
    17  H    0.000001  -0.000000  -0.000000   0.000000  -0.000000  -0.000000
    18  H   -0.000004  -0.000000   0.000000  -0.000000  -0.000001   0.000000
    19  H    0.000012   0.000000  -0.000000   0.000000   0.000029   0.000000
    20  H    0.000000  -0.000000  -0.000000   0.000000  -0.000000   0.000000
    21  H    0.000000  -0.000000  -0.000000   0.000000   0.000000  -0.000000
    22  H   -0.000000  -0.000000   0.000000  -0.000000  -0.000000   0.000000
    23  H   -0.003827  -0.000009  -0.000002  -0.000004   0.004034  -0.000130
    24  H    0.006317   0.000003  -0.000003   0.000002   0.000318  -0.000028
    25  H    0.658590   0.006030  -0.000105  -0.000066  -0.000094  -0.000054
    26  H    0.006030   0.583656  -0.031579  -0.030221  -0.000072  -0.000096
    27  H   -0.000105  -0.031579   0.575296  -0.030193  -0.000195   0.000021
    28  H   -0.000066  -0.030221  -0.030193   0.580467   0.000022   0.005392
    29  H   -0.000094  -0.000072  -0.000195   0.000022   0.574965  -0.030104
    30  H   -0.000054  -0.000096   0.000021   0.005392  -0.030104   0.580998
    31  H    0.006078   0.003338  -0.000074  -0.000101  -0.031612  -0.030243
    32  H   -0.000030  -0.000192  -0.000015  -0.000081   0.003898  -0.000158
    33  H   -0.000152  -0.000037  -0.000126   0.003957  -0.000122   0.003936
    34  H   -0.000034  -0.000039   0.003880  -0.000158  -0.000015  -0.000083
    35  H   -0.004051   0.000551   0.003485  -0.000102  -0.000002  -0.000003
    36  H    0.006379   0.000080   0.000319  -0.000032  -0.000002   0.000002
    37  H    0.005525   0.000014   0.000006  -0.000000   0.000000   0.000000
    38  H   -0.000002   0.000000   0.000003  -0.000000   0.000000  -0.000000
              31         32         33         34         35         36
     1  O   -0.000000  -0.000000   0.000000  -0.000000  -0.000063   0.000476
     2  C   -0.000000  -0.000001   0.000000  -0.000003   0.003394  -0.003418
     3  C   -0.000053  -0.000042  -0.000001  -0.000011  -0.000238   0.000505
     4  C    0.000000   0.000006  -0.000000   0.000000   0.000010  -0.000044
     5  C    0.000001   0.000000   0.000000   0.000000   0.000000  -0.000001
     6  C   -0.000000  -0.000000  -0.000000  -0.000000  -0.000000  -0.000000
     7  C   -0.000621   0.002051   0.000067  -0.000048   0.005318  -0.007238
     8  C   -0.005448  -0.005761   0.005276  -0.005614  -0.031614  -0.037247
     9  C   -0.029837  -0.028475  -0.029618  -0.028494  -0.006055  -0.005618
    10  C   -0.003982   0.005621  -0.005165  -0.004779   0.003125  -0.000392
    11  C    0.365428  -0.004786  -0.005181   0.005630   0.000065   0.000020
    12  C    0.005838   0.367398   0.367334   0.367297  -0.000255   0.002654
    13  C    0.000030  -0.000000   0.000067   0.001905   0.367088   0.370606
    14  C   -0.000003  -0.000011  -0.000001  -0.000056  -0.029075  -0.041837
    15  H    0.000016  -0.000001   0.000000  -0.000000  -0.000032   0.000109
    16  H    0.000000  -0.000004   0.000000   0.000000  -0.000000  -0.000007
    17  H   -0.000000  -0.000000   0.000000  -0.000000   0.000000  -0.000001
    18  H    0.000000  -0.000000  -0.000000   0.000000  -0.000000  -0.000000
    19  H   -0.000002   0.000001   0.000000  -0.000000  -0.000000   0.000000
    20  H    0.000000  -0.000000   0.000000  -0.000000  -0.000000   0.000000
    21  H    0.000000  -0.000000   0.000000  -0.000000   0.000000   0.000000
    22  H    0.000000  -0.000000  -0.000000   0.000000  -0.000000  -0.000000
    23  H    0.000576   0.000203  -0.000035   0.000030  -0.000181   0.000011
    24  H    0.000071   0.003205  -0.000072   0.000047  -0.000005   0.004849
    25  H    0.006078  -0.000030  -0.000152  -0.000034  -0.004051   0.006379
    26  H    0.003338  -0.000192  -0.000037  -0.000039   0.000551   0.000080
    27  H   -0.000074  -0.000015  -0.000126   0.003880   0.003485   0.000319
    28  H   -0.000101  -0.000081   0.003957  -0.000158  -0.000102  -0.000032
    29  H   -0.031612   0.003898  -0.000122  -0.000015  -0.000002  -0.000002
    30  H   -0.030243  -0.000158   0.003936  -0.000083  -0.000003   0.000002
    31  H    0.583267  -0.000037  -0.000037  -0.000191  -0.000009   0.000003
    32  H   -0.000037   0.574076  -0.030470  -0.030897   0.000022   0.000042
    33  H   -0.000037  -0.030470   0.580328  -0.030499  -0.000031  -0.000082
    34  H   -0.000191  -0.030897  -0.030499   0.574657   0.000165   0.003374
    35  H   -0.000009   0.000022  -0.000031   0.000165   0.590017  -0.037457
    36  H    0.000003   0.000042  -0.000082   0.003374  -0.037457   0.596402
    37  H    0.000000  -0.000000   0.000000  -0.000000  -0.006299   0.005755
    38  H    0.000000   0.000000  -0.000000   0.000005  -0.002551  -0.003004
              37         38
     1  O    0.001347   0.005221
     2  C   -0.030171  -0.024372
     3  C    0.003236   0.006832
     4  C   -0.000080  -0.000150
     5  C   -0.000002   0.000001
     6  C   -0.000000  -0.000000
     7  C   -0.001290  -0.000183
     8  C   -0.004003   0.003684
     9  C   -0.000009  -0.000096
    10  C   -0.000014   0.000000
    11  C   -0.000004   0.000001
    12  C    0.000003   0.000001
    13  C   -0.035790  -0.025309
    14  C    0.349066   0.342323
    15  H    0.001535  -0.000136
    16  H   -0.000004   0.000003
    17  H   -0.000033  -0.000013
    18  H   -0.000002   0.000000
    19  H    0.000001   0.000000
    20  H    0.000000   0.000000
    21  H    0.000000  -0.000000
    22  H   -0.000000   0.000000
    23  H   -0.000019   0.000019
    24  H    0.000106  -0.000042
    25  H    0.005525  -0.000002
    26  H    0.000014   0.000000
    27  H    0.000006   0.000003
    28  H   -0.000000  -0.000000
    29  H    0.000000   0.000000
    30  H    0.000000  -0.000000
    31  H    0.000000   0.000000
    32  H   -0.000000   0.000000
    33  H    0.000000  -0.000000
    34  H   -0.000000   0.000005
    35  H   -0.006299  -0.002551
    36  H    0.005755  -0.003004
    37  H    0.587348  -0.027348
    38  H   -0.027348   0.564478
 Mulliken charges:
               1
     1  O   -0.452314
     2  C    0.449491
     3  C   -0.180702
     4  C   -0.244719
     5  C   -0.258717
     6  C   -0.441164
     7  C   -0.292348
     8  C   -0.075038
     9  C    0.103250
    10  C   -0.452547
    11  C   -0.452659
    12  C   -0.456403
    13  C   -0.286513
    14  C   -0.345885
    15  H    0.136761
    16  H    0.134650
    17  H    0.151482
    18  H    0.127837
    19  H    0.132171
    20  H    0.140429
    21  H    0.145163
    22  H    0.143412
    23  H    0.149071
    24  H    0.139647
    25  H    0.110711
    26  H    0.137409
    27  H    0.144526
    28  H    0.140167
    29  H    0.144788
    30  H    0.140070
    31  H    0.137604
    32  H    0.144436
    33  H    0.140665
    34  H    0.143930
    35  H    0.144786
    36  H    0.144793
    37  H    0.151128
    38  H    0.160635
 Sum of Mulliken charges =  -0.00000
 Mulliken charges with hydrogens summed into heavy atoms:
               1
     1  O   -0.452314
     2  C    0.449491
     3  C   -0.043941
     4  C    0.041412
     5  C    0.001291
     6  C   -0.012161
     7  C   -0.003630
     8  C    0.035673
     9  C    0.103250
    10  C   -0.030445
    11  C   -0.030197
    12  C   -0.027372
    13  C    0.003065
    14  C   -0.034123
 APT charges:
               1
     1  O   -0.642332
     2  C    0.694983
     3  C   -0.030524
     4  C    0.082014
     5  C    0.129639
     6  C    0.097830
     7  C    0.065292
     8  C    0.087345
     9  C    0.135203
    10  C    0.037168
    11  C    0.035359
    12  C    0.029372
    13  C    0.100139
    14  C   -0.048781
    15  H   -0.036863
    16  H   -0.038115
    17  H   -0.024808
    18  H   -0.058000
    19  H   -0.051801
    20  H   -0.046793
    21  H   -0.029640
    22  H   -0.028219
    23  H   -0.022565
    24  H   -0.028077
    25  H   -0.069794
    26  H   -0.024473
    27  H   -0.017788
    28  H   -0.034138
    29  H   -0.018898
    30  H   -0.033445
    31  H   -0.023612
    32  H   -0.018883
    33  H   -0.027651
    34  H   -0.018079
    35  H   -0.038887
    36  H   -0.030450
    37  H   -0.012841
    38  H   -0.038890
 Sum of APT charges =   0.00000
 APT charges with hydrogens summed into heavy atoms:
               1
     1  O   -0.642332
     2  C    0.694983
     3  C   -0.067387
     4  C    0.019092
     5  C    0.019838
     6  C   -0.006822
     7  C    0.014651
     8  C    0.017551
     9  C    0.135203
    10  C   -0.039231
    11  C   -0.040596
    12  C   -0.035241
    13  C    0.030802
    14  C   -0.100512
 Electronic spatial extent (au):  <R**2>=           3868.6399
 Charge=             -0.0000 electrons
 Dipole moment (field-independent basis, Debye):
    X=              2.1478    Y=             -1.7550    Z=             -1.1305  Tot=              2.9951
 Quadrupole moment (field-independent basis, Debye-Ang):
   XX=            -93.2142   YY=            -95.5385   ZZ=            -88.8077
   XY=              6.6192   XZ=              2.4793   YZ=             -3.2222
 Traceless Quadrupole moment (field-independent basis, Debye-Ang):
   XX=             -0.6941   YY=             -3.0184   ZZ=              3.7124
   XY=              6.6192   XZ=              2.4793   YZ=             -3.2222
 Octapole moment (field-independent basis, Debye-Ang**2):
  XXX=              4.6330  YYY=             -6.6103  ZZZ=             -0.2286  XYY=             19.4343
  XXY=            -10.9983  XXZ=             -3.8720  XZZ=             -3.6738  YZZ=              4.2651
  YYZ=             -6.4046  XYZ=              5.8188
 Hexadecapole moment (field-independent basis, Debye-Ang**3):
 XXXX=          -3523.3069 YYYY=          -1451.2812 ZZZZ=           -360.7490 XXXY=            -15.0272
 XXXZ=             22.5493 YYYX=             43.1023 YYYZ=            -16.8495 ZZZX=             -9.4874
 ZZZY=              3.5934 XXYY=           -851.2905 XXZZ=           -648.4568 YYZZ=           -296.0995
 XXYZ=            -10.6354 YYXZ=             18.0543 ZZXY=             -1.2460
 N-N= 9.638091350718D+02 E-N=-3.282664630150D+03  KE= 5.793332154631D+02
  Exact polarizability: 156.539  -1.103 137.111  -2.740   1.198 114.715
 Approx polarizability: 193.344  -8.086 189.033  -6.487   5.338 183.003
 Calling FoFJK, ICntrl=    100127 FMM=F ISym2X=0 I1Cent= 0 IOpClX= 0 NMat=1 NMatS=1 NMatT=0.
 Full mass-weighted force constant matrix:
 Low frequencies ---   -0.0007    0.0003    0.0009    1.4817    4.7305    5.4384
 Low frequencies ---   29.8977   53.4826   62.6007
 Diagonal vibrational polarizability:
        7.5693813       6.7039804      19.9284683
 Harmonic frequencies (cm**-1), IR intensities (KM/Mole), Raman scattering
 activities (A**4/AMU), depolarization ratios for plane and unpolarized
 incident light, reduced masses (AMU), force constants (mDyne/A),
 and normal coordinates:
                      1                      2                      3
                      A                      A                      A
 Frequencies --     29.8609                53.4785                62.5989
 Red. masses --      2.6502                 2.1084                 2.5459
 Frc consts  --      0.0014                 0.0036                 0.0059
 IR Inten    --      0.0571                 0.6914                 1.3720
  Atom  AN      X      Y      Z        X      Y      Z        X      Y      Z
     1   8     0.01  -0.02   0.07    -0.06   0.03  -0.11     0.09  -0.05   0.20
     2   6    -0.00  -0.01   0.04    -0.01   0.02  -0.02     0.01  -0.02   0.03
     3   6     0.00   0.00   0.01     0.01   0.02  -0.03    -0.01   0.00  -0.01
     4   6    -0.00  -0.01  -0.01    -0.01   0.03  -0.06    -0.02   0.01  -0.03
     5   6    -0.01   0.01  -0.08     0.09  -0.08   0.13     0.06  -0.07   0.11
     6   6    -0.01  -0.00  -0.11     0.01   0.01  -0.01    -0.06   0.06  -0.11
     7   6    -0.00  -0.01   0.00    -0.01  -0.00  -0.03    -0.01   0.00  -0.01
     8   6    -0.00   0.00   0.01     0.00   0.02   0.03    -0.01  -0.01  -0.04
     9   6     0.01   0.01   0.00    -0.01  -0.01  -0.02    -0.01   0.01   0.00
    10   6    -0.04  -0.08  -0.17    -0.02  -0.03  -0.06     0.00   0.02   0.03
    11   6    -0.07  -0.04   0.17    -0.05  -0.00  -0.03     0.02   0.00   0.02
    12   6     0.14   0.16  -0.01     0.04  -0.03  -0.03    -0.05   0.04   0.01
    13   6    -0.01  -0.00   0.03    -0.01  -0.01   0.12    -0.00   0.01  -0.12
    14   6    -0.01   0.00   0.04     0.03   0.03   0.10    -0.03  -0.01  -0.09
    15   1     0.01   0.02   0.01     0.02   0.03  -0.03    -0.00   0.01  -0.01
    16   1    -0.01  -0.07  -0.01    -0.10   0.21  -0.05    -0.09   0.15  -0.03
    17   1     0.00   0.00   0.02    -0.02  -0.04  -0.23    -0.03  -0.04  -0.17
    18   1    -0.00   0.07  -0.08     0.27  -0.29   0.13     0.28  -0.25   0.11
    19   1    -0.01  -0.00  -0.11     0.05  -0.01   0.41    -0.03  -0.04   0.39
    20   1    -0.02   0.02  -0.16     0.10  -0.08   0.15     0.01  -0.02   0.02
    21   1    -0.01   0.02  -0.08     0.06  -0.07  -0.30     0.02   0.01  -0.43
    22   1    -0.02  -0.06  -0.11    -0.18   0.25  -0.00    -0.31   0.28  -0.11
    23   1    -0.00  -0.00  -0.02    -0.00   0.01  -0.08    -0.01  -0.00  -0.00
    24   1    -0.00  -0.04   0.00    -0.04  -0.06  -0.02     0.00   0.02  -0.01
    25   1    -0.00   0.01   0.01     0.01   0.09   0.02    -0.01  -0.06  -0.04
    26   1    -0.11  -0.25  -0.18    -0.04  -0.05  -0.06     0.03   0.02   0.03
    27   1    -0.02  -0.02  -0.34    -0.00  -0.02  -0.08    -0.01   0.02   0.04
    28   1    -0.02  -0.05  -0.12    -0.02  -0.03  -0.06     0.00   0.02   0.04
    29   1     0.01   0.00   0.34    -0.02  -0.00   0.02     0.00   0.01  -0.01
    30   1    -0.04  -0.03   0.10    -0.04  -0.01  -0.09     0.02   0.01   0.07
    31   1    -0.22  -0.15   0.20    -0.12   0.01  -0.01     0.07  -0.02   0.01
    32   1     0.14   0.31   0.12     0.03   0.02  -0.00    -0.04   0.01  -0.01
    33   1     0.09   0.10  -0.01     0.01  -0.08  -0.06    -0.03   0.07   0.04
    34   1     0.27   0.19  -0.14     0.11  -0.04  -0.03    -0.10   0.05   0.01
    35   1    -0.00   0.00   0.04     0.02   0.01   0.20    -0.02  -0.01  -0.18
    36   1    -0.02  -0.02   0.03    -0.07  -0.07   0.13     0.05   0.06  -0.12
    37   1    -0.01   0.01   0.04     0.09   0.08   0.10    -0.09  -0.06  -0.09
    38   1    -0.01  -0.00   0.05     0.01   0.01   0.16    -0.01   0.00  -0.13
                      4                      5                      6
                      A                      A                      A
 Frequencies --     73.2447                87.5147               142.7850
 Red. masses --      3.2469                 2.9385                 2.6655
 Frc consts  --      0.0103                 0.0133                 0.0320
 IR Inten    --      0.6649                 0.2076                 0.1918
  Atom  AN      X      Y      Z        X      Y      Z        X      Y      Z
     1   8     0.06  -0.00   0.13     0.00   0.08  -0.02    -0.05   0.07  -0.05
     2   6     0.02   0.04   0.01    -0.00   0.05   0.02    -0.02   0.03   0.04
     3   6    -0.02   0.07  -0.12     0.00   0.04   0.09    -0.02   0.03   0.06
     4   6    -0.01   0.05  -0.13    -0.01   0.01   0.03     0.07  -0.05   0.20
     5   6     0.06  -0.01  -0.03     0.11  -0.01  -0.02     0.06   0.00   0.07
     6   6     0.16  -0.13   0.15     0.13  -0.15  -0.10     0.01  -0.02  -0.09
     7   6    -0.04   0.01  -0.16    -0.01   0.10   0.19     0.03  -0.02  -0.15
     8   6    -0.01   0.03  -0.05    -0.04   0.00   0.04     0.02   0.02  -0.10
     9   6    -0.05  -0.01   0.01    -0.05  -0.03  -0.00    -0.01  -0.01  -0.02
    10   6    -0.01  -0.07   0.04    -0.05  -0.06  -0.02     0.05  -0.07   0.05
    11   6    -0.08  -0.02   0.05    -0.11  -0.01  -0.03    -0.02  -0.02   0.02
    12   6    -0.10   0.02   0.02    -0.02  -0.07  -0.01    -0.10   0.04  -0.00
    13   6    -0.01   0.01   0.01     0.04   0.03  -0.10     0.01   0.00  -0.05
    14   6     0.02   0.04   0.01     0.00   0.02  -0.03    -0.01   0.02   0.04
    15   1    -0.02   0.14  -0.12     0.07  -0.02   0.09    -0.18   0.09   0.05
    16   1    -0.03   0.13  -0.12    -0.07   0.01   0.03     0.23  -0.19   0.20
    17   1    -0.04   0.00  -0.19    -0.03  -0.02  -0.02     0.01  -0.04   0.40
    18   1    -0.07  -0.05  -0.03     0.16   0.02  -0.02     0.14   0.10   0.07
    19   1     0.16   0.08  -0.08     0.16   0.04  -0.01     0.03  -0.04   0.05
    20   1     0.21  -0.17   0.21     0.24  -0.16  -0.15     0.04   0.02  -0.21
    21   1     0.05  -0.22   0.24     0.07  -0.21  -0.11     0.05   0.02  -0.10
    22   1     0.31  -0.11   0.16     0.08  -0.19  -0.11    -0.09  -0.13  -0.10
    23   1    -0.04   0.04  -0.26    -0.03   0.06   0.38     0.01   0.02  -0.30
    24   1    -0.08  -0.09  -0.15     0.04   0.29   0.19     0.07  -0.19  -0.15
    25   1     0.07   0.06  -0.06    -0.13  -0.08   0.04     0.08   0.04  -0.10
    26   1     0.05  -0.14   0.03    -0.08  -0.00  -0.01     0.15  -0.19   0.02
    27   1    -0.02  -0.05  -0.01     0.00  -0.09   0.01    -0.00  -0.02  -0.03
    28   1    -0.03  -0.07   0.13    -0.07  -0.10  -0.08     0.03  -0.05   0.20
    29   1    -0.09   0.01   0.07    -0.13   0.01  -0.04    -0.03  -0.00   0.03
    30   1    -0.09  -0.03   0.05    -0.14  -0.06  -0.03    -0.03  -0.02   0.05
    31   1    -0.10  -0.04   0.05    -0.10   0.01  -0.03    -0.01  -0.05   0.02
    32   1    -0.15   0.11   0.01    -0.00  -0.10  -0.01    -0.16   0.11  -0.03
    33   1    -0.16  -0.04   0.07    -0.00  -0.05  -0.04    -0.16  -0.01   0.07
    34   1    -0.04   0.02  -0.00    -0.05  -0.07   0.01    -0.06   0.04  -0.03
    35   1     0.01   0.01   0.06     0.00  -0.02  -0.23    -0.01   0.03  -0.05
    36   1    -0.04  -0.03   0.02     0.16   0.11  -0.11     0.04  -0.04  -0.04
    37   1     0.03   0.07   0.01    -0.06   0.01  -0.04    -0.06   0.07   0.03
    38   1     0.03   0.03   0.04     0.03   0.03  -0.05     0.01   0.01   0.07
                      7                      8                      9
                      A                      A                      A
 Frequencies --    172.1845               186.2829               234.5332
 Red. masses --      2.5012                 2.1419                 1.3703
 Frc consts  --      0.0437                 0.0438                 0.0444
 IR Inten    --      1.5345                 0.1953                 0.2456
  Atom  AN      X      Y      Z        X      Y      Z        X      Y      Z
     1   8    -0.13  -0.08  -0.02    -0.01   0.08  -0.02     0.00   0.05  -0.00
     2   6    -0.03  -0.02   0.06     0.00   0.03   0.05    -0.01   0.01   0.02
     3   6     0.04  -0.01  -0.02    -0.03   0.04   0.03    -0.03   0.01   0.03
     4   6     0.02  -0.02  -0.09    -0.06   0.07  -0.01    -0.06   0.04  -0.01
     5   6    -0.01  -0.03  -0.03    -0.01   0.04   0.00    -0.05   0.03  -0.01
     6   6    -0.02   0.08   0.06     0.02  -0.05  -0.01    -0.03  -0.06  -0.00
     7   6     0.05   0.05   0.04    -0.05  -0.05  -0.02    -0.02  -0.01   0.02
     8   6     0.02   0.00  -0.06    -0.04  -0.09  -0.04    -0.00  -0.02  -0.00
     9   6     0.01  -0.01  -0.02     0.01  -0.03  -0.01     0.03  -0.00  -0.00
    10   6     0.05  -0.06   0.02    -0.04   0.06  -0.04     0.04   0.01   0.03
    11   6     0.00  -0.02   0.02     0.15  -0.07   0.05     0.07   0.00  -0.03
    12   6    -0.04   0.02  -0.01     0.01   0.04  -0.01     0.03  -0.01  -0.00
    13   6     0.08   0.03  -0.14     0.01  -0.09  -0.04     0.00  -0.02  -0.03
    14   6    -0.03   0.07   0.16     0.03  -0.01   0.08    -0.00  -0.02   0.00
    15   1     0.10   0.01  -0.02    -0.04   0.09   0.03    -0.02   0.02   0.03
    16   1    -0.02   0.01  -0.08    -0.12   0.11  -0.01    -0.12   0.06  -0.01
    17   1     0.04  -0.02  -0.13    -0.05   0.06  -0.09    -0.04   0.05  -0.06
    18   1    -0.06  -0.08  -0.03     0.01   0.03   0.00    -0.06   0.03  -0.01
    19   1    -0.04  -0.05  -0.02     0.03   0.09   0.02    -0.02   0.06  -0.01
    20   1    -0.10   0.07   0.14     0.12  -0.09   0.01     0.11  -0.14   0.10
    21   1     0.01   0.11   0.05    -0.04  -0.13  -0.05    -0.10  -0.19  -0.12
    22   1     0.03   0.16   0.06     0.00  -0.03  -0.01    -0.06   0.07   0.00
    23   1     0.04   0.02   0.18    -0.10  -0.03  -0.08    -0.02  -0.01   0.02
    24   1     0.08   0.19   0.04    -0.03  -0.11  -0.02    -0.00  -0.01   0.02
    25   1    -0.02  -0.07  -0.05    -0.05  -0.11  -0.04    -0.01  -0.04  -0.00
    26   1     0.11  -0.13   0.00    -0.12   0.21  -0.01     0.19  -0.29  -0.02
    27   1     0.04  -0.04  -0.02     0.01  -0.01   0.08    -0.13   0.15  -0.17
    28   1     0.03  -0.06   0.11    -0.03   0.03  -0.20     0.11   0.15   0.33
    29   1    -0.04   0.01  -0.01     0.00  -0.02  -0.13     0.19  -0.09   0.07
    30   1    -0.02  -0.04   0.09     0.10  -0.05   0.36     0.15   0.07  -0.21
    31   1     0.06  -0.05   0.01     0.45  -0.16  -0.01    -0.10   0.03  -0.00
    32   1    -0.06   0.05  -0.02     0.10  -0.14  -0.01    -0.10   0.29   0.03
    33   1    -0.06   0.00   0.03     0.15   0.23   0.00    -0.18  -0.29   0.01
    34   1    -0.03   0.02  -0.02    -0.21   0.09  -0.01     0.36  -0.06  -0.05
    35   1    -0.01   0.02  -0.37    -0.00  -0.12  -0.09    -0.01  -0.02  -0.07
    36   1     0.36   0.03  -0.15     0.09  -0.12  -0.04     0.05  -0.01  -0.03
    37   1    -0.13   0.33   0.16    -0.02   0.09   0.08    -0.03  -0.02   0.00
    38   1    -0.03  -0.01   0.38     0.09  -0.04   0.16     0.02  -0.01  -0.01
                     10                     11                     12
                      A                      A                      A
 Frequencies --    248.3327               256.2803               265.5403
 Red. masses --      1.1121                 1.2727                 1.2016
 Frc consts  --      0.0404                 0.0492                 0.0499
 IR Inten    --      0.0010                 0.1211                 0.3012
  Atom  AN      X      Y      Z        X      Y      Z        X      Y      Z
     1   8    -0.00   0.00   0.00     0.00  -0.00   0.01     0.02   0.01  -0.00
     2   6    -0.00  -0.00   0.00    -0.01   0.00  -0.02     0.01  -0.00  -0.01
     3   6     0.00  -0.00   0.01    -0.00  -0.00   0.00    -0.02  -0.00  -0.02
     4   6     0.02  -0.03   0.03    -0.00  -0.00  -0.00    -0.02  -0.02   0.01
     5   6    -0.03   0.02  -0.06    -0.01  -0.01  -0.00    -0.05  -0.03   0.01
     6   6     0.00  -0.00   0.01    -0.01  -0.00   0.00    -0.05  -0.05  -0.00
     7   6     0.01   0.01  -0.01     0.01   0.03   0.04     0.00   0.02  -0.01
     8   6     0.01   0.01   0.00     0.01   0.02   0.01     0.01   0.02  -0.00
     9   6     0.00   0.00   0.00     0.01   0.00  -0.02     0.01   0.01   0.00
    10   6     0.01  -0.01  -0.00     0.03  -0.08  -0.03     0.03  -0.01   0.01
    11   6    -0.02   0.00   0.01     0.04   0.00  -0.04    -0.03   0.02  -0.01
    12   6     0.01  -0.01   0.00    -0.03   0.03  -0.02     0.02   0.03  -0.00
    13   6     0.00   0.01   0.01    -0.03   0.02   0.07     0.03   0.01   0.00
    14   6    -0.01   0.00  -0.01    -0.01  -0.00  -0.02     0.02  -0.00   0.01
    15   1    -0.02   0.00   0.01     0.02  -0.03   0.01    -0.03  -0.01  -0.01
    16   1     0.09  -0.15   0.03    -0.01  -0.00  -0.00    -0.00  -0.02   0.01
    17   1     0.02   0.01   0.16    -0.00  -0.00  -0.01    -0.02  -0.02   0.02
    18   1    -0.10   0.09  -0.06    -0.01  -0.01  -0.00    -0.04  -0.03   0.01
    19   1    -0.01   0.00  -0.15    -0.01  -0.01  -0.00    -0.05  -0.03   0.01
    20   1     0.22  -0.24   0.45    -0.01  -0.00   0.00    -0.03  -0.05  -0.02
    21   1    -0.10  -0.29  -0.39    -0.01  -0.00   0.00    -0.06  -0.06  -0.00
    22   1    -0.07   0.51   0.04    -0.01  -0.00   0.00    -0.07  -0.07  -0.00
    23   1     0.01   0.01  -0.02    -0.00   0.02   0.11     0.00   0.02   0.01
    24   1     0.01  -0.01  -0.01     0.02   0.10   0.04    -0.01   0.04  -0.01
    25   1     0.02   0.02   0.00    -0.02   0.06   0.01     0.02   0.02  -0.00
    26   1    -0.02   0.05   0.01     0.14  -0.40  -0.08    -0.05   0.29   0.06
    27   1     0.05  -0.05   0.05    -0.06   0.06  -0.28     0.20  -0.16   0.24
    28   1    -0.02  -0.06  -0.06     0.06   0.01   0.25    -0.06  -0.18  -0.25
    29   1    -0.05   0.03  -0.01    -0.21   0.10  -0.34    -0.20   0.12  -0.20
    30   1    -0.04  -0.02   0.03    -0.09  -0.09   0.33    -0.13  -0.07   0.22
    31   1     0.00   0.00   0.00     0.46  -0.00  -0.12     0.23   0.03  -0.06
    32   1     0.05  -0.10  -0.01    -0.02  -0.02  -0.04    -0.11   0.37   0.06
    33   1     0.07   0.08  -0.01     0.01   0.09   0.02    -0.19  -0.26   0.01
    34   1    -0.09   0.01   0.02    -0.11   0.05  -0.03     0.38  -0.01  -0.08
    35   1     0.00   0.02   0.01    -0.00   0.05   0.17     0.03  -0.00  -0.01
    36   1    -0.01   0.02   0.01    -0.13  -0.01   0.07     0.05   0.01   0.00
    37   1    -0.01  -0.02  -0.01     0.03  -0.06  -0.02     0.03   0.01   0.01
    38   1    -0.01   0.01  -0.03    -0.02   0.01  -0.06     0.00  -0.00   0.02
                     13                     14                     15
                      A                      A                      A
 Frequencies --    268.2913               280.2500               313.9382
 Red. masses --      2.2540                 2.5996                 3.1064
 Frc consts  --      0.0956                 0.1203                 0.1804
 IR Inten    --      0.2266                 0.6375                 3.0784
  Atom  AN      X      Y      Z        X      Y      Z        X      Y      Z
     1   8    -0.03   0.05   0.02     0.12   0.01  -0.04     0.07   0.17   0.02
     2   6    -0.04   0.03   0.02     0.08  -0.03  -0.02    -0.01   0.08   0.01
     3   6    -0.04   0.03  -0.01     0.00  -0.04  -0.00    -0.03   0.05  -0.04
     4   6    -0.07   0.02  -0.02    -0.04  -0.03   0.00     0.04  -0.18  -0.04
     5   6    -0.08  -0.02   0.03    -0.11  -0.04   0.03    -0.01  -0.19  -0.06
     6   6    -0.08  -0.08  -0.00    -0.11  -0.12  -0.01    -0.06   0.01   0.03
     7   6     0.01   0.03  -0.07     0.02   0.02   0.03    -0.02   0.08  -0.03
     8   6     0.06   0.05   0.01     0.01   0.03  -0.02     0.00   0.02   0.01
     9   6     0.06  -0.00   0.03    -0.02   0.04  -0.04    -0.02  -0.01   0.03
    10   6     0.11  -0.08   0.04     0.01   0.01  -0.02    -0.10   0.07  -0.05
    11   6    -0.03   0.01   0.02    -0.03   0.04  -0.03     0.05  -0.03   0.07
    12   6     0.16  -0.08   0.01    -0.13   0.12  -0.02     0.01  -0.11   0.02
    13   6     0.02   0.06  -0.03     0.09  -0.01   0.04     0.04   0.02  -0.01
    14   6    -0.04   0.02  -0.02     0.11  -0.00   0.07     0.03   0.02   0.02
    15   1    -0.06   0.07  -0.01     0.01  -0.08   0.00    -0.02   0.11  -0.05
    16   1    -0.11   0.08  -0.02    -0.05  -0.00   0.00     0.13  -0.29  -0.04
    17   1    -0.06   0.01  -0.09    -0.01  -0.00  -0.02    -0.06  -0.23   0.11
    18   1    -0.05  -0.06   0.03    -0.11  -0.06   0.03    -0.05  -0.22  -0.06
    19   1    -0.06   0.01   0.07    -0.10  -0.04   0.03    -0.08  -0.25  -0.05
    20   1    -0.06  -0.04  -0.13    -0.03  -0.12  -0.05    -0.25   0.04   0.10
    21   1    -0.10  -0.06   0.08    -0.15  -0.16  -0.02     0.04   0.12   0.04
    22   1    -0.09  -0.22  -0.01    -0.15  -0.15  -0.01    -0.01   0.08   0.04
    23   1     0.02   0.05  -0.16     0.06  -0.01   0.11    -0.02   0.07  -0.00
    24   1     0.00  -0.07  -0.06     0.04   0.10   0.03    -0.04   0.10  -0.03
    25   1     0.11   0.03   0.00    -0.03   0.06  -0.02     0.03   0.01   0.01
    26   1     0.15  -0.07   0.04     0.04  -0.03  -0.02    -0.14  -0.11  -0.06
    27   1     0.16  -0.10   0.06     0.01   0.02  -0.04    -0.24   0.18  -0.20
    28   1     0.05  -0.14   0.07    -0.00   0.01   0.04     0.02   0.23   0.04
    29   1    -0.05   0.06   0.04     0.10  -0.02   0.12     0.05  -0.04   0.06
    30   1    -0.07  -0.05  -0.01     0.03   0.08  -0.25     0.07   0.02   0.15
    31   1    -0.06   0.04   0.02    -0.27   0.07   0.01     0.10  -0.11   0.05
    32   1     0.33  -0.42   0.03    -0.07  -0.09  -0.10    -0.01  -0.11  -0.01
    33   1     0.39   0.19  -0.11     0.02   0.37   0.09    -0.02  -0.18  -0.05
    34   1    -0.14  -0.06   0.11    -0.44   0.19  -0.03     0.07  -0.16   0.11
    35   1    -0.01   0.08  -0.09     0.10  -0.03   0.04     0.02   0.02  -0.06
    36   1     0.06   0.10  -0.04     0.11  -0.04   0.04     0.09   0.03  -0.01
    37   1    -0.07  -0.01  -0.02     0.16   0.10   0.08     0.03   0.03   0.02
    38   1    -0.04   0.03  -0.06     0.06  -0.03   0.17     0.05   0.02   0.02
                     16                     17                     18
                      A                      A                      A
 Frequencies --    323.1122               341.8369               363.7131
 Red. masses --      2.6915                 1.9735                 2.1727
 Frc consts  --      0.1656                 0.1359                 0.1693
 IR Inten    --      2.0382                 0.0957                 0.2847
  Atom  AN      X      Y      Z        X      Y      Z        X      Y      Z
     1   8    -0.01   0.14  -0.00    -0.04   0.01   0.04     0.02  -0.00   0.03
     2   6    -0.02   0.04   0.11    -0.05   0.04  -0.02    -0.03   0.03  -0.09
     3   6     0.01   0.01   0.12    -0.01   0.03  -0.02    -0.06   0.03  -0.11
     4   6    -0.02  -0.08  -0.08    -0.01   0.01  -0.00     0.03  -0.03   0.04
     5   6     0.04  -0.10  -0.08    -0.01   0.00   0.01     0.03  -0.01   0.01
     6   6     0.03   0.07   0.03    -0.02  -0.01  -0.00     0.01   0.01  -0.01
     7   6     0.00  -0.06   0.03     0.03   0.09   0.03    -0.07   0.08   0.03
     8   6    -0.01  -0.04  -0.01     0.03   0.03  -0.03    -0.05  -0.06  -0.04
     9   6     0.01  -0.00  -0.03     0.04  -0.02  -0.05    -0.02  -0.04  -0.03
    10   6     0.09  -0.06   0.05     0.07  -0.06  -0.05     0.04   0.00   0.11
    11   6    -0.03   0.02  -0.08     0.13  -0.09   0.05    -0.01  -0.04  -0.04
    12   6    -0.02   0.13  -0.02    -0.09  -0.04  -0.04     0.11   0.07  -0.04
    13   6    -0.04  -0.05   0.01    -0.04   0.03   0.06    -0.05  -0.09   0.01
    14   6    -0.03  -0.07  -0.03    -0.04   0.02  -0.03     0.01   0.02   0.03
    15   1     0.07   0.12   0.11    -0.00  -0.00  -0.01    -0.07  -0.05  -0.11
    16   1    -0.19  -0.07  -0.08     0.00   0.01  -0.00     0.21  -0.11   0.03
    17   1    -0.02  -0.12  -0.20    -0.01   0.00   0.00    -0.05  -0.05   0.22
    18   1     0.01  -0.14  -0.08    -0.01  -0.00   0.01     0.03   0.01   0.01
    19   1     0.01  -0.11  -0.05    -0.01   0.01   0.01     0.01  -0.03   0.00
    20   1    -0.16   0.09   0.12    -0.00  -0.01  -0.02    -0.01   0.02  -0.01
    21   1     0.11   0.17   0.07    -0.02  -0.02   0.00     0.04   0.04  -0.02
    22   1     0.13   0.15   0.04    -0.03  -0.03  -0.00    -0.00   0.02  -0.01
    23   1    -0.04  -0.03  -0.06     0.03   0.04   0.17    -0.13   0.02   0.29
    24   1     0.05  -0.16   0.04     0.05   0.23   0.02    -0.07   0.35   0.02
    25   1    -0.04  -0.02  -0.01     0.01   0.07  -0.03    -0.07  -0.08  -0.04
    26   1     0.15   0.10   0.06    -0.01   0.17  -0.02     0.21   0.06   0.10
    27   1     0.20  -0.15   0.19     0.24  -0.18   0.12    -0.03  -0.02   0.22
    28   1    -0.01  -0.19  -0.01    -0.01  -0.21  -0.27     0.02   0.00   0.22
    29   1     0.01  -0.00  -0.04     0.32  -0.19   0.27     0.03  -0.06   0.00
    30   1    -0.02  -0.00  -0.21     0.27   0.08  -0.08     0.01  -0.03  -0.12
    31   1    -0.13   0.11  -0.06    -0.08  -0.23   0.10    -0.09  -0.02  -0.02
    32   1    -0.00   0.15   0.01    -0.17  -0.00  -0.15     0.21   0.04   0.11
    33   1     0.02   0.20   0.07    -0.15  -0.08   0.06     0.19   0.16  -0.10
    34   1    -0.07   0.19  -0.14    -0.10  -0.05  -0.00     0.09   0.12  -0.16
    35   1    -0.02  -0.05   0.06    -0.00   0.10   0.21    -0.02  -0.08   0.11
    36   1    -0.10  -0.05   0.02    -0.19  -0.03   0.07    -0.12  -0.18   0.02
    37   1    -0.10  -0.23  -0.03     0.00  -0.04  -0.03     0.10   0.19   0.04
    38   1     0.05  -0.02  -0.19    -0.04   0.04  -0.08     0.04  -0.04   0.20
                     19                     20                     21
                      A                      A                      A
 Frequencies --    392.2734               443.4924               447.0728
 Red. masses --      2.1509                 2.7789                 2.6731
 Frc consts  --      0.1950                 0.3220                 0.3148
 IR Inten    --      0.0776                 0.6723                 0.5383
  Atom  AN      X      Y      Z        X      Y      Z        X      Y      Z
     1   8    -0.01  -0.00   0.01     0.07   0.02  -0.00     0.03   0.02   0.01
     2   6    -0.02   0.02  -0.03     0.06   0.05  -0.06    -0.02  -0.01  -0.03
     3   6    -0.03   0.02  -0.06     0.09  -0.04   0.07    -0.06  -0.00  -0.04
     4   6     0.01  -0.01   0.02     0.04  -0.02  -0.01    -0.03  -0.00   0.02
     5   6     0.01  -0.00   0.01    -0.02  -0.03  -0.01     0.03   0.00  -0.01
[...]
 .00000090,0.00000106,0.00000327,-0.00000112,-0.00000252,-0.00003749,0.
 00001320,0.00006142,0.00005500,0.00004207,0.00005283,0.00000524,-0.000
 04190,0.00008426,0.00020693,0.00029033,-0.00014997,0.00003370,0.000789
 10,0.00030174,-0.00004397,-0.00007462,0.00007039,0.00007342,-0.0001920
 9,-0.00013559,0.00046599,0.00029219,-0.00009595,-0.00012588,-0.0009004
 1,0.00027131,0.01184881,0.01517236,-0.00428264,-0.01429542,-0.02159669
 ,0.00553268,0.14094528,0.00003281,0.00013469,-0.00004510,-0.00001463,-
 0.00034371,0.00007089,0.00002977,0.00008762,0.00002787,0.00002385,0.00
 001591,0.00002721,-0.00004319,-0.00001091,-0.00002689,0.00000822,0.000
 01128,0.00000533,0.00005625,0.00001567,0.00023107,-0.00083328,-0.00025
 043,0.00008161,0.00134479,-0.00026875,0.00029138,0.00065050,0.00075475
 ,-0.00034519,0.00031314,0.00077865,0.00082641,-0.11775661,-0.22012860,
 0.04056916,-0.00113460,-0.00002904,0.00024208,0.00035552,0.00016170,-0
 .00030919,-0.00000042,0.00000039,0.00000184,-0.00000397,-0.00000939,-0
 .00001005,0.00001194,-0.00001265,0.00000634,0.00000587,0.00000336,0.00
 000004,0.00001933,0.00001294,0.00001281,-0.00000166,0.00000667,-0.0000
 0365,0.00000715,-0.00000370,0.00000595,-0.00000361,-0.00000300,-0.0000
 0300,0.00002928,0.00016449,-0.00018507,-0.00004973,-0.00017023,-0.0000
 3605,0.00019418,0.00006026,0.00009761,0.00001323,0.00019308,0.00015927
 ,-0.00012965,0.00042892,-0.00002927,0.00007436,-0.00001458,0.00000134,
 0.00007207,0.00043043,-0.00020117,0.00001964,-0.00002588,-0.00015037,-
 0.00033254,0.00019041,-0.00002507,-0.01604521,-0.02064317,0.00467638,0
 .00112081,0.00099923,-0.00097512,0.13170606,0.23730622,0.00012862,-0.0
 0016269,-0.00001135,-0.00012021,0.00040539,0.00002816,-0.00007068,-0.0
 0002794,-0.00000229,-0.00003783,-0.00000637,-0.00001385,0.00003365,0.0
 0000568,-0.00000234,-0.00001210,-0.00000714,0.00000257,-0.00009876,-0.
 00001872,-0.00016546,0.00034842,0.00063161,0.00127789,0.01799435,0.026
 25134,-0.00421707,-0.00063039,0.00135204,0.00117262,0.00128701,-0.0012
 9128,-0.00643053,0.02836642,0.03976970,-0.05853286,-0.00007251,-0.0001
 3752,-0.00093571,-0.00029213,-0.00024754,0.00024088,0.00002037,0.00000
 133,0.00001703,-0.00000213,-0.00000132,0.00000356,-0.00000353,0.000009
 87,-0.00000090,-0.00000049,-0.00000095,0.00000946,-0.00000329,-0.00000
 365,-0.00001072,0.00000196,-0.00001231,0.00000192,-0.00000088,0.000002
 34,-0.00000128,0.00000005,0.00000271,0.00000030,0.00006634,-0.00019078
 ,0.00007453,-0.00006839,0.00011292,0.00002527,0.00008234,-0.00019116,0
 .00023655,-0.00038597,-0.00002931,0.00010384,0.00013299,-0.00084653,0.
 00010432,-0.00002125,-0.00014068,-0.00004049,-0.00031838,-0.00008991,-
 0.00000213,0.00026218,-0.00015516,0.00012578,0.00152701,0.00167033,-0.
 00039716,-0.00441726,-0.00458637,0.00048909,-0.01069701,-0.01778762,0.
 00434467,-0.03175849,-0.04374500,0.06309380,-0.00164051,0.00157998,0.0
 0076036,-0.00066310,-0.00429089,-0.00392088,-0.00018180,0.00013226,0.0
 0054629,0.00016335,0.00009011,0.00011464,-0.00007808,-0.00004839,-0.00
 001928,0.00004277,0.00003873,0.00001443,-0.00260925,-0.00285088,-0.000
 00171,0.01274505,-0.01675653,-0.00194262,0.00072930,0.00051984,-0.0002
 6147,-0.00186082,-0.00008035,-0.00127379,0.00012272,0.00004301,0.00027
 403,0.00001635,0.00006410,-0.00006584,-0.12493562,0.11997119,0.0158348
 8,-0.01396226,0.02000009,-0.00127420,-0.00002289,-0.00004458,0.0000083
 4,-0.00003036,-0.00000396,-0.00002225,0.00003107,-0.00009262,0.0000442
 5,0.00000963,0.00000878,-0.00000197,0.00005197,0.00006743,0.00003481,-
 0.00000457,0.00002029,-0.00000328,0.00000858,-0.00001774,0.00000374,-0
 .00000274,-0.00000621,-0.00000175,0.00083929,-0.00119143,-0.00001367,0
 .00000408,-0.00005013,-0.00018349,0.00074910,0.00084300,-0.00001212,-0
 .00009727,0.00009020,0.00012481,-0.00252487,-0.00047314,-0.00115318,-0
 .00003654,-0.00018991,0.00008724,0.00003918,0.00009553,0.00002273,0.00
 004375,0.00007393,0.00001334,-0.00000098,-0.00002692,0.00000478,-0.000
 03314,-0.00002537,0.00006571,0.00004452,0.00002725,-0.00002717,-0.0000
 1974,0.00003431,-0.00003379,0.14008906,0.00009097,0.00001881,0.0001124
 7,-0.00047310,0.00081030,-0.00018782,-0.00035504,0.00062215,-0.0002588
 4,0.00007426,0.00007945,0.00010010,-0.00002013,-0.00001630,-0.00009169
 ,-0.00000262,0.00003704,0.00003994,-0.00550782,-0.00361581,0.00065608,
 0.01501999,-0.02175836,-0.00319561,0.00138439,-0.00038859,0.00045247,0
 .00058601,-0.00056067,0.00081791,-0.00006553,0.00017130,0.00003497,-0.
 00027526,0.00002290,-0.00014048,0.11803492,-0.23315226,-0.01888857,-0.
 00014461,0.00118389,-0.00003972,0.00001514,-0.00002658,0.00004859,-0.0
 0002247,-0.00000922,-0.00001121,0.00006335,-0.00007010,0.00003012,-0.0
 0000120,-0.00000096,0.00002157,0.00005538,0.00008305,0.00005174,-0.000
 00329,-0.00003015,0.00000288,0.00002699,-0.00001728,0.00000411,0.00000
 717,-0.00000046,-0.00000867,0.00114586,-0.00167489,-0.00004971,-0.0000
 4094,0.00033641,-0.00008078,0.00002598,0.00100296,0.00043700,-0.000255
 65,-0.00010686,0.00008378,0.00051139,0.00147762,-0.00046627,0.00029188
 ,0.00072686,0.00005643,0.00008409,0.00021392,0.00008106,-0.00014404,0.
 00003091,-0.00006261,0.00004772,-0.00002180,-0.00000055,-0.00001327,0.
 00015477,0.00018547,-0.00004069,0.00000510,-0.00011017,0.00007193,-0.0
 0005779,-0.00010223,-0.12954841,0.25234206,-0.00238486,0.00180939,0.00
 098925,-0.00165364,-0.00364326,-0.00422517,0.00017220,-0.00008020,0.00
 035380,0.00014043,0.00005589,0.00002555,-0.00005181,-0.00001620,0.0000
 1480,0.00002687,0.00001735,-0.00000229,0.00015156,0.00005851,0.0002807
 8,-0.00071494,0.00239607,-0.00082676,0.00040052,-0.00058508,0.00014540
 ,-0.00092863,-0.00072018,0.00035049,-0.00016957,0.00011053,-0.00001017
 ,-0.00019829,-0.00002881,-0.00007669,0.01536624,-0.01891849,-0.0515453
 3,-0.01636461,0.02357565,-0.00123128,-0.00002529,-0.00001740,0.0000053
 3,-0.00003046,0.00001689,0.00000686,0.00000758,-0.00005675,0.00004075,
 0.00000024,0.00000035,-0.00000588,0.00002509,0.00001420,0.00001534,-0.
 00000365,0.00001489,-0.00000097,0.00000080,-0.00000660,0.00000223,-0.0
 0000269,-0.00000132,0.00000111,-0.00000237,0.00003386,0.00059765,-0.00
 028480,0.00036779,0.00031514,-0.00051936,0.00001853,0.00023509,0.00022
 044,0.00012628,-0.00015863,-0.00131535,0.00027225,-0.00044573,0.000142
 75,0.00017748,-0.00012607,0.00002405,0.00006975,-0.00001318,-0.0000157
 4,-0.00003813,-0.00002145,0.00001966,0.00001620,-0.00001950,0.00006757
 ,0.00017874,0.00007723,-0.00006123,0.00000007,-0.00002736,0.00017893,-
 0.00008100,-0.00001976,-0.01002207,0.02034651,0.05507694,-0.00008020,-
 0.00034442,0.00032370,0.00168867,-0.00055069,-0.00045840,0.00002149,0.
 00001027,-0.00024514,0.00006602,0.00003317,0.00003846,0.00000443,0.000
 01741,0.00000546,-0.00000830,0.00000304,0.00000343,0.00029889,0.001405
 97,-0.00035310,-0.01095227,-0.00109713,0.01861890,0.00059523,0.0003218
 2,0.00138027,-0.00025516,-0.00006667,-0.00018023,-0.00004147,-0.000069
 49,-0.00026669,-0.00048128,-0.00100118,0.00013016,-0.10588588,-0.00131
 317,0.10693789,0.01006153,0.00078304,-0.02267793,-0.00013157,0.0000020
 1,-0.00001902,0.00000355,0.00000920,0.00000623,0.00001900,-0.00002936,
 0.00000324,-0.00000476,-0.00000407,-0.00000348,-0.00000102,0.00000849,
 0.00000356,-0.00000054,-0.00000785,0.00000148,0.00000403,-0.00000096,-
 0.00000026,0.00000472,-0.00000003,-0.00000230,-0.00000459,0.00005714,-
 0.00027797,0.00071107,-0.00036727,-0.00032351,-0.00181427,-0.00385367,
 -0.00025105,0.00032103,-0.00001997,-0.00015105,-0.00005184,0.00009420,
 0.00018107,-0.00010639,-0.00000347,-0.00010184,0.00000837,-0.00002967,
 0.00000037,-0.00007439,-0.00004014,-0.00011685,0.00018799,0.00014770,-
 0.00016928,0.00006068,0.00006529,-0.00006139,0.00032267,0.00039033,-0.
 00013892,-0.00034187,0.00030959,-0.00133124,-0.00869202,-0.00081060,0.
 01630220,0.11630669,-0.00011317,0.00016175,-0.00016383,-0.00041282,-0.
 00028642,0.00076359,0.00021824,-0.00012569,-0.00009579,0.00003284,0.00
 001799,0.00003365,-0.00000887,0.00000339,0.00001578,0.00000480,-0.0000
 0309,-0.00000427,-0.00070418,0.00183385,0.00128264,-0.01330190,-0.0018
 1516,0.02496019,0.00062537,0.00064642,0.00036262,0.00007545,-0.0000135
 1,0.00000984,0.00001557,-0.00001636,0.00006124,-0.00014149,0.00015833,
 -0.00029547,-0.00095768,-0.05272252,0.00652645,-0.00040220,-0.00010931
 ,0.00049111,-0.00004120,0.00010316,-0.00019881,0.00002847,-0.00002690,
 -0.00001543,0.00001469,-0.00002299,-0.00000308,0.00000258,0.00000542,-
 0.00001413,-0.00000645,-0.00000581,0.00000082,0.00000004,0.00000808,-0
 .00000123,-0.00000356,0.00000027,-0.00000087,0.00000149,-0.00000315,-0
 .00000065,0.00007283,0.00031216,-0.00036145,0.00043317,-0.00036451,-0.
 00057196,-0.00348659,-0.00430995,0.00054416,-0.00001513,-0.00014422,0.
 00004871,-0.00003634,0.00004039,-0.00014687,0.00001412,0.00009954,0.00
 002705,0.00000896,-0.00003145,-0.00002660,-0.00001229,-0.00001043,-0.0
 0013479,0.00013360,0.00008377,-0.00011793,-0.00004752,-0.00016634,-0.0
 0010478,0.00013391,0.00003132,-0.00005323,-0.00028457,0.00017328,-0.00
 042170,0.01277774,0.00157922,-0.02540516,0.00545547,0.05377210,-0.0012
 9983,0.00032291,0.00036954,0.00223735,-0.00156468,-0.00049891,-0.00004
 269,0.00036894,-0.00033635,0.00010107,0.00002649,-0.00005235,-0.000052
 75,0.00001184,0.00000656,0.00002172,0.00001206,-0.00000661,-0.00009824
 ,-0.00045678,0.00007323,0.00181777,0.00078855,-0.00105804,-0.00017256,
 0.00036396,-0.00034914,0.00009543,0.00006824,0.00011428,0.00018184,-0.
 00005371,0.00007764,-0.00058501,0.00010995,-0.00096187,0.10678551,0.00
 608053,-0.24395070,0.00886034,0.00127743,-0.02226019,-0.00002400,-0.00
 003794,0.00017158,-0.00004070,0.00005459,0.00003594,0.00000155,-0.0000
 1334,0.00001131,-0.00000909,-0.00001108,0.00001288,0.00001131,0.000006
 08,0.00000325,-0.00000451,0.00001235,-0.00000069,0.00000111,-0.0000026
 2,0.00000023,-0.00000622,0.00000420,0.00000724,-0.00017538,0.00008677,
 0.00031177,-0.00031562,0.00057136,0.00033809,-0.00015687,0.00022766,0.
 00105858,-0.00007366,-0.00001819,0.00004011,0.00008520,0.00002319,-0.0
 0005074,0.00005553,0.00002995,0.00002353,-0.00000171,0.00002338,0.0000
 0064,0.00006172,0.00007493,-0.00000046,-0.00001135,-0.00000642,0.00007
 075,0.00004498,0.00001559,0.00002138,-0.00023471,-0.00022067,0.0002020
 9,-0.00126825,-0.00102396,-0.00070505,0.00122493,-0.00057631,-0.001975
 67,-0.11317339,-0.00662847,0.27106666,-0.00131609,0.00409380,-0.003103
 81,-0.01170351,-0.00064130,0.01701786,0.00008204,-0.00027405,-0.000863
 95,-0.00002293,0.00010636,-0.00042521,-0.00001050,0.00001502,0.0000244
 3,0.00001167,0.00000204,-0.00000081,-0.00008479,-0.00034529,-0.0000297
 5,0.00162502,0.00051704,-0.00043448,0.00009937,0.00033307,-0.00014039,
 0.00004086,0.00002335,0.00002239,0.00004038,-0.00003461,0.00010204,-0.
 00004171,0.00008965,-0.00016109,0.00999960,-0.00253035,-0.02343376,-0.
 10053311,0.00736717,0.11036572,0.00072194,0.00024449,-0.00033499,0.000
 04559,-0.00013077,-0.00003304,-0.00000746,-0.00006024,0.00006984,0.000
 01119,0.00001750,-0.00001017,0.00000820,0.00001071,-0.00000943,-0.0000
 0056,0.00001021,0.00000151,-0.00000729,-0.00000203,0.00000152,-0.00000
 233,-0.00000157,-0.00000169,-0.00001485,-0.00001085,-0.00002289,-0.000
 11818,0.00004743,-0.00002359,-0.00017755,-0.00000128,0.00043487,-0.000
 04953,-0.00000285,0.00002087,0.00001415,0.00001179,-0.00003696,0.00001
 569,0.00001319,0.00002297,-0.00000279,0.00001450,0.00000050,0.00003151
 ,0.00003494,0.00000779,-0.00001961,-0.00001933,0.00000681,-0.00000428,
 -0.00000394,0.00001490,-0.00005015,-0.00008534,0.00001916,-0.00005011,
 -0.00011016,0.00012418,0.00151031,-0.00011120,0.00092091,-0.00292131,-
 0.00031794,-0.00391658,0.11187677,0.00282829,-0.00302563,0.00350743,0.
 01323494,0.00213590,-0.02824027,-0.00144400,-0.00034257,0.00303304,0.0
 0012347,0.00009079,0.00042858,-0.00000290,-0.00000625,0.00000709,0.000
 00410,0.00000187,-0.00001310,0.00050287,0.00018824,0.00025898,0.000431
 64,0.00002334,-0.00105126,-0.00008092,0.00005103,0.00006149,-0.0000123
 9,0.00002255,-0.00000658,0.00002570,-0.00002825,-0.00000299,0.00003220
 ,-0.00005704,0.00002071,-0.00114355,0.00050060,0.00182634,0.00858573,-
 0.05369968,-0.02221075,-0.00041352,-0.00169622,0.00000410,-0.00006128,
 0.00009148,0.00001838,-0.00002942,0.00010001,-0.00008037,-0.00000365,-
 0.00000225,0.00000401,-0.00001534,-0.00002164,0.00000163,-0.00000094,-
 0.00000089,-0.00000375,-0.00000193,0.00000500,-0.00000447,0.00000327,-
 0.00000233,0.00000172,0.00005059,-0.00000602,0.00000874,0.00000601,0.0
 0010137,0.00004768,-0.00025395,0.00003934,0.00003259,0.00000782,0.0000
 2274,-0.00001492,-0.00001071,-0.00001441,0.00003108,0.00001025,-0.0000
 1779,-0.00000139,-0.00000563,-0.00000031,0.00000180,0.00001382,0.00000
 984,0.00001817,-0.00001705,-0.00000534,0.00000336,-0.00000246,0.000000
 27,-0.00000524,0.00001719,0.00000439,0.00001751,-0.00000835,0.00002453
 ,-0.00001061,-0.00056560,0.00017600,0.00035691,0.00056181,0.00100797,0
 .00047086,-0.01111529,0.05100054,-0.00062555,-0.00059732,-0.00082668,0
 .00056036,0.00034622,0.00095421,0.00080620,0.00008078,-0.00075656,-0.0
 0013602,-0.00020762,0.00026267,0.00001585,-0.00003809,-0.00003596,-0.0
 0000497,-0.00000645,0.00001034,-0.00037814,-0.00007785,-0.00006657,0.0
 0180488,0.00077553,0.00048151,-0.00024138,0.00012756,0.00019473,0.0000
 4669,0.00008370,-0.00008321,-0.00002860,-0.00000766,0.00000809,0.00015
 915,0.00022447,-0.00008878,0.01008262,-0.00184886,-0.02547159,0.106068
 47,-0.01723708,-0.23669503,-0.00034102,0.00012160,0.00063518,-0.000065
 91,0.00011329,0.00003286,0.00001599,0.00003365,-0.00002762,-0.00000351
 ,-0.00001526,0.00001971,0.00000293,0.00000014,0.00000585,0.00000185,-0
 .00000256,-0.00000144,0.00000223,0.00000025,-0.00000072,-0.00000380,0.
 00000351,0.00000196,0.00000769,-0.00004560,0.00000959,-0.00002354,0.00
 018742,0.00016603,-0.00085579,-0.00074260,0.00066363,-0.00007330,-0.00
 001042,0.00005172,0.00003439,-0.00006284,-0.00000869,-0.00001803,-0.00
 001912,0.00003610,0.00000049,0.00000789,-0.00000096,-0.00000048,0.0000
 0022,0.00000535,-0.00003182,-0.00002120,0.00002220,-0.00000975,-0.0000
 0695,0.00001627,-0.00008990,-0.00008759,0.00007991,-0.00005066,-0.0001
 8233,0.00015752,0.00042697,0.00035698,0.00143336,-0.00450487,0.0000227
 6,-0.00270220,-0.11360405,0.01841883,0.26346772,0.00191925,-0.00123219
 ,0.00007020,0.01155979,0.01583658,-0.00198066,-0.00213624,0.00245968,0
 .00029056,0.00074885,0.00078973,-0.00003387,-0.00027941,0.00016383,0.0
 0005366,0.00008820,0.00008229,-0.00002054,-0.00024871,0.00024250,-0.00
 006493,-0.00215813,0.00192989,-0.00415776,-0.00000216,-0.00140702,0.00
 048392,0.00006751,-0.00015908,-0.00000256,-0.00031042,0.00021032,-0.00
 038641,-0.00017984,-0.00000680,0.00006473,-0.01286737,-0.01630143,0.00
 298102,-0.15652244,-0.13284998,0.01633719,-0.00007288,-0.00004357,-0.0
 0006441,-0.00001184,-0.00002132,0.00004068,0.00007731,-0.00005153,-0.0
 0001496,0.00000318,-0.00000571,-0.00001572,0.00002862,0.00002602,0.000
 02601,-0.00002458,0.00004005,-0.00000454,0.00000318,-0.00000833,0.0000
 0026,-0.00000060,-0.00000426,0.00000285,0.00004965,-0.00010651,0.00002
 677,0.00006695,-0.00006450,0.00000895,0.00033446,0.00043366,-0.0000525
 6,0.00001022,0.00000319,0.00001793,0.00003089,0.00003657,-0.00000545,-
 0.00005233,0.00003137,-0.00002511,0.00001982,-0.00003442,-0.00000400,-
 0.00013950,-0.00015963,-0.00000453,0.00001421,0.00001107,0.00002814,0.
 00001870,-0.00001608,-0.00001209,-0.00000252,0.00000256,-0.00009903,0.
 00003883,0.00002661,0.00000082,0.00015649,0.00029842,0.00058130,0.0011
 6305,0.00024455,0.00007577,-0.00899565,-0.01125081,0.00105432,0.167605
 43,-0.00004246,0.00606561,-0.00059454,-0.02263405,-0.02687315,0.003419
 00,0.00526032,-0.00322671,-0.00054840,-0.00165090,-0.00088634,0.000000
 04,0.00065270,-0.00025533,-0.00013574,-0.00022353,-0.00015320,0.000053
 64,0.00042643,0.00030148,0.00038078,0.00058954,0.00082047,0.00035317,0
 .00018770,0.00018763,0.00018665,-0.00003184,0.00000568,-0.00004781,0.0
 0004644,-0.00001522,-0.00000400,-0.00002580,-0.00003303,-0.00001728,0.
 00204432,0.00271956,-0.00098697,-0.12810911,-0.20706743,0.01926796,0.0
 0012034,0.00049052,0.00017603,0.00006232,-0.00011606,-0.00009471,0.000
 02855,0.00001200,0.00009658,-0.00000719,0.00002015,0.00002356,-0.00003
 050,0.00000183,-0.00002700,0.00005169,-0.00010769,0.00001051,0.0000161
 6,0.00000955,0.00001096,0.00000807,0.00000771,-0.00001543,-0.00010262,
 0.00001843,-0.00008348,-0.00003805,-0.00000788,-0.00010468,-0.00001667
 ,-0.00006018,0.00006412,-0.00000252,-0.00000174,0.00000419,0.00000331,
 -0.00000217,0.00000779,-0.00001802,0.00000866,0.00000174,0.00000037,0.
 00001716,0.00002018,0.00001030,0.00002096,0.00000120,0.00000630,-0.000
 00367,-0.00000050,-0.00000444,0.00000733,0.00001906,0.00000030,0.00001
 139,-0.00000454,0.00000301,0.00001738,-0.00000078,-0.00021472,0.000433
 34,-0.00043550,-0.00006612,0.00013937,-0.00041764,0.00284611,0.0033288
 1,0.00031261,0.14085427,0.22416476,-0.00063092,0.00020281,-0.00122709,
 0.00067975,-0.00206895,-0.00057386,0.00006445,0.00036323,0.00110354,0.
 00009498,-0.00000614,0.00040842,-0.00004630,-0.00004056,-0.00001780,0.
 00001693,0.00001397,0.00000072,-0.00007599,0.00054341,-0.00007773,-0.0
 0269947,0.00178283,-0.00404469,-0.00053246,-0.00134779,0.00072740,0.00
 009023,-0.00013568,-0.00002837,-0.00036110,0.00017474,-0.00043155,-0.0
 0002581,-0.00002263,0.00015804,-0.01566405,-0.02072597,0.00235972,0.01
 604972,0.01957943,-0.05280672,-0.00042804,-0.00031293,0.00027694,-0.00
 006674,0.00007840,0.00001253,0.00002904,-0.00004914,0.00000210,0.00001
 018,0.00000153,-0.00000053,0.00001548,0.00001659,0.00001301,-0.0000009
 5,0.00001116,-0.00000493,0.00000163,-0.00000467,0.00000122,-0.00000147
 ,-0.00000441,-0.00000193,0.00009957,-0.00005869,0.00005711,0.00004074,
 -0.00002715,-0.00000534,-0.00026011,-0.00003566,0.00032613,-0.00000925
 ,0.00001082,0.00001339,0.00002101,0.00003446,0.00000725,-0.00004339,0.
 00002712,-0.00000719,0.00001969,-0.00003081,-0.00000382,-0.00014825,-0
 .00017347,-0.00000203,0.00000799,0.00001870,0.00001944,0.00000938,-0.0
 0001373,-0.00001705,0.00000101,0.00001544,-0.00004170,0.00003037,0.000
 04290,-0.00002079,0.00062826,0.00035108,0.00076477,0.00087149,-0.00038
 413,0.00089171,0.01740838,0.02306468,-0.00195049,-0.01519596,-0.020890
 77,0.05412019\\0.00004991,-0.00002564,0.00001292,0.00000859,0.00002548
 ,0.00000160,-0.00000848,-0.00000578,-0.00000555,-0.00001465,-0.0000257
 1,0.00001612,-0.00000498,0.00004355,-0.00000511,0.00000899,-0.00004013
 ,0.00000631,0.00000276,-0.00000898,-0.00000776,-0.00000841,-0.00001551
 ,0.00001424,-0.00000111,-0.00001356,0.00001177,0.00001090,0.00000929,0
 .00001477,-0.00003828,-0.00002372,-0.00000108,0.00001216,0.00002270,-0
 .00002448,0.00001577,0.00000519,-0.00003919,-0.00003232,0.00000166,0.0
 0000166,0.00000771,0.00000687,0.00000157,-0.00000369,-0.00000099,0.000
 00842,-0.00001319,-0.00000245,-0.00000666,0.00000487,-0.00000737,-0.00
 002876,0.00003022,-0.00000157,0.00002243,0.00001958,0.00001919,-0.0000
 0724,-0.00002528,-0.00000600,-0.00002571,-0.00001490,0.00000050,0.0000
 3248,0.00001505,0.00002331,-0.00000360,-0.00001341,-0.00000165,0.00000
 336,-0.00000951,-0.00000027,-0.00000590,-0.00000631,-0.00000782,-0.000
 00531,0.00001088,0.00002773,0.00001927,0.00000937,-0.00000359,-0.00000
 391,-0.00000215,0.00000688,-0.00001272,0.00001108,-0.00000278,0.000006
 62,0.00000159,-0.00000461,-0.00000523,0.00000671,0.00000183,0.00000977
 ,-0.00000466,-0.00000250,0.00000300,0.00000062,-0.00000071,0.00001173,
 -0.00002631,0.00000338,-0.00000737,-0.00000655,-0.00000712,0.00000479,
 0.00001110,0.00000712,-0.00000674,-0.00000366,0.00000379,-0.00000055\\
 \@


 GETTING A SIMPLE ANSWER FROM A PROFESSOR IS LIKE
 GETTING A THIMBLE OF WATER FROM A FIRE HYDRANT.
     -- PROF. LEN SHAPIRO, NDSU
 Job cpu time:       0 days  0 hours  4 minutes 28.2 seconds.
 Elapsed time:       0 days  0 hours  4 minutes 48.6 seconds.
 File lengths (MBytes):  RWF=    297 Int=      0 D2E=      0 Chk=     16 Scr=      1
 Normal termination of Gaussian 16 at Sat Feb 24 01:50:39 2024.
