 Entering Gaussian System, Link 0=g16
 Input=/Volumes/SSD-PMU3/b3lyp_6-31gd_freq/PQNQNOLNHIGEQP-WAODVVSYSA-N_calculating/gaussianinput0.gjf
 Output=/Volumes/SSD-PMU3/b3lyp_6-31gd_freq/PQNQNOLNHIGEQP-WAODVVSYSA-N_calculating/gaussianinput0.log
 Initial command:
 /Applications/g16/l1.exe "/Users/macmini_m1_2022/PycharmProjects/sphere_model/sphere_model_lib/Gau-86681.inp" -scrdir="/Users/macmini_m1_2022/PycharmProjects/sphere_model/sphere_model_lib/"
 Entering Link 1 = /Applications/g16/l1.exe PID=     86682.
  
 Copyright (c) 1988,1990,1992,1993,1995,1998,2003,2009,2016,
            Gaussian, Inc.  All Rights Reserved.
  
 This is part of the Gaussian(R) 16 program.  It is based on
 the Gaussian(R) 09 system (copyright 2009, Gaussian, Inc.),
 the Gaussian(R) 03 system (copyright 2003, Gaussian, Inc.),
 the Gaussian(R) 98 system (copyright 1998, Gaussian, Inc.),
 the Gaussian(R) 94 system (copyright 1995, Gaussian, Inc.),
 the Gaussian 92(TM) system (copyright 1992, Gaussian, Inc.),
 the Gaussian 90(TM) system (copyright 1990, Gaussian, Inc.),
 the Gaussian 88(TM) system (copyright 1988, Gaussian, Inc.),
 the Gaussian 86(TM) system (copyright 1986, Carnegie Mellon
 University), and the Gaussian 82(TM) system (copyright 1983,
 Carnegie Mellon University). Gaussian is a federally registered
 trademark of Gaussian, Inc.
  
 This software contains proprietary and confidential information,
 including trade secrets, belonging to Gaussian, Inc.
  
 This software is provided under written license and may be
 used, copied, transmitted, or stored only in accord with that
 written license.
  
 The following legend is applicable only to US Government
 contracts under FAR:
  
                    RESTRICTED RIGHTS LEGEND
  
 Use, reproduction and disclosure by the US Government is
 subject to restrictions as set forth in subparagraphs (a)
 and (c) of the Commercial Computer Software - Restricted
 Rights clause in FAR 52.227-19.
  
 Gaussian, Inc.
 340 Quinnipiac St., Bldg. 40, Wallingford CT 06492
  
  
 ---------------------------------------------------------------
 Warning -- This program may not be used in any manner that
 competes with the business of Gaussian, Inc. or will provide
 assistance to any competitor of Gaussian, Inc.  The licensee
 of this program is prohibited from giving any competitor of
 Gaussian, Inc. access to this program.  By using this program,
 the user acknowledges that Gaussian, Inc. is engaged in the
 business of creating and licensing software in the field of
 computational chemistry and represents and warrants to the
 licensee that it is not a competitor of Gaussian, Inc. and that
 it will not use this program in any manner prohibited above.
 ---------------------------------------------------------------
  

 Cite this work as:
 Gaussian 16, Revision A.03,
 M. J. Frisch, G. W. Trucks, H. B. Schlegel, G. E. Scuseria, 
 M. A. Robb, J. R. Cheeseman, G. Scalmani, V. Barone, 
 G. A. Petersson, H. Nakatsuji, X. Li, M. Caricato, A. V. Marenich, 
 J. Bloino, B. G. Janesko, R. Gomperts, B. Mennucci, H. P. Hratchian, 
 J. V. Ortiz, A. F. Izmaylov, J. L. Sonnenberg, D. Williams-Young, 
 F. Ding, F. Lipparini, F. Egidi, J. Goings, B. Peng, A. Petrone, 
 T. Henderson, D. Ranasinghe, V. G. Zakrzewski, J. Gao, N. Rega, 
 G. Zheng, W. Liang, M. Hada, M. Ehara, K. Toyota, R. Fukuda, 
 J. Hasegawa, M. Ishida, T. Nakajima, Y. Honda, O. Kitao, H. Nakai, 
 T. Vreven, K. Throssell, J. A. Montgomery, Jr., J. E. Peralta, 
 F. Ogliaro, M. J. Bearpark, J. J. Heyd, E. N. Brothers, K. N. Kudin, 
 V. N. Staroverov, T. A. Keith, R. Kobayashi, J. Normand, 
 K. Raghavachari, A. P. Rendell, J. C. Burant, S. S. Iyengar, 
 J. Tomasi, M. Cossi, J. M. Millam, M. Klene, C. Adamo, R. Cammi, 
 J. W. Ochterski, R. L. Martin, K. Morokuma, O. Farkas, 
 J. B. Foresman, and D. J. Fox, Gaussian, Inc., Wallingford CT, 2016.
 
 ******************************************
 Gaussian 16:  EM64M-G16RevA.03 25-Dec-2016
                24-Feb-2024 
 ******************************************
 %nprocshared=10
 Will use up to   10 processors via shared memory.
 %mem=12GB
 %chk= 0.chk
 ---------------------
 # freq b3lyp/6-31g(d)
 ---------------------
 1/10=4,30=1,38=1/1,3;
 2/12=2,17=6,18=5,40=1/2;
 3/5=1,6=6,7=1,11=2,25=1,30=1,71=2,74=-5,140=1/1,2,3;
 4//1;
 5/5=2,38=5,98=1/2;
 8/6=4,10=90,11=11/1;
 11/6=1,8=1,9=11,15=111,16=1/1,2,10;
 10/6=1/2;
 6/7=2,8=2,9=2,10=2,28=1/1;
 7/8=1,10=1,25=1/1,2,3,16;
 1/10=4,30=1/3;
 99//99;
 ---------
 good luck
 ---------
 Symbolic Z-matrix:
 Charge =  0 Multiplicity = 1
 O                     1.20899   0.        0. 
 C                     0.        0.        0. 
 C                    -0.99963  -1.15076   0.00348 
 C                    -1.83743  -0.80104   1.26571 
 C                    -1.83742   0.80104   1.26571 
 C                    -0.99963   1.15076   0.00348 
 C                    -1.85442   0.80898  -1.24496 
 C                    -3.21203   1.45188  -1.19258 
 C                    -3.80663   1.78363  -0.04448 
 C                    -3.17605   1.56159   1.30444 
 C                    -1.85442  -0.80898  -1.24497 
 C                    -3.21203  -1.45188  -1.19258 
 C                    -3.80663  -1.78363  -0.04448 
 C                    -3.17605  -1.56159   1.30444 
 H                    -0.57317  -2.15538  -0.00208 
 H                    -1.26808  -1.10906   2.14992 
 H                    -1.26808   1.10906   2.14992 
 H                    -0.57317   2.15538  -0.00208 
 H                    -1.32933   1.14607  -2.14594 
 H                    -3.72116   1.62694  -2.13896 
 H                    -4.7905    2.2507   -0.05548 
 H                    -3.88792   1.05508   1.97028 
 H                    -3.00531   2.54174   1.77629 
 H                    -1.32933  -1.14607  -2.14594 
 H                    -3.72116  -1.62695  -2.13896 
 H                    -4.7905   -2.2507   -0.05549 
 H                    -3.00531  -2.54174   1.77629 
 H                    -3.88792  -1.05507   1.97028 
 

 GradGradGradGradGradGradGradGradGradGradGradGradGradGradGradGradGradGrad
 Berny optimization.
 Initialization pass.
 Trust Radius=3.00D-01 FncErr=1.00D-07 GrdErr=1.00D-07 EigMax=2.50D+02 EigMin=1.00D-04
 Number of steps in this run=      2 maximum allowed number of steps=      2.
 GradGradGradGradGradGradGradGradGradGradGradGradGradGradGradGradGradGrad

                          Input orientation:                          
 ---------------------------------------------------------------------
 Center     Atomic      Atomic             Coordinates (Angstroms)
 Number     Number       Type             X           Y           Z
 ---------------------------------------------------------------------
      1          8           0        1.208987    0.000000    0.000000
      2          6           0        0.000000    0.000000    0.000000
      3          6           0       -0.999629   -1.150764    0.003480
      4          6           0       -1.837425   -0.801040    1.265712
      5          6           0       -1.837424    0.801041    1.265713
      6          6           0       -0.999629    1.150764    0.003480
      7          6           0       -1.854420    0.808981   -1.244964
      8          6           0       -3.212029    1.451876   -1.192579
      9          6           0       -3.806634    1.783627   -0.044475
     10          6           0       -3.176047    1.561587    1.304441
     11          6           0       -1.854419   -0.808981   -1.244965
     12          6           0       -3.212028   -1.451878   -1.192581
     13          6           0       -3.806633   -1.783628   -0.044477
     14          6           0       -3.176049   -1.561585    1.304439
     15          1           0       -0.573171   -2.155380   -0.002076
     16          1           0       -1.268077   -1.109062    2.149915
     17          1           0       -1.268075    1.109061    2.149916
     18          1           0       -0.573171    2.155380   -0.002077
     19          1           0       -1.329332    1.146066   -2.145938
     20          1           0       -3.721161    1.626941   -2.138955
     21          1           0       -4.790497    2.250697   -0.055484
     22          1           0       -3.887916    1.055078    1.970280
     23          1           0       -3.005311    2.541743    1.776285
     24          1           0       -1.329330   -1.146065   -2.145938
     25          1           0       -3.721158   -1.626946   -2.138958
     26          1           0       -4.790496   -2.250699   -0.055486
     27          1           0       -3.005315   -2.541740    1.776286
     28          1           0       -3.887919   -1.055074    1.970276
 ---------------------------------------------------------------------
                    Distance matrix (angstroms):
                    1          2          3          4          5
     1  O    0.000000
     2  C    1.208987   0.000000
     3  C    2.490433   1.524312   0.000000
     4  C    3.394749   2.370616   1.554811   0.000000
     5  C    3.394748   2.370617   2.470764   1.602081   0.000000
     6  C    2.490433   1.524312   2.301528   2.470763   1.554811
     7  C    3.404240   2.375554   2.475860   2.982608   2.510747
     8  C    4.803704   3.721199   3.619255   3.606711   2.890731
     9  C    5.323510   4.204018   4.061062   3.503552   2.561222
    10  C    4.834112   3.771922   3.712970   2.715772   1.540078
    11  C    3.404239   2.375554   1.551160   2.510747   2.982610
    12  C    4.803704   3.721199   2.532971   2.890731   3.606715
    13  C    5.323509   4.204017   2.877862   2.561221   3.503555
    14  C    4.834113   3.771922   2.568671   1.540079   2.715772
    15  H    2.796740   2.230290   1.091398   2.244964   3.456306
    16  H    3.462369   2.731332   2.163559   1.095833   2.180473
    17  H    3.462368   2.731331   3.128268   2.180473   1.095833
    18  H    2.796740   2.230290   3.333539   3.456305   2.244964
    19  H    3.515904   2.772299   3.162931   3.960901   3.466491
    20  H    5.615018   4.590109   4.439866   4.586427   3.977731
    21  H    6.408005   5.293163   5.093535   4.447392   3.545096
    22  H    5.565394   4.484538   4.132341   2.854138   2.182995
    23  H    5.232204   4.318280   4.560724   3.577547   2.157472
    24  H    3.515902   2.772297   2.174563   3.466491   3.960902
    25  H    5.615018   4.590110   3.496214   3.977732   4.586432
    26  H    6.408004   5.293163   3.947658   3.545096   4.447395
    27  H    5.232206   4.318281   3.016692   2.157473   3.577547
    28  H    5.565395   4.484538   3.495663   2.182995   2.854138
                    6          7          8          9         10
     6  C    0.000000
     7  C    1.551159   0.000000
     8  C    2.532970   1.503050   0.000000
     9  C    2.877862   2.490431   1.334825   0.000000
    10  C    2.568671   2.968599   2.499688   1.505495   0.000000
    11  C    2.475860   1.617962   2.637674   3.460338   3.723676
    12  C    3.619256   2.637675   2.903754   3.484278   3.913743
    13  C    4.061062   3.460336   3.484276   3.567255   3.661650
    14  C    3.712969   3.723673   3.913737   3.661646   3.123172
    15  H    3.333539   3.460319   4.625275   5.096357   4.722054
    16  H    3.128268   3.943081   4.637846   4.430267   3.389328
    17  H    2.163560   3.458187   3.881849   3.422670   2.135407
    18  H    1.091398   2.235880   2.979225   3.255039   2.972296
    19  H    2.174563   1.095946   2.132360   3.310537   3.935496
    20  H    3.496213   2.225534   1.088802   2.102071   3.486889
    21  H    3.947659   3.480511   2.103012   1.089157   2.220522
    22  H    3.495663   3.812278   3.258519   2.143975   1.098476
    23  H    3.016690   3.668100   3.169337   2.128855   1.101133
    24  H    3.162930   2.215779   3.347050   4.374503   4.758872
    25  H    4.439869   3.196510   3.260980   4.003270   4.724498
    26  H    5.093535   4.404207   4.182535   4.152577   4.357680
    27  H    4.560724   4.656162   4.980548   4.760891   4.133894
    28  H    4.132339   4.236459   4.092099   3.481961   2.792313
                   11         12         13         14         15
    11  C    0.000000
    12  C    1.503051   0.000000
    13  C    2.490431   1.334824   0.000000
    14  C    2.968599   2.499688   1.505494   0.000000
    15  H    2.235880   2.979225   3.255038   2.972297   0.000000
    16  H    3.458187   3.881849   3.422669   2.135407   2.491735
    17  H    3.943083   4.637850   4.430269   3.389328   3.971213
    18  H    3.460318   4.625276   5.096357   4.722053   4.310760
    19  H    2.215779   3.347050   4.374502   4.758870   4.008425
    20  H    3.196507   3.260976   4.003264   4.724490   5.364890
    21  H    4.404208   4.182537   4.152576   4.357674   6.099361
    22  H    4.236464   4.092107   3.481968   2.792315   5.018442
    23  H    4.656163   4.980553   4.760895   4.133895   5.580398
    24  H    1.095945   2.132361   3.310537   3.935496   2.487295
    25  H    2.225535   1.088803   2.102072   3.486890   3.841267
    26  H    3.480511   2.103012   1.089157   2.220521   4.218740
    27  H    3.668102   3.169338   2.128855   1.101133   3.037626
    28  H    3.812277   3.258519   2.143975   1.098477   4.011035
                   16         17         18         19         20
    16  H    0.000000
    17  H    2.218123   0.000000
    18  H    3.971215   2.491736   0.000000
    19  H    4.852186   4.296450   2.487295   0.000000
    20  H    5.647808   4.967922   3.841268   2.439700   0.000000
    21  H    5.344082   4.309824   4.218741   4.191643   2.423510
    22  H    3.402841   2.626547   4.011034   4.847461   4.152186
    23  H    4.060290   2.282579   3.037623   4.487834   4.083921
    24  H    4.296449   4.852186   4.008423   2.292131   3.662030
    25  H    4.967921   5.647813   5.364893   3.662032   3.253887
    26  H    4.309822   5.344084   6.099362   5.280877   4.529946
    27  H    2.282578   4.060289   5.580397   5.638499   5.763632
    28  H    2.626548   3.402842   5.018441   5.323026   4.909867
                   21         22         23         24         25
    21  H    0.000000
    22  H    2.519499   0.000000
    23  H    2.574291   1.739770   0.000000
    24  H    5.280877   5.323030   5.638499   0.000000
    25  H    4.529952   4.909878   5.763639   2.439700   0.000000
    26  H    4.501396   3.980771   5.432290   4.191644   2.423511
    27  H    5.432284   3.708601   5.083483   4.487836   4.083922
    28  H    3.980763   2.110152   3.708601   4.847461   4.152186
                   26         27         28
    26  H    0.000000
    27  H    2.574289   0.000000
    28  H    2.519499   1.739769   0.000000
 Stoichiometry    C13H14O
 Framework group  C1[X(C13H14O)]
 Deg. of freedom    78
 Full point group                 C1      NOp   1
 Largest Abelian subgroup         C1      NOp   1
 Largest concise Abelian subgroup C1      NOp   1
                         Standard orientation:                         
 ---------------------------------------------------------------------
 Center     Atomic      Atomic             Coordinates (Angstroms)
 Number     Number       Type             X           Y           Z
 ---------------------------------------------------------------------
      1          8           0       -3.270220   -0.000001   -0.033368
      2          6           0       -2.061554   -0.000001   -0.005481
      3          6           0       -1.062111   -1.150764    0.014095
      4          6           0       -0.195422   -0.801037   -1.228475
      5          6           0       -0.195424    0.801044   -1.228472
      6          6           0       -1.062111    1.150764    0.014101
      7          6           0       -0.236345    0.808978    1.281929
      8          6           0        1.122111    1.451873    1.260876
      9          6           0        1.743040    1.783627    0.126793
     10          6           0        1.143736    1.561591   -1.236310
     11          6           0       -0.236346   -0.808984    1.281926
     12          6           0        1.122110   -1.451881    1.260870
     13          6           0        1.743040   -1.783628    0.126786
     14          6           0        1.143739   -1.561581   -1.236316
     15          1           0       -1.488583   -2.155380    0.009810
     16          1           0       -0.744223   -1.109057   -2.125576
     17          1           0       -0.744226    1.109066   -2.125572
     18          1           0       -1.488584    2.155380    0.009822
     19          1           0       -0.782076    1.146060    2.170552
     20          1           0        1.609277    1.626936    2.218744
     21          1           0        2.726387    2.250697    0.160495
     22          1           0        1.870775    1.055083   -1.885552
     23          1           0        0.983929    2.541748   -1.711964
     24          1           0       -0.782077   -1.146071    2.170546
     25          1           0        1.609275   -1.626951    2.218739
     26          1           0        2.726388   -2.250699    0.160486
     27          1           0        0.983935   -2.541735   -1.711978
     28          1           0        1.870778   -1.055069   -1.885554
 ---------------------------------------------------------------------
 Rotational constants (GHZ):           1.0395404           0.8229535           0.7065607
 Standard basis: 6-31G(d) (6D, 7F)
 There are   238 symmetry adapted cartesian basis functions of A   symmetry.
 There are   238 symmetry adapted basis functions of A   symmetry.
   238 basis functions,   448 primitive gaussians,   238 cartesian basis functions
    50 alpha electrons       50 beta electrons
       nuclear repulsion energy       927.0205679885 Hartrees.
 NAtoms=   28 NActive=   28 NUniq=   28 SFac= 1.00D+00 NAtFMM=   60 NAOKFM=F Big=F
 Integral buffers will be    131072 words long.
 Raffenetti 2 integral format.
 Two-electron integral symmetry is turned on.
 One-electron integrals computed using PRISM.
 NBasis=   238 RedAO= T EigKep=  8.19D-04  NBF=   238
 NBsUse=   238 1.00D-06 EigRej= -1.00D+00 NBFU=   238
 ExpMin= 1.61D-01 ExpMax= 5.48D+03 ExpMxC= 8.25D+02 IAcc=3 IRadAn=         5 AccDes= 0.00D+00
 Harris functional with IExCor=  402 and IRadAn=       5 diagonalized for initial guess.
 HarFok:  IExCor=  402 AccDes= 0.00D+00 IRadAn=         5 IDoV= 1 UseB2=F ITyADJ=14
 ICtDFT=  3500011 ScaDFX=  1.000000  1.000000  1.000000  1.000000
 FoFCou: FMM=F IPFlag=           0 FMFlag=      100000 FMFlg1=           0
         NFxFlg=           0 DoJE=T BraDBF=F KetDBF=T FulRan=T
         wScrn=  0.000000 ICntrl=       500 IOpCl=  0 I1Cent=   200000004 NGrid=           0
         NMat0=    1 NMatS0=      1 NMatT0=    0 NMatD0=    1 NMtDS0=    0 NMtDT0=    0
 Petite list used in FoFCou.
 Requested convergence on RMS density matrix=1.00D-08 within 128 cycles.
 Requested convergence on MAX density matrix=1.00D-06.
 Requested convergence on             energy=1.00D-06.
 No special actions if energy rises.
 Integral accuracy reduced to 1.0D-05 until final iterations.
 Initial convergence to 1.0D-05 achieved.  Increase integral accuracy.
 SCF Done:  E(RB3LYP) =  -578.980681301     A.U. after   14 cycles
            NFock= 14  Conv=0.87D-08     -V/T= 2.0096
 DoSCS=F DFT=T ScalE2(SS,OS)=  1.000000  1.000000
 Range of M.O.s used for correlation:     1   238
 NBasis=   238 NAE=    50 NBE=    50 NFC=     0 NFV=     0
 NROrb=    238 NOA=    50 NOB=    50 NVA=   188 NVB=   188
 Symmetrizing basis deriv contribution to polar:
 IMax=3 JMax=2 DiffMx= 0.00D+00
 G2DrvN: will do    29 centers at a time, making    1 passes.
 Calling FoFCou, ICntrl=  3107 FMM=F I1Cent=   0 AccDes= 0.00D+00.
 End of G2Drv F.D. properties file   721 does not exist.
 End of G2Drv F.D. properties file   722 does not exist.
 End of G2Drv F.D. properties file   788 does not exist.
          IDoAtm=1111111111111111111111111111
          Differentiating once with respect to electric field.
                with respect to dipole field.
          Differentiating once with respect to nuclear coordinates.
 Keep R1 ints in memory in canonical form, NReq=415128118.
          There are    87 degrees of freedom in the 1st order CPHF.  IDoFFX=6 NUNeed=     3.
     84 vectors produced by pass  0 Test12= 1.08D-14 1.15D-09 XBig12= 1.09D+02 4.01D+00.
 AX will form    84 AO Fock derivatives at one time.
     84 vectors produced by pass  1 Test12= 1.08D-14 1.15D-09 XBig12= 1.66D+01 8.91D-01.
     84 vectors produced by pass  2 Test12= 1.08D-14 1.15D-09 XBig12= 2.05D-01 5.91D-02.
     84 vectors produced by pass  3 Test12= 1.08D-14 1.15D-09 XBig12= 1.32D-03 4.98D-03.
     84 vectors produced by pass  4 Test12= 1.08D-14 1.15D-09 XBig12= 2.50D-06 2.13D-04.
     56 vectors produced by pass  5 Test12= 1.08D-14 1.15D-09 XBig12= 2.55D-09 4.57D-06.
      5 vectors produced by pass  6 Test12= 1.08D-14 1.15D-09 XBig12= 1.69D-12 1.82D-07.
      2 vectors produced by pass  7 Test12= 1.08D-14 1.15D-09 XBig12= 1.08D-15 4.35D-09.
 InvSVY:  IOpt=1 It=  1 EMax= 7.11D-15
 Solved reduced A of dimension   483 with    87 vectors.
 Isotropic polarizability for W=    0.000000      118.62 Bohr**3.
 End of Minotr F.D. properties file   721 does not exist.
 End of Minotr F.D. properties file   722 does not exist.
 End of Minotr F.D. properties file   788 does not exist.

 **********************************************************************

            Population analysis using the SCF density.

 **********************************************************************

 Orbital symmetries:
       Occupied  (A) (A) (A) (A) (A) (A) (A) (A) (A) (A) (A) (A)
                 (A) (A) (A) (A) (A) (A) (A) (A) (A) (A) (A) (A)
                 (A) (A) (A) (A) (A) (A) (A) (A) (A) (A) (A) (A)
                 (A) (A) (A) (A) (A) (A) (A) (A) (A) (A) (A) (A)
                 (A) (A)
       Virtual   (A) (A) (A) (A) (A) (A) (A) (A) (A) (A) (A) (A)
                 (A) (A) (A) (A) (A) (A) (A) (A) (A) (A) (A) (A)
                 (A) (A) (A) (A) (A) (A) (A) (A) (A) (A) (A) (A)
                 (A) (A) (A) (A) (A) (A) (A) (A) (A) (A) (A) (A)
                 (A) (A) (A) (A) (A) (A) (A) (A) (A) (A) (A) (A)
                 (A) (A) (A) (A) (A) (A) (A) (A) (A) (A) (A) (A)
                 (A) (A) (A) (A) (A) (A) (A) (A) (A) (A) (A) (A)
                 (A) (A) (A) (A) (A) (A) (A) (A) (A) (A) (A) (A)
                 (A) (A) (A) (A) (A) (A) (A) (A) (A) (A) (A) (A)
                 (A) (A) (A) (A) (A) (A) (A) (A) (A) (A) (A) (A)
                 (A) (A) (A) (A) (A) (A) (A) (A) (A) (A) (A) (A)
                 (A) (A) (A) (A) (A) (A) (A) (A) (A) (A) (A) (A)
                 (A) (A) (A) (A) (A) (A) (A) (A) (A) (A) (A) (A)
                 (A) (A) (A) (A) (A) (A) (A) (A) (A) (A) (A) (A)
                 (A) (A) (A) (A) (A) (A) (A) (A) (A) (A) (A) (A)
                 (A) (A) (A) (A) (A) (A) (A) (A)
 The electronic state is 1-A.
 Alpha  occ. eigenvalues --  -19.13820 -10.26436 -10.20109 -10.20102 -10.20095
 Alpha  occ. eigenvalues --  -10.20090 -10.19173 -10.19172 -10.19019 -10.19016
 Alpha  occ. eigenvalues --  -10.18393 -10.18393 -10.18117 -10.18115  -1.03585
 Alpha  occ. eigenvalues --   -0.88788  -0.80997  -0.78627  -0.78109  -0.71716
 Alpha  occ. eigenvalues --   -0.71452  -0.66210  -0.64772  -0.58782  -0.56624
 Alpha  occ. eigenvalues --   -0.53895  -0.53062  -0.50912  -0.49138  -0.45873
 Alpha  occ. eigenvalues --   -0.45666  -0.45573  -0.44235  -0.41707  -0.40712
 Alpha  occ. eigenvalues --   -0.40609  -0.39865  -0.39059  -0.37708  -0.37200
 Alpha  occ. eigenvalues --   -0.37121  -0.36241  -0.33912  -0.32868  -0.31747
 Alpha  occ. eigenvalues --   -0.31272  -0.28792  -0.24426  -0.24286  -0.22332
 Alpha virt. eigenvalues --   -0.00970   0.01853   0.02848   0.06499   0.10312
 Alpha virt. eigenvalues --    0.11348   0.11419   0.12772   0.13791   0.14150
 Alpha virt. eigenvalues --    0.16251   0.16386   0.17102   0.17890   0.18102
 Alpha virt. eigenvalues --    0.18616   0.19067   0.20082   0.21720   0.21919
 Alpha virt. eigenvalues --    0.22203   0.24078   0.24999   0.25677   0.25835
 Alpha virt. eigenvalues --    0.28537   0.28998   0.30364   0.31996   0.35102
 Alpha virt. eigenvalues --    0.38386   0.41693   0.42593   0.45710   0.46742
 Alpha virt. eigenvalues --    0.50032   0.53473   0.54225   0.55357   0.56015
 Alpha virt. eigenvalues --    0.58134   0.58350   0.59439   0.60429   0.60890
 Alpha virt. eigenvalues --    0.62088   0.63677   0.64048   0.64664   0.65207
 Alpha virt. eigenvalues --    0.66536   0.68490   0.68521   0.69429   0.70250
 Alpha virt. eigenvalues --    0.72122   0.73504   0.75318   0.76313   0.76597
 Alpha virt. eigenvalues --    0.78524   0.81254   0.81782   0.83080   0.84339
 Alpha virt. eigenvalues --    0.84504   0.85803   0.85898   0.86630   0.88189
 Alpha virt. eigenvalues --    0.88734   0.89079   0.89787   0.90353   0.91399
 Alpha virt. eigenvalues --    0.93091   0.93732   0.93892   0.95431   0.96529
 Alpha virt. eigenvalues --    0.98445   0.99112   0.99659   1.03620   1.05021
 Alpha virt. eigenvalues --    1.07274   1.10967   1.12809   1.13732   1.18988
 Alpha virt. eigenvalues --    1.19579   1.24372   1.27030   1.32347   1.33041
 Alpha virt. eigenvalues --    1.36688   1.41072   1.44376   1.45981   1.49449
 Alpha virt. eigenvalues --    1.51856   1.52519   1.52649   1.56917   1.57152
 Alpha virt. eigenvalues --    1.62186   1.65167   1.66853   1.67890   1.69880
 Alpha virt. eigenvalues --    1.71827   1.75699   1.75848   1.76111   1.77261
 Alpha virt. eigenvalues --    1.79823   1.82362   1.82396   1.83977   1.85953
 Alpha virt. eigenvalues --    1.86891   1.90999   1.92428   1.92994   1.93511
 Alpha virt. eigenvalues --    1.94846   1.97423   1.97907   2.00175   2.04953
 Alpha virt. eigenvalues --    2.05164   2.06975   2.08148   2.11182   2.12566
 Alpha virt. eigenvalues --    2.14033   2.16553   2.18028   2.20877   2.22852
 Alpha virt. eigenvalues --    2.24730   2.25225   2.28715   2.31007   2.32160
 Alpha virt. eigenvalues --    2.35804   2.41444   2.41539   2.44468   2.44649
 Alpha virt. eigenvalues --    2.49070   2.49395   2.50394   2.52803   2.55329
 Alpha virt. eigenvalues --    2.57397   2.59679   2.61068   2.63445   2.67885
 Alpha virt. eigenvalues --    2.69454   2.69605   2.70437   2.71996   2.73795
 Alpha virt. eigenvalues --    2.74898   2.81058   2.86629   2.90029   2.93339
 Alpha virt. eigenvalues --    3.00066   3.04927   3.08017   3.13308   4.08675
 Alpha virt. eigenvalues --    4.11056   4.15850   4.21280   4.21530   4.44484
 Alpha virt. eigenvalues --    4.45480   4.47066   4.51595   4.52827   4.68058
 Alpha virt. eigenvalues --    4.81680   4.86283   5.03604
          Condensed to atoms (all electrons):
               1          2          3          4          5          6
     1  O    7.969482   0.596714  -0.062953   0.000900   0.000900  -0.062953
     2  C    0.596714   4.624141   0.300666  -0.054594  -0.054594   0.300666
     3  C   -0.062953   0.300666   5.281199   0.360430  -0.051403  -0.160549
     4  C    0.000900  -0.054594   0.360430   5.040091   0.345312  -0.051403
     5  C    0.000900  -0.054594  -0.051403   0.345312   5.040090   0.360430
     6  C   -0.062953   0.300666  -0.160549  -0.051403   0.360430   5.281199
     7  C    0.001009  -0.052747  -0.040386  -0.024677  -0.019974   0.351491
     8  C   -0.000059   0.003156  -0.001113   0.002109  -0.019928  -0.031587
     9  C    0.000000   0.000400   0.001205  -0.002193  -0.033023  -0.017743
    10  C   -0.000051   0.002722   0.000965  -0.032197   0.361203  -0.034544
    11  C    0.001009  -0.052747   0.351491  -0.019974  -0.024677  -0.040386
    12  C   -0.000059   0.003156  -0.031587  -0.019928   0.002109  -0.001113
    13  C    0.000000   0.000400  -0.017743  -0.033023  -0.002193   0.001205
    14  C   -0.000051   0.002722  -0.034544   0.361203  -0.032197   0.000965
    15  H    0.000969  -0.028222   0.356292  -0.033656   0.005742   0.007019
    16  H    0.000600   0.000748  -0.045107   0.364840  -0.034546   0.003328
    17  H    0.000600   0.000748   0.003328  -0.034546   0.364841  -0.045107
    18  H    0.000969  -0.028222   0.007019   0.005742  -0.033656   0.356292
    19  H    0.000488   0.000551   0.004318   0.000185   0.005530  -0.045200
    20  H    0.000000  -0.000108  -0.000118  -0.000000  -0.000075   0.004453
    21  H    0.000000   0.000009  -0.000008  -0.000042   0.004374   0.000196
    22  H    0.000000  -0.000022   0.000224  -0.008241  -0.036886   0.004310
    23  H    0.000001  -0.000097  -0.000113   0.004259  -0.026294  -0.002165
    24  H    0.000488   0.000551  -0.045200   0.005530   0.000185   0.004318
    25  H    0.000000  -0.000108   0.004453  -0.000075  -0.000000  -0.000118
    26  H    0.000000   0.000009   0.000196   0.004374  -0.000042  -0.000008
    27  H    0.000001  -0.000097  -0.002165  -0.026294   0.004259  -0.000113
    28  H    0.000000  -0.000022   0.004310  -0.036886  -0.008241   0.000224
               7          8          9         10         11         12
     1  O    0.001009  -0.000059   0.000000  -0.000051   0.001009  -0.000059
     2  C   -0.052747   0.003156   0.000400   0.002722  -0.052747   0.003156
     3  C   -0.040386  -0.001113   0.001205   0.000965   0.351491  -0.031587
     4  C   -0.024677   0.002109  -0.002193  -0.032197  -0.019974  -0.019928
     5  C   -0.019974  -0.019928  -0.033023   0.361203  -0.024677   0.002109
     6  C    0.351491  -0.031587  -0.017743  -0.034544  -0.040386  -0.001113
     7  C    5.089589   0.382676  -0.024169  -0.035403   0.307931  -0.040041
     8  C    0.382676   4.849891   0.698800  -0.035747  -0.040041  -0.006323
     9  C   -0.024169   0.698800   4.854147   0.377000  -0.008182   0.000773
    10  C   -0.035403  -0.035747   0.377000   5.076082   0.002437   0.000610
    11  C    0.307931  -0.040041  -0.008182   0.002437   5.089589   0.382676
    12  C   -0.040041  -0.006323   0.000773   0.000610   0.382676   4.849891
    13  C   -0.008182   0.000773   0.000227   0.000307  -0.024169   0.698800
    14  C    0.002437   0.000610   0.000307  -0.007756  -0.035403  -0.035747
    15  H    0.005229  -0.000038  -0.000026  -0.000044  -0.033101   0.000114
    16  H    0.000124  -0.000076  -0.000066   0.002940   0.005126   0.000493
    17  H    0.005126   0.000493   0.003934  -0.040560   0.000124  -0.000076
    18  H   -0.033101   0.000114   0.000233   0.000382   0.005229  -0.000038
    19  H    0.362104  -0.037786   0.004447   0.000312  -0.036198   0.003214
    20  H   -0.052301   0.362311  -0.042775   0.006649   0.001597   0.000383
    21  H    0.006115  -0.037541   0.359441  -0.054000  -0.000100  -0.000047
    22  H    0.000532   0.000534  -0.032887   0.360792   0.000145   0.000100
    23  H    0.000755  -0.001659  -0.035774   0.357584  -0.000108   0.000006
    24  H   -0.036198   0.003214  -0.000101  -0.000054   0.362104  -0.037786
    25  H    0.001597   0.000383   0.000284   0.000003  -0.052301   0.362311
    26  H   -0.000100  -0.000047   0.000122  -0.000063   0.006115  -0.037541
    27  H   -0.000108   0.000006   0.000019   0.000194   0.000755  -0.001659
    28  H    0.000145   0.000100  -0.000203   0.000833   0.000532   0.000534
              13         14         15         16         17         18
     1  O    0.000000  -0.000051   0.000969   0.000600   0.000600   0.000969
     2  C    0.000400   0.002722  -0.028222   0.000748   0.000748  -0.028222
     3  C   -0.017743  -0.034544   0.356292  -0.045107   0.003328   0.007019
     4  C   -0.033023   0.361203  -0.033656   0.364840  -0.034546   0.005742
     5  C   -0.002193  -0.032197   0.005742  -0.034546   0.364841  -0.033656
     6  C    0.001205   0.000965   0.007019   0.003328  -0.045107   0.356292
     7  C   -0.008182   0.002437   0.005229   0.000124   0.005126  -0.033101
     8  C    0.000773   0.000610  -0.000038  -0.000076   0.000493   0.000114
     9  C    0.000227   0.000307  -0.000026  -0.000066   0.003934   0.000233
    10  C    0.000307  -0.007756  -0.000044   0.002940  -0.040560   0.000382
    11  C   -0.024169  -0.035403  -0.033101   0.005126   0.000124   0.005229
    12  C    0.698800  -0.035747   0.000114   0.000493  -0.000076  -0.000038
    13  C    4.854146   0.377000   0.000233   0.003934  -0.000066  -0.000026
    14  C    0.377000   5.076083   0.000382  -0.040560   0.002940  -0.000044
    15  H    0.000233   0.000382   0.584688  -0.003845  -0.000239  -0.000148
    16  H    0.003934  -0.040560  -0.003845   0.622769  -0.012665  -0.000239
    17  H   -0.000066   0.002940  -0.000239  -0.012665   0.622769  -0.003845
    18  H   -0.000026  -0.000044  -0.000148  -0.000239  -0.003845   0.584688
    19  H   -0.000101  -0.000054  -0.000193   0.000012  -0.000184  -0.003846
    20  H    0.000284   0.000003   0.000002  -0.000000   0.000013  -0.000018
    21  H    0.000122  -0.000063  -0.000000   0.000003  -0.000156  -0.000012
    22  H   -0.000203   0.000833  -0.000002   0.000361   0.000478  -0.000079
    23  H    0.000019   0.000194   0.000001  -0.000157  -0.006999   0.000913
    24  H    0.004447   0.000312  -0.003846  -0.000184   0.000012  -0.000193
    25  H   -0.042775   0.006649  -0.000018   0.000013  -0.000000   0.000002
    26  H    0.359441  -0.054000  -0.000012  -0.000156   0.000003  -0.000000
    27  H   -0.035774   0.357584   0.000913  -0.006999  -0.000157   0.000001
    28  H   -0.032887   0.360792  -0.000079   0.000479   0.000361  -0.000002
              19         20         21         22         23         24
     1  O    0.000488   0.000000   0.000000   0.000000   0.000001   0.000488
     2  C    0.000551  -0.000108   0.000009  -0.000022  -0.000097   0.000551
     3  C    0.004318  -0.000118  -0.000008   0.000224  -0.000113  -0.045200
     4  C    0.000185  -0.000000  -0.000042  -0.008241   0.004259   0.005530
     5  C    0.005530  -0.000075   0.004374  -0.036886  -0.026294   0.000185
     6  C   -0.045200   0.004453   0.000196   0.004310  -0.002165   0.004318
     7  C    0.362104  -0.052301   0.006115   0.000532   0.000755  -0.036198
     8  C   -0.037786   0.362311  -0.037541   0.000534  -0.001659   0.003214
     9  C    0.004447  -0.042775   0.359441  -0.032887  -0.035774  -0.000101
    10  C    0.000312   0.006649  -0.054000   0.360792   0.357584  -0.000054
    11  C   -0.036198   0.001597  -0.000100   0.000145  -0.000108   0.362104
    12  C    0.003214   0.000383  -0.000047   0.000100   0.000006  -0.037786
    13  C   -0.000101   0.000284   0.000122  -0.000203   0.000019   0.004447
    14  C   -0.000054   0.000003  -0.000063   0.000833   0.000194   0.000312
    15  H   -0.000193   0.000002  -0.000000  -0.000002   0.000001  -0.003846
    16  H    0.000012  -0.000000   0.000003   0.000361  -0.000157  -0.000184
    17  H   -0.000184   0.000013  -0.000156   0.000478  -0.006999   0.000012
    18  H   -0.003846  -0.000018  -0.000012  -0.000079   0.000913  -0.000193
    19  H    0.617397  -0.005417  -0.000174   0.000001   0.000037  -0.010614
    20  H   -0.005417   0.612168  -0.009103  -0.000152  -0.000179   0.000057
    21  H   -0.000174  -0.009103   0.610665  -0.002001   0.000223   0.000004
    22  H    0.000001  -0.000152  -0.002001   0.597171  -0.039838  -0.000002
    23  H    0.000037  -0.000179   0.000223  -0.039838   0.599762   0.000001
    24  H   -0.010614   0.000057   0.000004  -0.000002   0.000001   0.617397
    25  H    0.000057  -0.000326  -0.000001   0.000002  -0.000000  -0.005417
    26  H    0.000004  -0.000001  -0.000018  -0.000001   0.000000  -0.000174
    27  H    0.000001  -0.000000   0.000000  -0.000172  -0.000001   0.000037
    28  H   -0.000002   0.000002  -0.000001   0.006659  -0.000172   0.000001
              25         26         27         28
     1  O    0.000000   0.000000   0.000001   0.000000
     2  C   -0.000108   0.000009  -0.000097  -0.000022
     3  C    0.004453   0.000196  -0.002165   0.004310
     4  C   -0.000075   0.004374  -0.026294  -0.036886
     5  C   -0.000000  -0.000042   0.004259  -0.008241
     6  C   -0.000118  -0.000008  -0.000113   0.000224
     7  C    0.001597  -0.000100  -0.000108   0.000145
     8  C    0.000383  -0.000047   0.000006   0.000100
     9  C    0.000284   0.000122   0.000019  -0.000203
    10  C    0.000003  -0.000063   0.000194   0.000833
    11  C   -0.052301   0.006115   0.000755   0.000532
    12  C    0.362311  -0.037541  -0.001659   0.000534
    13  C   -0.042775   0.359441  -0.035774  -0.032887
    14  C    0.006649  -0.054000   0.357584   0.360792
    15  H   -0.000018  -0.000012   0.000913  -0.000079
    16  H    0.000013  -0.000156  -0.006999   0.000479
    17  H   -0.000000   0.000003  -0.000157   0.000361
    18  H    0.000002  -0.000000   0.000001  -0.000002
    19  H    0.000057   0.000004   0.000001  -0.000002
    20  H   -0.000326  -0.000001  -0.000000   0.000002
    21  H   -0.000001  -0.000018   0.000000  -0.000001
    22  H    0.000002  -0.000001  -0.000172   0.006659
    23  H   -0.000000   0.000000  -0.000001  -0.000172
    24  H   -0.005417  -0.000174   0.000037   0.000001
    25  H    0.612168  -0.009103  -0.000179  -0.000152
    26  H   -0.009103   0.610665   0.000223  -0.002001
    27  H   -0.000179   0.000223   0.599762  -0.039838
    28  H   -0.000152  -0.002001  -0.039838   0.597171
 Mulliken charges:
               1
     1  O   -0.448008
     2  C    0.434221
     3  C   -0.183106
     4  C   -0.117247
     5  C   -0.117247
     6  C   -0.183106
     7  C   -0.149471
     8  C   -0.093226
     9  C   -0.104195
    10  C   -0.310596
    11  C   -0.149471
    12  C   -0.093226
    13  C   -0.104194
    14  C   -0.310596
    15  H    0.141885
    16  H    0.138832
    17  H    0.138832
    18  H    0.141885
    19  H    0.141109
    20  H    0.122650
    21  H    0.122114
    22  H    0.148345
    23  H    0.149800
    24  H    0.141109
    25  H    0.122650
    26  H    0.122114
    27  H    0.149800
    28  H    0.148345
 Sum of Mulliken charges =  -0.00000
 Mulliken charges with hydrogens summed into heavy atoms:
               1
     1  O   -0.448008
     2  C    0.434221
     3  C   -0.041222
     4  C    0.021585
     5  C    0.021585
     6  C   -0.041222
     7  C   -0.008362
     8  C    0.029424
     9  C    0.017919
    10  C   -0.012451
    11  C   -0.008362
    12  C    0.029424
    13  C    0.017919
    14  C   -0.012451
 APT charges:
               1
     1  O   -0.686758
     2  C    0.796649
     3  C   -0.118269
     4  C    0.104818
     5  C    0.104818
     6  C   -0.118269
     7  C    0.112830
     8  C   -0.007293
     9  C    0.008269
    10  C    0.081977
    11  C    0.112830
    12  C   -0.007293
    13  C    0.008270
    14  C    0.081977
    15  H   -0.025628
    16  H   -0.059874
    17  H   -0.059874
    18  H   -0.025628
    19  H   -0.061451
    20  H   -0.008719
    21  H   -0.009326
    22  H   -0.028109
    23  H   -0.044173
    24  H   -0.061451
    25  H   -0.008719
    26  H   -0.009326
    27  H   -0.044173
    28  H   -0.028109
 Sum of APT charges =   0.00000
 APT charges with hydrogens summed into heavy atoms:
               1
     1  O   -0.686758
     2  C    0.796649
     3  C   -0.143897
     4  C    0.044944
     5  C    0.044944
     6  C   -0.143896
     7  C    0.051379
     8  C   -0.016011
     9  C   -0.001056
    10  C    0.009696
    11  C    0.051379
    12  C   -0.016011
    13  C   -0.001056
    14  C    0.009696
 Electronic spatial extent (au):  <R**2>=           2024.3613
 Charge=             -0.0000 electrons
 Dipole moment (field-independent basis, Debye):
    X=              3.0969    Y=              0.0000    Z=             -0.3473  Tot=              3.1164
 Quadrupole moment (field-independent basis, Debye-Ang):
   XX=            -93.6798   YY=            -80.7275   ZZ=            -76.5009
   XY=             -0.0000   XZ=             -0.9704   YZ=             -0.0000
 Traceless Quadrupole moment (field-independent basis, Debye-Ang):
   XX=            -10.0437   YY=              2.9086   ZZ=              7.1352
   XY=             -0.0000   XZ=             -0.9704   YZ=             -0.0000
 Octapole moment (field-independent basis, Debye-Ang**2):
  XXX=             47.6902  YYY=              0.0000  ZZZ=              4.3457  XYY=             -4.0166
  XXY=              0.0000  XXZ=             -0.3199  XZZ=             -3.7198  YZZ=             -0.0001
  YYZ=             -5.0562  XYZ=              0.0000
 Hexadecapole moment (field-independent basis, Debye-Ang**3):
 XXXX=          -1307.4775 YYYY=           -926.9904 ZZZZ=           -624.0096 XXXY=              0.0000
 XXXZ=             -4.5344 YYYX=              0.0000 YYYZ=             -0.0001 ZZZX=              6.2963
 ZZZY=             -0.0001 XXYY=           -321.5717 XXZZ=           -283.5492 YYZZ=           -253.1919
 XXYZ=              0.0000 YYXZ=             -1.8074 ZZXY=             -0.0000
 N-N= 9.270205679885D+02 E-N=-3.197244159354D+03  KE= 5.734908265084D+02
  Exact polarizability: 127.061   0.000 108.745  -5.439  -0.000 120.047
 Approx polarizability: 195.699   0.000 155.556 -20.766  -0.000 201.194
 Calling FoFJK, ICntrl=    100127 FMM=F ISym2X=0 I1Cent= 0 IOpClX= 0 NMat=1 NMatS=1 NMatT=0.
 Full mass-weighted force constant matrix:
 Low frequencies ---  -11.4155   -0.0009   -0.0008   -0.0006    4.1186    4.3712
 Low frequencies ---   54.9523  123.4979  182.8356
 Diagonal vibrational polarizability:
        3.8186919       7.4030712       6.6611974
 Harmonic frequencies (cm**-1), IR intensities (KM/Mole), Raman scattering
 activities (A**4/AMU), depolarization ratios for plane and unpolarized
 incident light, reduced masses (AMU), force constants (mDyne/A),
 and normal coordinates:
                      1                      2                      3
                      A                      A                      A
 Frequencies --     54.9049               123.4978               182.8356
 Red. masses --      2.9122                 7.2207                 3.5738
 Frc consts  --      0.0052                 0.0649                 0.0704
 IR Inten    --      0.0797                 3.2530                 0.0204
  Atom  AN      X      Y      Z        X      Y      Z        X      Y      Z
     1   8    -0.00  -0.01  -0.00    -0.01  -0.00   0.52    -0.03  -0.00   0.01
     2   6    -0.00   0.00  -0.00    -0.00   0.00  -0.03    -0.03   0.00  -0.01
     3   6     0.01   0.01  -0.03     0.00   0.00  -0.18    -0.03  -0.00  -0.01
     4   6     0.05   0.04   0.01     0.10   0.00  -0.10    -0.03   0.00  -0.01
     5   6    -0.05   0.04  -0.01     0.10  -0.00  -0.10    -0.03  -0.00  -0.01
     6   6    -0.01   0.01   0.03     0.00  -0.00  -0.18    -0.03   0.00  -0.01
     7   6     0.05  -0.02  -0.02    -0.09   0.00  -0.11    -0.04   0.00  -0.00
     8   6     0.09  -0.11  -0.09    -0.10   0.01   0.01     0.02  -0.15   0.00
     9   6     0.02  -0.04  -0.11    -0.01   0.01   0.06     0.09  -0.27   0.01
    10   6    -0.11   0.12  -0.08     0.11  -0.01   0.01     0.01  -0.08   0.01
    11   6    -0.05  -0.02   0.02    -0.09  -0.00  -0.11    -0.04  -0.00  -0.00
    12   6    -0.09  -0.11   0.09    -0.10  -0.01   0.01     0.02   0.15   0.00
    13   6    -0.02  -0.04   0.11    -0.01  -0.01   0.06     0.09   0.27   0.01
    14   6     0.11   0.12   0.08     0.11   0.01   0.01     0.01   0.08   0.01
    15   1     0.01   0.00  -0.06     0.00   0.00  -0.19    -0.03  -0.00  -0.02
    16   1     0.12  -0.00  -0.01     0.18  -0.00  -0.15    -0.01  -0.02  -0.01
    17   1    -0.12  -0.00   0.01     0.18   0.00  -0.15    -0.01   0.02  -0.01
    18   1    -0.01   0.00   0.06     0.00  -0.00  -0.19    -0.03   0.00  -0.02
    19   1     0.12   0.02   0.01    -0.18  -0.00  -0.16    -0.03   0.03  -0.00
    20   1     0.19  -0.24  -0.12    -0.19   0.03   0.05     0.07  -0.28   0.00
    21   1     0.05  -0.10  -0.14    -0.02   0.02   0.14     0.19  -0.47   0.01
    22   1    -0.16   0.26  -0.24     0.16  -0.02   0.08    -0.06  -0.03  -0.11
    23   1    -0.23   0.18   0.07     0.16  -0.01  -0.02     0.03  -0.00   0.15
    24   1    -0.12   0.02  -0.01    -0.18   0.00  -0.16    -0.03  -0.03  -0.00
    25   1    -0.19  -0.24   0.12    -0.19  -0.03   0.05     0.07   0.28   0.00
    26   1    -0.05  -0.10   0.14    -0.02  -0.02   0.14     0.19   0.47   0.01
    27   1     0.23   0.18  -0.07     0.16   0.01  -0.02     0.03   0.00   0.15
    28   1     0.16   0.26   0.24     0.16   0.02   0.08    -0.06   0.03  -0.11
                      4                      5                      6
                      A                      A                      A
 Frequencies --    237.4810               287.0853               308.9821
 Red. masses --      4.5801                 2.2721                 2.7806
 Frc consts  --      0.1522                 0.1103                 0.1564
 IR Inten    --      0.7243                 0.0061                 0.3265
  Atom  AN      X      Y      Z        X      Y      Z        X      Y      Z
     1   8    -0.00   0.29   0.00     0.01   0.00   0.01    -0.00   0.16   0.00
     2   6    -0.00   0.06   0.00     0.01   0.00  -0.02    -0.00   0.03   0.00
     3   6    -0.08  -0.07  -0.04     0.01   0.00  -0.03     0.01  -0.02   0.08
     4   6     0.00  -0.09  -0.00     0.03  -0.01  -0.01     0.01  -0.09   0.04
     5   6    -0.00  -0.09   0.00     0.03   0.01  -0.01    -0.01  -0.09  -0.04
     6   6     0.08  -0.07   0.04     0.01  -0.00  -0.03    -0.01  -0.02  -0.08
     7   6     0.04  -0.16   0.02    -0.01  -0.01  -0.02    -0.07   0.04  -0.02
     8   6    -0.01  -0.05  -0.01     0.03  -0.09   0.01    -0.09   0.03   0.05
     9   6    -0.14   0.16  -0.03     0.00   0.03   0.03    -0.03  -0.12   0.05
    10   6    -0.05  -0.02  -0.04    -0.07   0.19   0.03    -0.09   0.03   0.04
    11   6    -0.04  -0.16  -0.02    -0.01   0.01  -0.02     0.07   0.04   0.02
    12   6     0.01  -0.05   0.01     0.03   0.09   0.01     0.09   0.03  -0.05
    13   6     0.14   0.16   0.03     0.00  -0.03   0.03     0.03  -0.12  -0.05
    14   6     0.05  -0.02   0.04    -0.07  -0.19   0.03     0.09   0.03  -0.04
    15   1    -0.16  -0.04  -0.08     0.01   0.00  -0.04     0.01  -0.02   0.14
    16   1     0.07  -0.11  -0.04     0.03   0.03  -0.02    -0.01  -0.14   0.07
    17   1    -0.07  -0.11   0.04     0.03  -0.03  -0.02     0.01  -0.14  -0.07
    18   1     0.16  -0.04   0.08     0.01  -0.00  -0.04    -0.01  -0.02  -0.14
    19   1     0.05  -0.17   0.03    -0.00   0.01  -0.03    -0.17   0.02  -0.07
    20   1    -0.00   0.04  -0.03     0.09  -0.27   0.01    -0.09  -0.01   0.06
    21   1    -0.25   0.39  -0.04     0.03  -0.02   0.04     0.03  -0.23   0.04
    22   1     0.03  -0.05   0.08    -0.04   0.40  -0.12    -0.07   0.29  -0.14
    23   1    -0.08  -0.09  -0.17    -0.27   0.25   0.21    -0.28   0.12   0.27
    24   1    -0.05  -0.17  -0.03    -0.00  -0.01  -0.03     0.17   0.02   0.07
    25   1     0.00   0.04   0.03     0.09   0.27   0.01     0.09  -0.01  -0.06
    26   1     0.25   0.39   0.04     0.03   0.02   0.04    -0.03  -0.23  -0.04
    27   1     0.08  -0.09   0.17    -0.27  -0.25   0.21     0.28   0.12  -0.27
    28   1    -0.03  -0.05  -0.08    -0.04  -0.40  -0.12     0.07   0.29   0.14
                      7                      8                      9
                      A                      A                      A
 Frequencies --    382.6481               430.6917               435.9917
 Red. masses --      3.5956                 2.3281                 3.6547
 Frc consts  --      0.3102                 0.2544                 0.4093
 IR Inten    --      0.2927                 0.2418                 2.1987
  Atom  AN      X      Y      Z        X      Y      Z        X      Y      Z
     1   8    -0.00  -0.07  -0.00     0.03  -0.00  -0.00    -0.00   0.02  -0.00
     2   6    -0.00  -0.03   0.00     0.03  -0.00   0.00    -0.00   0.04   0.00
     3   6    -0.06  -0.04   0.15     0.01   0.00  -0.00     0.04   0.05   0.13
     4   6    -0.09  -0.09   0.06     0.01   0.00  -0.00     0.01   0.13   0.10
     5   6     0.09  -0.09  -0.06     0.01  -0.00  -0.00    -0.01   0.13  -0.10
     6   6     0.06  -0.04  -0.15     0.01  -0.00  -0.00    -0.04   0.05  -0.13
     7   6     0.05   0.01  -0.10     0.01   0.04   0.01    -0.09  -0.06  -0.09
     8   6     0.10  -0.07   0.01    -0.06   0.19   0.01    -0.13  -0.13  -0.05
     9   6     0.06   0.14   0.06     0.06  -0.10  -0.01    -0.10  -0.01   0.00
    10   6     0.06   0.08   0.06    -0.03   0.04  -0.00     0.06   0.03  -0.06
    11   6    -0.05   0.01   0.10     0.01  -0.04   0.01     0.09  -0.06   0.09
    12   6    -0.10  -0.07  -0.01    -0.06  -0.19   0.01     0.13  -0.13   0.05
    13   6    -0.06   0.14  -0.06     0.06   0.10  -0.01     0.10  -0.01  -0.00
    14   6    -0.06   0.08  -0.06    -0.03  -0.04  -0.00    -0.06   0.03   0.06
    15   1    -0.09  -0.02   0.19    -0.01   0.01  -0.02     0.06   0.04  -0.00
    16   1    -0.21  -0.11   0.14    -0.00   0.01   0.00    -0.05   0.07   0.15
    17   1     0.21  -0.11  -0.14    -0.00  -0.01   0.00     0.05   0.07  -0.15
    18   1     0.09  -0.02  -0.19    -0.01  -0.01  -0.02    -0.06   0.04   0.00
    19   1     0.02   0.12  -0.16    -0.05  -0.02  -0.00    -0.15  -0.04  -0.13
    20   1     0.06  -0.19   0.06    -0.13   0.38   0.01    -0.09  -0.31  -0.03
    21   1     0.03   0.20   0.07     0.08  -0.13  -0.03    -0.06  -0.10   0.13
    22   1     0.16   0.27   0.03    -0.09   0.25  -0.23     0.08  -0.17   0.12
    23   1    -0.13   0.07   0.10    -0.18   0.15   0.27     0.27  -0.00  -0.21
    24   1    -0.02   0.12   0.16    -0.05   0.02  -0.00     0.15  -0.04   0.13
    25   1    -0.06  -0.19  -0.06    -0.13  -0.38   0.01     0.09  -0.31   0.03
    26   1    -0.03   0.20  -0.07     0.08   0.13  -0.03     0.06  -0.10  -0.13
    27   1     0.13   0.07  -0.10    -0.18  -0.15   0.27    -0.27  -0.00   0.21
    28   1    -0.16   0.27  -0.03    -0.09  -0.25  -0.23    -0.08  -0.17  -0.12
                     10                     11                     12
                      A                      A                      A
 Frequencies --    441.7462               500.7060               522.3812
 Red. masses --      8.5339                 3.6686                 6.1145
 Frc consts  --      0.9812                 0.5419                 0.9831
 IR Inten    --      0.1197                 0.2657                 0.0193
  Atom  AN      X      Y      Z        X      Y      Z        X      Y      Z
     1   8     0.38   0.00   0.01    -0.00  -0.12  -0.00    -0.02   0.00   0.02
     2   6     0.34   0.00   0.00    -0.00   0.16   0.00    -0.02  -0.00  -0.03
     3   6     0.18   0.01   0.01    -0.02   0.15  -0.00    -0.01  -0.00   0.11
     4   6    -0.03   0.01  -0.12     0.05  -0.08   0.02     0.19  -0.00   0.18
     5   6    -0.03  -0.01  -0.12    -0.05  -0.08  -0.02     0.19   0.00   0.18
     6   6     0.18  -0.01   0.01     0.02   0.15   0.00    -0.01   0.00   0.11
     7   6    -0.07  -0.02   0.14     0.00   0.09   0.04    -0.16   0.03   0.15
     8   6    -0.11  -0.08   0.08     0.06  -0.08   0.09    -0.13  -0.04  -0.17
     9   6    -0.25  -0.09  -0.01    -0.13   0.03   0.03    -0.01  -0.00  -0.12
    10   6    -0.10  -0.04  -0.10    -0.11  -0.07   0.03     0.13   0.09  -0.14
    11   6    -0.07   0.02   0.14    -0.00   0.09  -0.04    -0.16  -0.03   0.15
    12   6    -0.11   0.08   0.08    -0.06  -0.08  -0.09    -0.13   0.04  -0.17
    13   6    -0.25   0.09  -0.01     0.13   0.03  -0.03    -0.01   0.00  -0.12
    14   6    -0.10   0.04  -0.10     0.11  -0.07  -0.03     0.13  -0.09  -0.14
    15   1     0.10   0.04   0.00    -0.19   0.22   0.10    -0.02  -0.00   0.04
    16   1    -0.19  -0.04  -0.00     0.07  -0.14   0.02     0.10   0.13   0.19
    17   1    -0.19   0.04  -0.00    -0.07  -0.14  -0.02     0.10  -0.13   0.19
    18   1     0.10  -0.04   0.00     0.19   0.22  -0.10    -0.02   0.00   0.04
    19   1    -0.20   0.07   0.02    -0.00   0.08   0.04    -0.05   0.11   0.18
    20   1     0.04  -0.08   0.00     0.20  -0.31   0.06    -0.01  -0.08  -0.22
    21   1    -0.23  -0.12  -0.01    -0.07  -0.08  -0.07     0.03  -0.11   0.11
    22   1     0.01  -0.00  -0.01    -0.03  -0.16   0.19     0.09   0.05  -0.16
    23   1    -0.06  -0.03  -0.08    -0.05  -0.14  -0.12     0.05   0.06  -0.18
    24   1    -0.20  -0.07   0.02     0.00   0.08  -0.04    -0.05  -0.11   0.18
    25   1     0.04   0.08   0.00    -0.20  -0.31  -0.06    -0.01   0.08  -0.22
    26   1    -0.23   0.12  -0.01     0.07  -0.08   0.07     0.03   0.11   0.11
    27   1    -0.06   0.03  -0.08     0.05  -0.14   0.12     0.05  -0.06  -0.18
    28   1     0.01   0.00  -0.01     0.03  -0.16  -0.19     0.09  -0.05  -0.16
                     13                     14                     15
                      A                      A                      A
 Frequencies --    534.7713               625.4761               649.2399
 Red. masses --      2.5385                 4.9483                 2.7283
 Frc consts  --      0.4277                 1.1406                 0.6776
 IR Inten    --     21.7299                 0.4880                13.9109
  Atom  AN      X      Y      Z        X      Y      Z        X      Y      Z
     1   8     0.00   0.13   0.00     0.25  -0.00   0.00     0.00   0.01   0.00
     2   6     0.00  -0.14  -0.00     0.20   0.00   0.01     0.00   0.00  -0.00
     3   6     0.10  -0.08  -0.00    -0.11  -0.09  -0.00     0.03   0.02   0.08
     4   6     0.06   0.02  -0.03    -0.07  -0.06   0.16     0.10   0.09   0.08
     5   6    -0.06   0.02   0.03    -0.07   0.06   0.16    -0.10   0.09  -0.08
     6   6    -0.10  -0.08   0.00    -0.11   0.09  -0.00    -0.03   0.02  -0.08
     7   6    -0.02   0.11  -0.02    -0.06   0.08  -0.16     0.08  -0.06  -0.08
     8   6     0.06  -0.03   0.01    -0.04   0.01  -0.09     0.08   0.01   0.06
     9   6     0.01   0.06   0.02     0.09   0.06   0.00     0.02  -0.05   0.02
    10   6    -0.04  -0.02   0.06    -0.04  -0.00   0.09    -0.09  -0.06   0.06
    11   6     0.02   0.11   0.02    -0.06  -0.08  -0.16    -0.08  -0.06   0.08
    12   6    -0.06  -0.03  -0.01    -0.04  -0.01  -0.09    -0.08   0.01  -0.06
    13   6    -0.01   0.06  -0.02     0.09  -0.06   0.00    -0.02  -0.05  -0.02
    14   6     0.04  -0.02  -0.06    -0.04   0.00   0.09     0.09  -0.06  -0.06
    15   1     0.33  -0.18   0.06    -0.39   0.04  -0.02     0.05   0.01  -0.06
    16   1     0.03   0.01  -0.02     0.01   0.03   0.08     0.03   0.02   0.15
    17   1    -0.03   0.01   0.02     0.01  -0.03   0.08    -0.03   0.02  -0.15
    18   1    -0.33  -0.18  -0.06    -0.39  -0.04  -0.02    -0.05   0.01   0.06
    19   1     0.02   0.14  -0.02    -0.00  -0.03  -0.09     0.04   0.01  -0.14
    20   1     0.13  -0.30   0.02    -0.09  -0.22  -0.02    -0.13   0.39   0.09
    21   1     0.09  -0.11  -0.04     0.16  -0.10   0.01    -0.14   0.30  -0.13
    22   1    -0.04  -0.22   0.20    -0.14  -0.18   0.12    -0.17  -0.13   0.02
    23   1     0.10  -0.10  -0.15     0.03  -0.07  -0.07     0.08  -0.00   0.12
    24   1    -0.02   0.14   0.02    -0.00   0.03  -0.09    -0.04   0.01   0.14
    25   1    -0.13  -0.30  -0.02    -0.09   0.22  -0.02     0.13   0.39  -0.09
    26   1    -0.09  -0.11   0.04     0.16   0.10   0.01     0.14   0.30   0.13
    27   1    -0.10  -0.10   0.15     0.03   0.07  -0.07    -0.08  -0.00  -0.12
    28   1     0.04  -0.22  -0.20    -0.14   0.18   0.12     0.17  -0.13  -0.02
                     16                     17                     18
                      A                      A                      A
 Frequencies --    662.1782               700.0487               712.8054
 Red. masses --      2.3418                 2.5043                 4.0975
 Frc consts  --      0.6050                 0.7231                 1.2266
 IR Inten    --      2.6861                 3.5097                 7.2898
  Atom  AN      X      Y      Z        X      Y      Z        X      Y      Z
     1   8     0.01  -0.00   0.01     0.03   0.00  -0.02    -0.00   0.01   0.00
     2   6     0.01   0.00  -0.06     0.02   0.00   0.14    -0.00   0.13  -0.00
     3   6     0.03   0.02  -0.02    -0.02  -0.00   0.07     0.15   0.09  -0.02
     4   6     0.05   0.10   0.11    -0.05  -0.09  -0.06    -0.01  -0.07  -0.12
     5   6     0.05  -0.10   0.11    -0.05   0.09  -0.06     0.01  -0.07   0.12
     6   6     0.03  -0.02  -0.02    -0.02   0.00   0.07    -0.15   0.09   0.02
     7   6     0.01  -0.08  -0.05     0.02  -0.10  -0.06    -0.06  -0.02  -0.07
     8   6    -0.00  -0.08  -0.04    -0.07  -0.07  -0.04    -0.07  -0.10  -0.17
     9   6    -0.02  -0.03  -0.02     0.03  -0.04   0.03     0.09   0.04  -0.01
    10   6    -0.05  -0.09   0.05     0.08   0.05  -0.03    -0.02  -0.06   0.13
    11   6     0.01   0.08  -0.05     0.02   0.10  -0.06     0.06  -0.02   0.07
    12   6    -0.00   0.08  -0.04    -0.07   0.07  -0.04     0.07  -0.10   0.17
    13   6    -0.02   0.03  -0.02     0.03   0.04   0.03    -0.09   0.04   0.01
    14   6    -0.05   0.09   0.05     0.08  -0.05  -0.03     0.02  -0.06  -0.13
    15   1     0.12  -0.01  -0.04    -0.04   0.01   0.24     0.05   0.14   0.03
    16   1     0.10   0.12   0.07    -0.08  -0.14  -0.02    -0.15   0.01  -0.06
    17   1     0.10  -0.12   0.07    -0.08   0.14  -0.02     0.15   0.01   0.06
    18   1     0.12   0.01  -0.04    -0.04  -0.01   0.24    -0.05   0.14  -0.03
    19   1     0.05  -0.04  -0.04     0.07  -0.12  -0.02     0.14   0.03   0.04
    20   1    -0.17   0.24  -0.02    -0.28   0.24   0.01    -0.28   0.04  -0.09
    21   1    -0.19   0.35  -0.04    -0.13   0.28   0.18    -0.06   0.33   0.07
    22   1    -0.09   0.08  -0.13     0.03   0.06  -0.09    -0.12   0.02  -0.04
    23   1    -0.26  -0.06   0.20     0.16   0.12   0.09    -0.18  -0.06   0.18
    24   1     0.05   0.04  -0.04     0.07   0.12  -0.02    -0.14   0.03  -0.04
    25   1    -0.17  -0.24  -0.02    -0.28  -0.24   0.01     0.28   0.04   0.09
    26   1    -0.19  -0.35  -0.04    -0.13  -0.28   0.18     0.06   0.33  -0.07
    27   1    -0.26   0.06   0.20     0.16  -0.12   0.09     0.18  -0.06  -0.18
    28   1    -0.09  -0.08  -0.13     0.03  -0.06  -0.09     0.12   0.02   0.04
                     19                     20                     21
                      A                      A                      A
 Frequencies --    752.0560               775.5575               785.4807
 Red. masses --      2.9348                 2.1575                 3.6589
 Frc consts  --      0.9780                 0.7646                 1.3301
 IR Inten    --      1.4103                13.0318                 1.1438
  Atom  AN      X      Y      Z        X      Y      Z        X      Y      Z
     1   8    -0.03  -0.00  -0.05    -0.00   0.02  -0.00     0.02  -0.00  -0.06
     2   6    -0.03   0.00   0.25    -0.00  -0.06   0.00     0.01  -0.00   0.32
     3   6     0.08   0.04   0.03     0.06   0.02  -0.01    -0.06  -0.02  -0.03
     4   6     0.05   0.08   0.02    -0.04  -0.00   0.03     0.03   0.10  -0.08
     5   6     0.05  -0.08   0.02     0.04  -0.00  -0.03     0.03  -0.10  -0.08
     6   6     0.08  -0.04   0.03    -0.06   0.02   0.01    -0.06   0.02  -0.03
     7   6     0.05  -0.03  -0.13    -0.02   0.09   0.08    -0.09   0.15   0.03
     8   6    -0.10   0.05  -0.02     0.04  -0.10   0.04     0.05  -0.06  -0.01
     9   6    -0.05   0.01   0.01    -0.06  -0.05   0.00     0.03   0.03  -0.00
    10   6    -0.01  -0.00   0.01     0.07  -0.01  -0.06     0.04  -0.05  -0.00
    11   6     0.05   0.03  -0.13     0.02   0.09  -0.08    -0.09  -0.15   0.03
    12   6    -0.10  -0.05  -0.02    -0.04  -0.10  -0.04     0.05   0.06  -0.01
    13   6    -0.05  -0.01   0.01     0.06  -0.05  -0.00     0.03  -0.03  -0.00
    14   6    -0.01   0.00   0.01    -0.07  -0.01   0.06     0.04   0.05  -0.00
    15   1     0.25  -0.03   0.01     0.24  -0.05   0.08    -0.17   0.03  -0.26
    16   1     0.03   0.09   0.03    -0.04  -0.03   0.04     0.10   0.04  -0.11
    17   1     0.03  -0.09   0.03     0.04  -0.03  -0.04     0.10  -0.04  -0.11
    18   1     0.25   0.03   0.01    -0.24  -0.05  -0.08    -0.17  -0.03  -0.26
    19   1    -0.02  -0.16  -0.13     0.05   0.06   0.14    -0.05   0.25   0.02
    20   1     0.00  -0.33  -0.01    -0.04   0.26   0.01    -0.02   0.11   0.00
    21   1     0.13  -0.38   0.04    -0.26   0.37   0.06    -0.09   0.28  -0.01
    22   1     0.06   0.00   0.09     0.10   0.15  -0.15     0.08   0.16  -0.12
    23   1    -0.07  -0.05  -0.07    -0.02   0.06   0.10    -0.16  -0.02   0.14
    24   1    -0.02   0.16  -0.13    -0.05   0.06  -0.14    -0.05  -0.25   0.02
    25   1     0.00   0.33  -0.01     0.04   0.26  -0.01    -0.02  -0.11   0.00
    26   1     0.13   0.38   0.04     0.26   0.37  -0.06    -0.09  -0.28  -0.01
    27   1    -0.07   0.05  -0.07     0.02   0.06  -0.10    -0.16   0.02   0.14
    28   1     0.06  -0.00   0.09    -0.10   0.15   0.15     0.08  -0.16  -0.12
                     22                     23                     24
                      A                      A                      A
 Frequencies --    826.0956               871.3586               888.1063
 Red. masses --      3.0464                 4.6153                 2.5166
 Frc consts  --      1.2249                 2.0647                 1.1695
 IR Inten    --      1.3703                 6.1966                 7.4459
  Atom  AN      X      Y      Z        X      Y      Z        X      Y      Z
     1   8    -0.00  -0.02  -0.00     0.06   0.00   0.01    -0.03  -0.00   0.00
     2   6    -0.00  -0.06   0.00     0.06  -0.00  -0.06    -0.03   0.00  -0.02
     3   6    -0.18  -0.06   0.00    -0.08   0.23   0.03     0.15  -0.00   0.01
     4   6    -0.02   0.07  -0.12    -0.03   0.10  -0.12    -0.10  -0.00   0.00
     5   6     0.02   0.07   0.12    -0.03  -0.10  -0.12    -0.10   0.00   0.00
     6   6     0.18  -0.06  -0.00    -0.08  -0.23   0.03     0.15   0.00   0.01
     7   6    -0.01   0.11  -0.08    -0.02  -0.12   0.11    -0.09   0.04   0.01
     8   6    -0.04  -0.07  -0.04    -0.05   0.03  -0.11    -0.02  -0.02  -0.04
     9   6    -0.07  -0.05  -0.02     0.10   0.09   0.00     0.12   0.07   0.04
    10   6    -0.03  -0.01   0.04     0.01  -0.05   0.09    -0.02  -0.01  -0.01
    11   6     0.01   0.11   0.08    -0.02   0.12   0.11    -0.09  -0.04   0.01
    12   6     0.04  -0.07   0.04    -0.05  -0.03  -0.11    -0.02   0.02  -0.04
    13   6     0.07  -0.05   0.02     0.10  -0.09   0.00     0.12  -0.07   0.04
    14   6     0.03  -0.01  -0.04     0.01   0.05   0.09    -0.02   0.01  -0.01
    15   1    -0.26  -0.03   0.06    -0.16   0.27   0.11     0.42  -0.11  -0.02
    16   1     0.08   0.23  -0.23     0.02  -0.12  -0.08    -0.24  -0.13   0.13
    17   1    -0.08   0.23   0.23     0.02   0.12  -0.08    -0.24   0.13   0.13
    18   1     0.26  -0.03  -0.06    -0.16  -0.27   0.11     0.42   0.11  -0.02
    19   1    -0.06   0.29  -0.18     0.06   0.01   0.11    -0.16   0.20  -0.09
    20   1    -0.13   0.09  -0.02     0.01  -0.21  -0.10    -0.15  -0.02   0.03
    21   1    -0.18   0.16   0.01     0.22  -0.16   0.04     0.12   0.08   0.10
    22   1    -0.09  -0.06   0.01     0.06   0.10   0.03    -0.10  -0.04  -0.08
    23   1     0.02   0.01   0.06    -0.16  -0.07   0.11    -0.06  -0.03  -0.03
    24   1     0.06   0.29   0.18     0.06  -0.01   0.11    -0.16  -0.20  -0.09
    25   1     0.13   0.09   0.02     0.01   0.21  -0.10    -0.15   0.02   0.03
    26   1     0.18   0.16  -0.01     0.22   0.16   0.04     0.12  -0.08   0.10
    27   1    -0.02   0.01  -0.06    -0.16   0.07   0.11    -0.06   0.03  -0.03
    28   1     0.09  -0.06  -0.01     0.06  -0.10   0.03    -0.10   0.04  -0.08
                     25                     26                     27
                      A                      A                      A
 Frequencies --    899.5703               920.9724               941.2300
 Red. masses --      2.4362                 2.6294                 2.5354
 Frc consts  --      1.1615                 1.3140                 1.3234
 IR Inten    --      1.5491                 0.8740                 0.5780
  Atom  AN      X      Y      Z        X      Y      Z        X      Y      Z
     1   8    -0.00   0.01  -0.00    -0.02  -0.00  -0.01     0.02   0.00  -0.01
     2   6    -0.00  -0.03   0.00    -0.01   0.00   0.07     0.02  -0.00   0.07
     3   6     0.01   0.01   0.05     0.05   0.06  -0.04    -0.03   0.15  -0.06
     4   6    -0.11   0.06  -0.01     0.03  -0.07  -0.01     0.01   0.04   0.06
     5   6     0.11   0.06   0.01     0.03   0.07  -0.01     0.01  -0.04   0.06
     6   6    -0.01   0.01  -0.05     0.05  -0.06  -0.04    -0.03  -0.15  -0.06
     7   6     0.03  -0.04   0.04     0.00   0.04   0.04    -0.02  -0.04  -0.01
     8   6     0.02   0.05  -0.04    -0.01  -0.02  -0.10     0.04  -0.01   0.07
     9   6    -0.11  -0.02  -0.09    -0.02  -0.06  -0.07     0.06  -0.03   0.03
    10   6    -0.01  -0.05   0.12    -0.06   0.07   0.16    -0.05   0.09  -0.10
    11   6    -0.03  -0.04  -0.04     0.00  -0.04   0.04    -0.02   0.04  -0.01
    12   6    -0.02   0.05   0.04    -0.01   0.02  -0.10     0.04   0.01   0.07
    13   6     0.11  -0.02   0.09    -0.02   0.06  -0.07     0.06   0.03   0.03
    14   6     0.01  -0.05  -0.12    -0.06  -0.07   0.16    -0.05  -0.09  -0.10
    15   1     0.12  -0.03   0.02     0.12   0.03  -0.08    -0.09   0.18  -0.17
    16   1    -0.31   0.17   0.08     0.10  -0.09  -0.05    -0.08   0.17   0.07
    17   1     0.31   0.17  -0.08     0.10   0.09  -0.05    -0.08  -0.17   0.07
    18   1    -0.12  -0.03  -0.02     0.12  -0.03  -0.08    -0.09  -0.18  -0.17
    19   1     0.03  -0.09   0.06     0.01   0.19  -0.01    -0.12   0.00  -0.08
    20   1     0.28  -0.05  -0.16     0.00   0.20  -0.15    -0.12   0.19   0.12
    21   1    -0.05  -0.15  -0.25    -0.08   0.05  -0.15     0.03   0.04   0.05
    22   1     0.09   0.12   0.09    -0.08  -0.19   0.34    -0.17  -0.25   0.02
    23   1    -0.08  -0.02   0.21     0.30   0.05  -0.01     0.14  -0.01  -0.34
    24   1    -0.03  -0.09  -0.06     0.01  -0.19  -0.01    -0.12  -0.00  -0.08
    25   1    -0.28  -0.05   0.16     0.00  -0.20  -0.15    -0.12  -0.19   0.12
    26   1     0.05  -0.15   0.25    -0.08  -0.05  -0.15     0.03  -0.04   0.05
    27   1     0.08  -0.02  -0.21     0.30  -0.05  -0.01     0.14   0.01  -0.34
    28   1    -0.09   0.12  -0.09    -0.08   0.19   0.34    -0.17   0.25   0.02
                     28                     29                     30
                      A                      A                      A
 Frequencies --    947.0878               973.5671               996.4011
 Red. masses --      2.3937                 1.8083                 1.2558
 Frc consts  --      1.2650                 1.0098                 0.7346
 IR Inten    --      0.7469                 2.7906                 0.6928
  Atom  AN      X      Y      Z        X      Y      Z        X      Y      Z
     1   8    -0.00  -0.00   0.00     0.00  -0.00   0.00     0.00   0.00  -0.00
     2   6    -0.00   0.03  -0.00     0.00   0.03  -0.00     0.00  -0.00   0.01
     3   6    -0.00  -0.01   0.14     0.00  -0.02  -0.02    -0.01  -0.03   0.00
     4   6    -0.01   0.01  -0.09     0.01  -0.06   0.05     0.01   0.00  -0.01
     5   6     0.01   0.01   0.09    -0.01  -0.06  -0.05     0.01  -0.00  -0.01
     6   6     0.00  -0.01  -0.14    -0.00  -0.02   0.02    -0.01   0.03   0.00
     7   6    -0.08  -0.04   0.11     0.04   0.02   0.03    -0.01  -0.02   0.00
     8   6     0.05  -0.01   0.02    -0.01  -0.04  -0.06     0.03  -0.06  -0.01
     9   6     0.06  -0.01  -0.02    -0.02  -0.04  -0.02    -0.02   0.06   0.00
    10   6    -0.05   0.06  -0.01    -0.01   0.11   0.08    -0.01  -0.00   0.01
    11   6     0.08  -0.04  -0.11    -0.04   0.02  -0.03    -0.01   0.02   0.00
    12   6    -0.05  -0.01  -0.02     0.01  -0.04   0.06     0.03   0.06  -0.01
    13   6    -0.06  -0.01   0.02     0.02  -0.04   0.02    -0.02  -0.06   0.00
    14   6     0.05   0.06   0.01     0.01   0.11  -0.08    -0.01   0.00   0.01
    15   1    -0.07   0.02   0.41    -0.04  -0.00   0.03     0.02  -0.05   0.04
    16   1    -0.00   0.06  -0.12    -0.00  -0.12   0.08     0.03   0.02  -0.03
    17   1     0.00   0.06   0.12     0.00  -0.12  -0.08     0.03  -0.02  -0.03
    18   1     0.07   0.02  -0.41     0.04  -0.00  -0.03     0.02   0.05   0.04
    19   1    -0.16  -0.19   0.12     0.16   0.07   0.08     0.01  -0.01   0.01
    20   1     0.07   0.16  -0.02    -0.12   0.35  -0.08    -0.19   0.45   0.01
    21   1     0.02   0.10  -0.04     0.03  -0.17   0.01     0.21  -0.44  -0.03
    22   1    -0.20  -0.21   0.03     0.10  -0.09   0.35     0.03   0.02   0.03
    23   1     0.08  -0.01  -0.19     0.26   0.06  -0.11    -0.05  -0.02  -0.02
    24   1     0.16  -0.19  -0.12    -0.16   0.07  -0.08     0.01   0.01   0.01
    25   1    -0.07   0.16   0.02     0.12   0.35   0.08    -0.19  -0.45   0.01
    26   1    -0.02   0.10   0.04    -0.03  -0.17  -0.01     0.21   0.44  -0.03
    27   1    -0.08  -0.01   0.19    -0.26   0.06   0.11    -0.05   0.02  -0.02
    28   1     0.20  -0.21  -0.03    -0.10  -0.09  -0.35     0.03  -0.02   0.03
                     31                     32                     33
                      A                      A                      A
 Frequencies --    999.5098              1021.5053              1021.9016
 Red. masses --      1.3891                 5.5921                 3.5520
 Frc consts  --      0.8176                 3.4380                 2.1855
 IR Inten    --      0.2517                 0.4166                 0.2857
  Atom  AN      X      Y      Z        X      Y      Z        X      Y      Z
     1   8     0.00  -0.00  -0.00    -0.00  -0.01   0.00     0.02  -0.00  -0.02
     2   6     0.00   0.01   0.00    -0.00  -0.04  -0.00     0.01  -0.00   0.13
     3   6    -0.00  -0.01  -0.01    -0.14  -0.05  -0.01    -0.02  -0.13  -0.09
     4   6     0.01  -0.02   0.02     0.10   0.07   0.21     0.03  -0.04  -0.01
     5   6    -0.01  -0.02  -0.02    -0.10   0.07  -0.21     0.03   0.04  -0.01
     6   6     0.00  -0.01   0.01     0.14  -0.05   0.01    -0.02   0.13  -0.09
     7   6     0.01   0.01   0.01    -0.13   0.06   0.20    -0.11  -0.22   0.08
     8   6    -0.03   0.07  -0.01    -0.04  -0.06  -0.12     0.03   0.06   0.02
     9   6     0.03  -0.08  -0.01     0.11   0.11   0.00     0.07   0.01  -0.03
    10   6     0.00   0.04   0.03    -0.02  -0.11   0.10    -0.05  -0.01   0.01
    11   6    -0.01   0.01  -0.01     0.13   0.05  -0.20    -0.11   0.22   0.08
    12   6     0.03   0.07   0.01     0.04  -0.06   0.12     0.03  -0.06   0.02
    13   6    -0.03  -0.08   0.01    -0.11   0.11  -0.00     0.07  -0.01  -0.03
    14   6    -0.00   0.04  -0.03     0.02  -0.11  -0.10    -0.05   0.01   0.01
    15   1    -0.03  -0.00   0.01    -0.15  -0.05  -0.06     0.17  -0.22   0.07
    16   1     0.01  -0.05   0.03     0.09   0.04   0.23     0.22   0.09  -0.17
    17   1    -0.01  -0.05  -0.03    -0.10   0.04  -0.23     0.22  -0.09  -0.17
    18   1     0.03  -0.00  -0.01     0.15  -0.05   0.06     0.17   0.22   0.07
    19   1     0.03   0.00   0.03    -0.16  -0.02   0.21    -0.24  -0.16  -0.02
    20   1     0.20  -0.39  -0.05    -0.00  -0.03  -0.14     0.22  -0.10  -0.04
    21   1    -0.22   0.45   0.00     0.12   0.08   0.01     0.05   0.09  -0.17
    22   1     0.01  -0.05   0.10    -0.05   0.07  -0.08    -0.15  -0.09  -0.04
    23   1     0.15   0.05  -0.01    -0.07  -0.04   0.26    -0.02  -0.04  -0.05
    24   1    -0.03   0.00  -0.03     0.16  -0.02  -0.21    -0.24   0.16  -0.02
    25   1    -0.20  -0.39   0.05     0.00  -0.03   0.14     0.22   0.10  -0.04
    26   1     0.22   0.45  -0.00    -0.12   0.08  -0.01     0.05  -0.09  -0.17
    27   1    -0.15   0.05   0.01     0.07  -0.04  -0.26    -0.02   0.04  -0.05
    28   1    -0.01  -0.05  -0.10     0.05   0.07   0.08    -0.15   0.09  -0.04
                     34                     35                     36
                      A                      A                      A
 Frequencies --   1041.6455              1063.6611              1073.2500
 Red. masses --      2.0836                 2.7890                 1.8155
 Frc consts  --      1.3320                 1.8591                 1.2321
 IR Inten    --      1.2715                 0.0074                 6.8993
  Atom  AN      X      Y      Z        X      Y      Z        X      Y      Z
     1   8     0.01  -0.00   0.00     0.00  -0.00   0.02     0.00   0.00   0.00
     2   6     0.01   0.00  -0.02     0.00  -0.00  -0.08     0.00  -0.02  -0.00
     3   6    -0.03  -0.09  -0.04    -0.01  -0.03   0.16    -0.01   0.01   0.06
     4   6    -0.02   0.08  -0.03     0.11   0.06  -0.11     0.06   0.02  -0.02
     5   6    -0.02  -0.08  -0.03     0.11  -0.06  -0.11    -0.06   0.02   0.02
     6   6    -0.03   0.09  -0.04    -0.01   0.03   0.16     0.01   0.01  -0.06
     7   6     0.09   0.01   0.07    -0.06   0.04  -0.06     0.13  -0.01   0.04
     8   6    -0.08  -0.02  -0.04     0.01   0.00   0.02    -0.07   0.01  -0.03
     9   6     0.04  -0.02   0.04     0.06  -0.03   0.01    -0.02   0.01   0.04
    10   6    -0.04   0.05  -0.01    -0.10   0.03  -0.00     0.02  -0.03  -0.01
    11   6     0.09  -0.01   0.07    -0.06  -0.04  -0.06    -0.13  -0.01  -0.04
    12   6    -0.08   0.02  -0.04     0.01  -0.00   0.02     0.07   0.01   0.03
    13   6     0.04   0.02   0.04     0.06   0.03   0.01     0.02   0.01  -0.04
    14   6    -0.04  -0.05  -0.01    -0.10  -0.03  -0.00    -0.02  -0.03   0.01
    15   1     0.10  -0.15  -0.26     0.03  -0.05   0.40     0.06  -0.02   0.36
    16   1     0.01   0.13  -0.07     0.12   0.11  -0.13     0.14   0.04  -0.07
    17   1     0.01  -0.13  -0.07     0.12  -0.11  -0.13    -0.14   0.04   0.07
    18   1     0.10   0.15  -0.26     0.03   0.05   0.40    -0.06  -0.02  -0.36
    19   1     0.32  -0.09   0.25    -0.01   0.01  -0.01     0.39   0.02   0.19
    20   1    -0.13  -0.02  -0.02    -0.17  -0.03   0.12    -0.03  -0.11  -0.03
    21   1     0.01   0.04   0.27    -0.02   0.16  -0.18     0.02  -0.09   0.26
    22   1    -0.05  -0.11   0.10    -0.02  -0.12   0.19    -0.03   0.03  -0.11
    23   1    -0.00  -0.04  -0.19    -0.01  -0.07  -0.23    -0.03   0.01   0.09
    24   1     0.32   0.09   0.25    -0.01  -0.01  -0.01    -0.39   0.02  -0.19
    25   1    -0.13   0.02  -0.02    -0.17   0.03   0.12     0.03  -0.11   0.03
    26   1     0.01  -0.04   0.27    -0.02  -0.16  -0.18    -0.02  -0.09  -0.26
    27   1    -0.00   0.04  -0.19    -0.01   0.07  -0.23     0.03   0.01  -0.09
    28   1    -0.05   0.11   0.10    -0.02   0.12   0.19     0.03   0.03   0.11
                     37                     38                     39
                      A                      A                      A
 Frequencies --   1099.3263              1101.1097              1168.4546
 Red. masses --      1.7511                 1.9936                 1.1954
 Frc consts  --      1.2469                 1.4241                 0.9616
 IR Inten    --      3.0265                 1.4884                 0.6607
  Atom  AN      X      Y      Z        X      Y      Z        X      Y      Z
     1   8    -0.00  -0.00  -0.00    -0.03   0.00  -0.01     0.01   0.00  -0.00
     2   6    -0.00   0.04   0.00    -0.01  -0.00   0.03     0.00  -0.00  -0.01
     3   6     0.03  -0.02   0.01     0.03   0.02  -0.03    -0.02  -0.00  -0.03
     4   6     0.11  -0.02  -0.03     0.07  -0.12  -0.01    -0.05   0.04   0.02
     5   6    -0.11  -0.02   0.03     0.07   0.12  -0.01    -0.05  -0.04   0.02
     6   6    -0.03  -0.02  -0.01     0.03  -0.02  -0.03    -0.02   0.00  -0.03
     7   6    -0.04  -0.02  -0.02     0.06   0.04   0.03     0.03   0.00   0.01
     8   6     0.04   0.01  -0.00    -0.05  -0.02  -0.00    -0.00   0.01  -0.01
     9   6    -0.04   0.01  -0.03     0.01   0.04   0.03    -0.01  -0.02   0.00
    10   6     0.10  -0.01   0.03    -0.06  -0.07  -0.03     0.03   0.02  -0.00
    11   6     0.04  -0.02   0.02     0.06  -0.04   0.03     0.03  -0.00   0.01
    12   6    -0.04   0.01   0.00    -0.05   0.02  -0.00    -0.00  -0.01  -0.01
    13   6     0.04   0.01   0.03     0.01  -0.04   0.03    -0.01   0.02   0.00
    14   6    -0.10  -0.01  -0.03    -0.06   0.07  -0.03     0.03  -0.02  -0.00
    15   1    -0.13   0.05   0.15    -0.16   0.10   0.17     0.05  -0.04   0.37
    16   1     0.34   0.00  -0.17     0.24  -0.02  -0.14     0.13   0.23  -0.15
    17   1    -0.34   0.00   0.17     0.24   0.02  -0.14     0.13  -0.23  -0.15
    18   1     0.13   0.05  -0.15    -0.16  -0.10   0.17     0.05   0.04   0.37
    19   1    -0.15  -0.04  -0.08     0.08   0.13   0.01    -0.11   0.37  -0.21
    20   1     0.15   0.05  -0.07    -0.13  -0.10   0.06     0.10   0.05  -0.07
    21   1    -0.01  -0.04  -0.12     0.04  -0.04   0.16    -0.02  -0.01   0.20
    22   1     0.25   0.20   0.04    -0.33  -0.13  -0.28     0.05   0.01   0.03
    23   1     0.16   0.11   0.25    -0.14  -0.07  -0.01    -0.03  -0.01  -0.04
    24   1     0.15  -0.04   0.08     0.08  -0.13   0.01    -0.11  -0.37  -0.21
    25   1    -0.15   0.05   0.07    -0.13   0.10   0.06     0.10  -0.05  -0.07
    26   1     0.01  -0.04   0.12     0.04   0.04   0.16    -0.02   0.01   0.20
    27   1    -0.16   0.11  -0.25    -0.14   0.07  -0.01    -0.03   0.01  -0.04
    28   1    -0.25   0.20  -0.04    -0.33   0.13  -0.28     0.05  -0.01   0.03
                     40                     41                     42
                      A                      A                      A
 Frequencies --   1175.4114              1185.6474              1202.7613
 Red. masses --      2.5753                 1.3047                 1.3266
 Frc consts  --      2.0963                 1.0806                 1.1307
 IR Inten    --     30.7476                10.9602                 1.4249
  Atom  AN      X      Y      Z        X      Y      Z        X      Y      Z
     1   8     0.00  -0.04  -0.00    -0.00  -0.03  -0.00     0.00  -0.01  -0.00
     2   6    -0.00   0.28   0.00    -0.00   0.12   0.00     0.00   0.01   0.00
     3   6     0.05  -0.15   0.01    -0.03  -0.03  -0.01    -0.08   0.07   0.01
     4   6     0.00   0.01  -0.00    -0.04   0.01   0.03     0.03  -0.02  -0.03
     5   6    -0.00   0.01   0.00     0.04   0.01  -0.03    -0.03  -0.02   0.03
     6   6    -0.05  -0.15  -0.01     0.03  -0.03   0.01     0.08   0.07  -0.01
     7   6     0.03   0.02   0.03    -0.01  -0.00  -0.01     0.01  -0.02  -0.00
     8   6     0.01  -0.00   0.00    -0.00  -0.00   0.01    -0.00  -0.00  -0.02
     9   6    -0.04   0.02   0.00     0.02  -0.00  -0.00     0.01  -0.01   0.00
    10   6     0.03  -0.00  -0.00    -0.02  -0.01  -0.01     0.00   0.01   0.02
    11   6    -0.03   0.02  -0.03     0.01  -0.00   0.01    -0.01  -0.02   0.00
    12   6    -0.01  -0.00  -0.00     0.00  -0.00  -0.01     0.00  -0.00   0.02
    13   6     0.04   0.02  -0.00    -0.02  -0.00   0.00    -0.01  -0.01  -0.00
    14   6    -0.03  -0.00   0.00     0.02  -0.01   0.01    -0.00   0.01  -0.02
    15   1     0.08  -0.17  -0.13     0.34  -0.19   0.16     0.48  -0.17  -0.10
    16   1    -0.15   0.06   0.07     0.17   0.12  -0.14     0.07  -0.08  -0.03
    17   1     0.15   0.06  -0.07    -0.17   0.12   0.14    -0.07  -0.08   0.03
    18   1    -0.08  -0.17   0.13    -0.34  -0.19  -0.16    -0.48  -0.17   0.10
    19   1    -0.09   0.25  -0.13     0.10  -0.03   0.07    -0.20  -0.02  -0.13
    20   1     0.16   0.03  -0.08    -0.25  -0.10   0.15     0.20   0.11  -0.15
    21   1    -0.02  -0.05   0.24     0.02   0.03  -0.31    -0.01   0.01   0.24
    22   1    -0.27  -0.12  -0.24     0.15   0.07   0.11     0.04   0.00   0.06
    23   1     0.06   0.05   0.10    -0.02  -0.01  -0.01    -0.08  -0.04  -0.05
    24   1     0.09   0.25   0.13    -0.10  -0.03  -0.07     0.20  -0.02   0.13
    25   1    -0.16   0.03   0.08     0.25  -0.10  -0.15    -0.20   0.11   0.15
[...]
 .00006522,0.00000483,0.00000296,0.00015471,0.00003154,0.00017649,0.000
 06917,-0.00165935,0.00078718,0.00007784,-0.00000002,0.00000298,0.00010
 296,0.00116190,-0.00043532,-0.00008232,0.00019606,0.00028862,0.0010779
 8,0.00322225,-0.00033279,0.05856863,-0.00077374,0.00085159,-0.00040809
 ,0.00014810,-0.00247370,0.00159064,0.00027770,0.00020257,-0.00035482,0
 .00075243,-0.00139058,0.00026118,-0.01856038,-0.01141411,0.01758788,-0
 .00433845,0.00382390,-0.00141185,0.00017584,0.00018923,-0.00049042,-0.
 00110789,0.00056880,-0.00195673,0.01176371,0.00794392,-0.00910786,-0.1
 5419751,-0.07635096,0.09770188,-0.00006955,-0.00016870,-0.00013918,-0.
 00011737,-0.00008811,-0.00014378,0.00036391,-0.00001575,0.00013624,-0.
 00010647,-0.00014933,0.00028049,0.00003852,0.00009781,0.00004382,-0.00
 009082,0.00008050,-0.00001530,-0.00004285,-0.00003344,-0.00049246,0.00
 005307,-0.00009815,-0.00000591,0.00013805,0.00002473,0.00012259,-0.000
 31663,-0.00134095,-0.00026674,0.00058963,-0.00014504,0.00082813,0.1681
 9741,0.00028127,-0.00047516,0.00027804,0.00020126,0.00148437,-0.000889
 47,-0.00039941,0.00013219,0.00019496,-0.00066603,-0.00032852,-0.000399
 16,0.01126007,0.00878216,-0.01167738,0.00335490,-0.00216632,-0.0003503
 5,-0.00024124,0.00047657,0.00022979,0.00124096,-0.00063103,0.00013062,
 -0.00193546,-0.00083680,0.00146542,-0.07683018,-0.10132839,0.07327895,
 -0.00017419,-0.00020701,0.00006795,0.00027114,-0.00015511,-0.00002957,
 -0.00024745,0.00017192,0.00002196,0.00084876,-0.00174706,-0.00042896,-
 0.00004319,-0.00001311,0.00002335,-0.00004762,0.00015168,-0.00000403,-
 0.00052768,0.00009290,0.00024929,0.00014586,0.00004135,-0.00016255,-0.
 00010729,-0.00000798,-0.00003983,-0.00004156,0.00026305,-0.00001923,0.
 00025675,0.00032722,0.00024601,0.08405861,0.11459369,0.00007648,-0.000
 20671,-0.00001740,-0.00007156,0.00069481,0.00003045,-0.00019688,-0.000
 28804,-0.00000992,0.00064325,0.00070813,0.00037493,0.00137809,-0.00123
 178,-0.00047097,0.00032339,-0.00035304,0.00049705,0.00009723,0.0008092
 3,0.00030201,-0.00402185,0.00207899,-0.00146827,0.02015286,0.01387993,
 -0.02360231,0.09850662,0.07302420,-0.13588723,0.00023564,0.00037265,-0
 .00003240,0.00011168,0.00023149,0.00011699,-0.00035036,-0.00013875,-0.
 00042702,0.00029908,0.00043925,-0.00041789,0.00002429,-0.00002571,0.00
 005773,-0.00007895,-0.00013748,-0.00006736,0.00034578,-0.00024885,-0.0
 0008062,0.00006628,-0.00001636,-0.00007429,0.00010569,-0.00007365,0.00
 000912,-0.00043607,-0.00231089,-0.00083298,-0.00057841,-0.00051314,0.0
 0110014,-0.10687933,-0.08037548,0.15069661,0.00002169,-0.00012357,-0.0
 0008952,-0.00014448,0.00043540,-0.00006861,-0.00000932,0.00105181,-0.0
 0025215,-0.00423771,0.00005426,0.00104911,0.00207438,0.02882944,0.0099
 7726,0.00067873,-0.00017731,-0.00030540,-0.00089829,-0.00035529,-0.000
 21885,-0.00080566,0.00078356,-0.00092080,-0.00054177,-0.01176461,-0.00
 555852,-0.05433697,-0.03823694,-0.01788800,-0.00004846,0.00023181,0.00
 003026,0.00010955,-0.00009338,0.00007351,0.00012894,0.00001230,-0.0000
 8587,-0.00053882,-0.00052766,0.00033652,-0.00013265,0.00002702,0.00053
 942,-0.00022060,0.00059717,-0.00001045,0.00119837,0.00069155,0.0001830
 1,-0.00028848,-0.00018660,0.00023747,0.00013319,-0.00006907,0.00002183
 ,0.00060089,0.00086293,-0.00025161,0.00013411,0.00047425,0.00032699,-0
 .00435831,-0.02050911,-0.00900276,0.06079939,0.00027214,0.00006981,0.0
 0007885,-0.00014229,-0.00024190,-0.00009567,0.00006777,-0.00046338,0.0
 0028757,0.00227934,0.00056410,-0.00037715,-0.00217536,-0.01507183,-0.0
 0467832,-0.00001867,-0.00008647,0.00001883,0.00028857,0.00025874,0.000
 30048,-0.00073969,0.00027311,0.00146825,0.00042499,0.00781771,-0.00003
 751,-0.03485879,-0.24388883,-0.09126231,-0.00005251,-0.00003332,0.0000
 4914,-0.00005304,-0.00006456,-0.00006836,0.00010971,0.00005794,0.00020
 329,0.00038332,0.00036339,0.00011386,0.00010019,0.00001570,-0.00026321
 ,0.00022617,-0.00053703,-0.00000044,0.00027055,0.00070290,0.00060359,0
 .00020985,0.00014078,-0.00031325,-0.00001968,0.00006702,0.00000179,-0.
 00024432,-0.00060653,0.00005872,-0.00033662,0.00011738,-0.00084844,-0.
 00419918,-0.01639735,-0.00628842,0.03806714,0.26675718,0.00004687,-0.0
 0004832,-0.00001638,0.00015319,0.00018066,0.00009656,-0.00016648,0.000
 08515,-0.00009649,0.00016745,0.00110996,0.00076613,-0.00068651,-0.0003
 4395,-0.00087233,-0.00024862,-0.00043781,-0.00032872,-0.00076315,-0.00
 128826,0.00010954,-0.00399096,0.00184103,-0.00114468,-0.00529932,-0.02
 801758,-0.02079682,-0.01669683,-0.09682946,-0.08834510,0.00038086,0.00
 014093,-0.00005615,0.00008305,0.00011334,0.00015393,-0.00006525,-0.000
 08374,-0.00024621,-0.00019271,0.00018484,-0.00023298,-0.00001896,0.000
 01886,0.00014453,-0.00001121,-0.00008378,-0.00004928,-0.00018286,0.001
 03354,0.00105036,0.00032228,0.00011890,-0.00008936,0.00016022,-0.00001
 230,0.00009922,0.00139293,0.00222930,-0.00087983,0.00000261,0.00087181
 ,0.00064232,0.00373590,0.01794712,0.00886622,0.02209098,0.10147612,0.1
 0080860,-0.00016539,0.00026885,0.00024879,0.00155465,0.00035397,-0.000
 51270,0.00967676,-0.00628371,-0.01679600,-0.00301369,0.00081081,-0.003
 05807,-0.00000526,0.00021710,0.00017646,0.00004563,-0.00022077,0.00003
 922,-0.00056047,-0.00049808,0.00164111,0.00025783,0.00055470,-0.000250
 18,0.00005518,-0.00011688,-0.00014778,-0.00011329,0.00001861,-0.000019
 47,-0.11069779,0.03819150,0.10150683,-0.01687642,0.00776479,0.02866979
 ,-0.00491257,-0.00158682,-0.00251675,-0.00042434,0.00032624,-0.0001587
 8,0.00081018,-0.00001124,0.00088919,0.00078730,-0.00027390,-0.00122152
 ,-0.00000517,0.00002928,0.00005745,-0.00002142,-0.00007154,-0.00000627
 ,0.00146220,-0.00062312,-0.00043339,-0.00009847,0.00005100,0.00000096,
 -0.00001127,-0.00009319,-0.00000246,0.00002370,-0.00004237,-0.00002134
 ,0.00006224,-0.00001673,0.00004361,0.12045458,-0.00066666,0.00023639,0
 .00023960,0.00074674,-0.00086145,-0.00065262,-0.00462392,0.00286828,0.
 00780190,0.00137700,0.00011985,0.00183755,0.00001535,-0.00001003,0.000
 37265,-0.00019814,-0.00266338,0.00063582,0.01375132,-0.01488848,-0.022
 43988,-0.00213521,-0.00311855,-0.00105073,0.00098807,-0.00016401,0.000
 27947,-0.00000913,-0.00024280,0.00014742,0.03915128,-0.06669687,-0.067
 55399,-0.01007040,0.00413107,0.01345083,-0.00169742,-0.00062078,-0.000
 93841,0.00019934,0.00015611,-0.00027598,-0.00063942,0.00033011,-0.0002
 0285,-0.00030099,0.00030050,0.00057986,-0.00005067,0.00004977,-0.00001
 132,-0.00040443,-0.00019648,-0.00075915,0.00062312,0.00126932,-0.00014
 695,0.00024108,-0.00017695,0.00007428,0.00030621,0.00039262,-0.0002104
 9,-0.00000690,0.00005034,-0.00011271,-0.00010413,0.00007161,-0.0001418
 3,-0.03715267,0.07996685,-0.00126936,-0.00010750,0.00044099,0.00254541
 ,0.00116974,-0.00059341,0.01110807,-0.00833006,-0.02149063,-0.00465743
 ,0.00170167,-0.00377862,0.00006133,0.00058505,0.00060406,0.00013177,-0
 .00053698,0.00031155,-0.00137946,0.00234605,0.00173563,-0.00006706,0.0
 0027613,0.00012790,-0.00019924,-0.00000030,0.00003895,-0.00012163,0.00
 001497,-0.00002219,0.10179003,-0.06649189,-0.22496006,0.00047565,0.000
 97258,0.00004028,0.00009584,-0.00055773,0.00125706,-0.00066617,-0.0002
 9755,0.00060846,0.00016956,0.00051339,0.00097441,0.00116927,-0.0005500
 2,-0.00151159,-0.00005914,-0.00000894,0.00007978,0.00003034,-0.0001107
 2,-0.00013750,-0.00043339,0.00014695,0.00194315,0.00001298,0.00001576,
 0.00002090,-0.00002497,-0.00003726,0.00007294,0.00001622,0.00000674,0.
 00000107,0.00003841,-0.00004640,0.00002494,-0.10910890,0.06875493,0.24
 312224,-0.00082426,-0.00066867,0.00041562,-0.00002449,0.00188188,-0.00
 150735,-0.00400213,-0.00412827,0.00057340,-0.00000044,0.00016123,0.000
 58004,-0.00003937,0.00003834,0.00005387,0.00026867,-0.00034692,0.00040
 111,-0.00081530,0.00009456,-0.00041443,-0.00010216,0.00013728,-0.00005
 208,0.00011780,-0.00014063,0.00006389,-0.00004417,0.00000034,0.0000129
 5,-0.01077278,-0.00319775,-0.02292756,-0.11340931,-0.02923714,-0.11503
 693,0.00993263,0.00195548,0.01533180,0.00112888,-0.00576017,0.00157681
 ,-0.00002909,0.00010612,-0.00000940,0.00008751,0.00013134,-0.00009328,
 0.00000297,0.00002330,-0.00002828,0.00000390,-0.00005579,-0.00011421,-
 0.00009847,-0.00024108,0.00001298,0.00022215,-0.00009420,0.00007412,0.
 00002567,-0.00000328,-0.00001321,0.00005064,-0.00001962,-0.00002907,0.
 00001127,-0.00000499,-0.00000588,0.00128131,0.00064171,0.00009414,0.11
 703988,-0.00009272,-0.00039458,0.00010849,-0.00014670,0.00105182,-0.00
 037610,-0.00128813,-0.00050520,0.00118923,-0.00024652,-0.00014240,0.00
 046186,-0.00008083,0.00000116,0.00011725,0.00021579,0.00003021,-0.0000
 2126,0.00045286,-0.00014146,0.00067799,-0.00024673,0.00002009,0.000169
 53,0.00029714,0.00020558,-0.00015768,-0.00015572,-0.00002276,0.0000427
 4,-0.00544546,0.00156462,-0.01283972,-0.03030709,-0.04823127,-0.038493
 06,0.00358820,0.00490329,0.00789010,-0.00581203,0.01070131,0.00142439,
 -0.00027114,-0.00002619,-0.00031321,0.00019248,-0.00012384,0.00001065,
 -0.00000682,-0.00003125,-0.00000169,0.00006124,-0.00006516,0.00003370,
 -0.00005100,-0.00017696,-0.00001576,0.00009420,-0.00038813,0.00007493,
 0.00001854,-0.00003312,-0.00001099,0.00006690,-0.00000634,-0.00002682,
 0.00006303,0.00000037,0.00002009,0.00012307,0.00053447,0.00066198,0.03
 510060,0.03753041,-0.00008712,-0.00004136,-0.00012838,0.00024494,0.000
 15166,0.00021355,0.00077916,0.00000792,0.00115959,0.00048474,0.0002527
 4,0.00024194,-0.00005992,0.00011488,0.00001572,-0.00001913,-0.00016871
 ,-0.00005865,-0.00034362,0.00010193,-0.00009472,-0.00025550,0.00021976
 ,-0.00009338,0.00012236,0.00003146,-0.00009701,-0.00005660,0.00001172,
 -0.00001150,0.00287115,0.00108507,0.00360584,-0.11113374,-0.03707277,-
 0.26343937,-0.01533298,-0.00559532,-0.02296894,0.00346333,0.00211266,-
 0.00080726,-0.00002690,0.00000009,-0.00005620,-0.00011723,-0.00005805,
 0.00004848,0.00001131,-0.00005980,-0.00000696,-0.00002648,-0.00002006,
 0.00001476,0.00000096,-0.00007428,0.00002090,0.00007413,-0.00007493,0.
 00021596,0.00004437,-0.00001731,0.00000001,-0.00002341,0.00001518,0.00
 007956,0.00002360,-0.00005000,0.00004293,-0.00044761,-0.00019869,0.001
 06366,0.11988800,0.03958038,0.28167428,-0.00018948,-0.00001554,-0.0000
 0633,0.00034341,0.00008505,0.00006338,0.00084211,0.00008439,-0.0002198
 8,0.00082804,0.00038042,-0.00202755,-0.00026108,0.00010657,-0.00008711
 ,-0.00002040,-0.00025309,-0.00000190,-0.00110462,-0.00018265,0.0001916
 0,-0.00020433,0.00014730,-0.00003276,0.00005466,0.00000729,-0.00001720
 ,-0.00005833,0.00001755,0.00002552,0.00341290,-0.00406767,0.00165701,-
 0.01061577,-0.00702070,-0.00167505,-0.27751135,-0.11375332,-0.00319345
 ,-0.00846304,-0.00515588,0.00210149,-0.00004442,0.00003692,-0.00002381
 ,-0.00044585,-0.00036271,0.00007787,0.00002089,-0.00014116,0.00000475,
 -0.00008800,-0.00002992,-0.00003073,-0.00001127,-0.00030621,-0.0000249
 7,0.00002567,-0.00001854,0.00004437,0.00004637,-0.00003865,0.00000622,
 -0.00000316,0.00002617,-0.00002082,0.00001757,-0.00003758,-0.00000095,
 0.00016275,-0.00002544,0.00010332,-0.00029558,0.00339882,0.00044053,0.
 29283858,-0.00011137,-0.00016201,0.00000044,0.00006708,0.00055644,-0.0
 0007328,-0.00040444,-0.00054673,0.00048971,0.00033525,0.00191751,-0.00
 171355,0.00029844,0.00019697,0.00010382,0.00019882,0.00029943,-0.00003
 206,0.00182352,0.00056778,-0.00024974,0.00023792,-0.00012930,-0.000053
 36,0.00006372,-0.00005843,-0.00004307,-0.00007913,-0.00004960,0.000068
 54,-0.00431759,0.01045992,0.00271678,-0.00806377,0.00026409,-0.0015217
 3,-0.11414403,-0.09102147,0.00053323,-0.00371261,-0.00065371,-0.000111
 64,-0.00002469,-0.00004398,0.00004442,-0.00063368,-0.00027630,0.000080
 33,0.00000895,0.00004338,0.00000229,0.00009969,-0.00001704,0.00009917,
 0.00009318,0.00039262,0.00003726,0.00000328,-0.00003312,0.00001731,0.0
 0003865,-0.00010796,0.00001432,-0.00002589,0.00001274,-0.00004226,0.00
 004455,-0.00002030,0.00000218,-0.00184586,-0.00089655,-0.00012864,0.00
 334048,-0.00591120,-0.00021468,0.12703870,0.08477218,0.00000352,-0.000
 00812,-0.00006830,0.00002345,0.00004704,0.00013023,0.00005979,-0.00001
 223,-0.00012899,-0.00069430,0.00068737,-0.00562057,-0.00018522,0.00027
 369,-0.00015837,0.00000575,0.00003649,-0.00025547,0.00035954,-0.000238
 51,-0.00020131,0.00013576,-0.00005740,0.00015416,-0.00006865,0.0000450
 4,-0.00016624,-0.00010020,-0.00002020,0.00006522,0.00015477,0.00083575
 ,-0.00414251,0.02809134,0.01352262,0.00312690,-0.00621677,-0.00203250,
 -0.05732555,-0.02571596,-0.01335287,0.00268566,-0.00000002,-0.00000298
 ,0.00010296,-0.00165935,-0.00078717,0.00007783,0.00003154,-0.00017649,
 0.00006917,0.00000483,-0.00000296,0.00015471,-0.00000246,0.00021048,0.
 00007294,-0.00001321,0.00001099,0.00000001,0.00000622,-0.00001432,0.00
 007164,-0.00001440,0.00001051,0.00001795,0.00005870,-0.00005625,0.0000
 3106,0.00116191,0.00043533,-0.00008232,0.00019605,-0.00028861,0.001077
 98,0.00322225,0.00033286,0.05856876,0.00002169,0.00012357,-0.00008952,
 -0.00014449,-0.00043540,-0.00006860,0.00067871,0.00017730,-0.00030539,
 0.00207433,-0.02882941,0.00997731,-0.00423771,-0.00005425,0.00104911,-
 0.00000932,-0.00105180,-0.00025215,-0.00004846,-0.00023181,0.00003026,
 0.00010955,0.00009338,0.00007351,0.00012893,-0.00001230,-0.00008587,-0
 .00053881,0.00052767,0.00033652,-0.00089828,0.00035529,-0.00021886,-0.
 00080565,-0.00078355,-0.00092081,-0.00054173,0.01176456,-0.00555851,-0
 .05433682,0.03823646,-0.01788795,-0.00028848,0.00018660,0.00023747,0.0
 0119836,-0.00069157,0.00018302,-0.00022060,-0.00059717,-0.00001045,-0.
 00013265,-0.00002702,0.00053942,0.00006224,0.00010413,0.00003841,0.000
 01127,-0.00006303,0.00002360,0.00001757,-0.00004455,0.00005870,0.00033
 589,0.00003839,-0.00025964,0.00025531,0.00004015,-0.00007488,0.0001331
 9,0.00006907,0.00002183,0.00060089,-0.00086293,-0.00025160,0.00013411,
 -0.00047424,0.00032700,0.06079925,-0.00027214,0.00006981,-0.00007885,0
 .00014229,-0.00024190,0.00009567,0.00001867,-0.00008648,-0.00001883,0.
 00217534,-0.01507177,0.00467832,-0.00227933,0.00056409,0.00037715,-0.0
 0006777,-0.00046338,-0.00028757,0.00005251,-0.00003332,-0.00004914,0.0
 0005304,-0.00006456,0.00006836,-0.00010971,0.00005794,-0.00020329,-0.0
 0038332,0.00036338,-0.00011386,-0.00028858,0.00025874,-0.00030048,0.00
 073969,0.00027310,-0.00146825,-0.00042500,0.00781776,0.00003745,0.0348
 5833,-0.24388825,0.09126275,-0.00020985,0.00014077,0.00031325,-0.00027
 056,0.00070290,-0.00060359,-0.00022617,-0.00053703,0.00000044,-0.00010
 019,0.00001570,0.00026321,0.00001673,0.00007161,0.00004640,0.00000499,
 0.00000037,0.00005000,0.00003758,-0.00002029,0.00005625,-0.00015952,0.
 00026064,0.00020269,-0.00004015,-0.00012686,0.00007207,0.00001968,0.00
 006702,-0.00000179,0.00024432,-0.00060653,-0.00005872,0.00033662,0.000
 11739,0.00084844,-0.03806666,0.26675657,0.00004687,0.00004833,-0.00001
 638,0.00015319,-0.00018066,0.00009656,-0.00024862,0.00043781,-0.000328
 73,-0.00068652,0.00034391,-0.00087232,0.00016744,-0.00110996,0.0007661
 3,-0.00016648,-0.00008515,-0.00009649,0.00038086,-0.00014093,-0.000056
 15,0.00008305,-0.00011334,0.00015393,-0.00006525,0.00008374,-0.0002462
 1,-0.00019271,-0.00018484,-0.00023298,-0.00076315,0.00128826,0.0001095
 5,-0.00399097,-0.00184104,-0.00114468,-0.00529928,0.02801758,-0.020796
 94,-0.01669676,0.09682987,-0.08834565,0.00032228,-0.00011890,-0.000089
 36,-0.00018287,-0.00103354,0.00105037,-0.00001121,0.00008378,-0.000049
 28,-0.00001896,-0.00001886,0.00014453,0.00004361,0.00014183,0.00002494
 ,-0.00000588,-0.00002009,0.00004293,-0.00000095,-0.00000218,0.00003106
 ,-0.00017537,0.00015888,0.00020825,-0.00007488,-0.00007207,0.00010974,
 0.00016022,0.00001230,0.00009922,0.00139294,-0.00222929,-0.00087983,0.
 00000261,-0.00087181,0.00064232,0.02209091,-0.10147658,0.10080923,-0.0
 0077374,-0.00085159,-0.00040809,0.00014810,0.00247370,0.00159064,-0.00
 433844,-0.00382389,-0.00141186,-0.01856040,0.01141414,0.01758780,0.000
 75243,0.00139058,0.00026118,0.00027771,-0.00020257,-0.00035482,-0.0000
 6955,0.00016870,-0.00013918,-0.00011737,0.00008811,-0.00014378,0.00036
 391,0.00001575,0.00013624,-0.00010647,0.00014933,0.00028050,0.00017585
 ,-0.00018922,-0.00049042,-0.00110789,-0.00056879,-0.00195672,0.0117636
 9,-0.00794392,-0.00910776,-0.15419748,0.07635110,0.09770132,0.00005307
 ,0.00009814,-0.00000590,-0.00004287,0.00003344,-0.00049246,-0.00009081
 ,-0.00008050,-0.00001530,0.00003852,-0.00009781,0.00004382,0.00002370,
 0.00000690,0.00001622,0.00005064,-0.00006690,-0.00002342,-0.00000316,0
 .00002589,-0.00001441,0.00117449,-0.00015175,-0.00041932,0.00033590,0.
 00015953,-0.00017538,0.00013805,-0.00002473,0.00012259,-0.00031664,0.0
 0134094,-0.00026674,0.00058963,0.00014504,0.00082813,-0.00435829,0.004
 19919,0.00373586,0.16819740,-0.00028127,-0.00047516,-0.00027804,-0.000
 20126,0.00148436,0.00088946,-0.00335489,-0.00216632,0.00035035,-0.0112
 6006,0.00878218,0.01167732,0.00066603,-0.00032853,0.00039916,0.0003994
 1,0.00013219,-0.00019496,0.00017419,-0.00020701,-0.00006795,-0.0002711
 4,-0.00015511,0.00002957,0.00024745,0.00017192,-0.00002196,-0.00084877
 ,-0.00174707,0.00042896,0.00024124,0.00047657,-0.00022979,-0.00124097,
 -0.00063104,-0.00013062,0.00193549,-0.00083684,-0.00146546,0.07683032,
 -0.10132867,-0.07327875,-0.00014586,0.00004135,0.00016255,0.00052768,0
 .00009290,-0.00024929,0.00004763,0.00015168,0.00000403,0.00004319,-0.0
 0001311,-0.00002335,0.00004237,0.00005034,-0.00000674,0.00001962,-0.00
 000634,-0.00001518,-0.00002617,0.00001274,-0.00001051,0.00015174,-0.00
 254062,-0.00005125,-0.00003839,0.00026064,-0.00015888,0.00010729,-0.00
 000798,0.00003983,0.00004156,0.00026305,0.00001923,-0.00025675,0.00032
 722,-0.00024601,0.02050912,-0.01639742,-0.01794702,-0.08405880,0.11459
 407,0.00007648,0.00020671,-0.00001740,-0.00007156,-0.00069481,0.000030
 46,0.00032339,0.00035304,0.00049704,0.00137809,0.00123179,-0.00047097,
 0.00064325,-0.00070813,0.00037493,-0.00019688,0.00028804,-0.00000992,0
 .00023564,-0.00037265,-0.00003240,0.00011168,-0.00023149,0.00011699,-0
 .00035036,0.00013875,-0.00042702,0.00029907,-0.00043925,-0.00041788,0.
 00009723,-0.00080923,0.00030201,-0.00402184,-0.00207899,-0.00146826,0.
 02015291,-0.01388001,-0.02360227,0.09850606,-0.07302397,-0.13588636,0.
 00006628,0.00001636,-0.00007429,0.00034578,0.00024885,-0.00008062,-0.0
 0007895,0.00013748,-0.00006736,0.00002429,0.00002571,0.00005773,-0.000
 02134,0.00011271,0.00000107,-0.00002907,0.00002682,0.00007956,-0.00002
 082,0.00004226,0.00001795,-0.00041931,0.00005124,0.00103058,-0.0002596
 4,-0.00020268,0.00020825,0.00010569,0.00007365,0.00000912,-0.00043608,
 0.00231089,-0.00083299,-0.00057841,0.00051315,0.00110013,-0.00900282,0
 .00628849,0.00886623,-0.10687876,0.08037529,0.15069568\\0.00002163,0.,
 -0.00000109,0.00008138,0.00000001,-0.00001413,-0.00007209,-0.00000421,
 0.00003401,0.00005020,-0.00003323,0.00000635,0.00005018,0.00003352,0.0
 0000667,-0.00007218,0.00000400,0.00003388,0.00003871,-0.00004316,-0.00
 001234,-0.00001138,-0.00000420,0.00000107,0.00000460,-0.00002706,0.000
 01953,-0.00004410,-0.00000178,-0.00003423,0.00003924,0.00004331,-0.000
 01287,-0.00001192,0.00000406,0.00000151,0.00000540,0.00002726,0.000019
 67,-0.00004429,0.00000162,-0.00003467,0.00000109,0.00000584,-0.0000061
 1,-0.00000559,-0.00000255,0.00000431,-0.00000561,0.00000247,0.00000434
 ,0.00000106,-0.00000584,-0.00000613,-0.00000475,-0.00000018,-0.0000007
 6,-0.00000974,-0.00000188,0.00000971,0.00000202,-0.00000504,-0.0000011
 4,0.00000322,-0.00000010,-0.00001340,-0.00000359,0.00000229,0.00000055
 ,-0.00000491,0.00000024,-0.00000042,-0.00000981,0.00000181,0.00000941,
 0.00000178,0.00000498,-0.00000110,-0.00000363,-0.00000232,0.00000060,0
 .00000311,0.00000015,-0.00001321\\\@


 SUPPORT THE RIGHT TO ARM BEARS!
 (ADD A CLAWS TO THE BILL OF RIGHTS)
 Job cpu time:       0 days  0 hours  3 minutes 36.1 seconds.
 Elapsed time:       0 days  0 hours  3 minutes 52.2 seconds.
 File lengths (MBytes):  RWF=    188 Int=      0 D2E=      0 Chk=     16 Scr=      1
 Normal termination of Gaussian 16 at Sat Feb 24 02:38:00 2024.
