 Entering Gaussian System, Link 0=g16
 Input=/Volumes/SSD-PMU3/b3lyp_6-31gd_freq/POYYYXPQBFPUKS-SECBINFHSA-N_calculating/gaussianinput2.gjf
 Output=/Volumes/SSD-PMU3/b3lyp_6-31gd_freq/POYYYXPQBFPUKS-SECBINFHSA-N_calculating/gaussianinput2.log
 Initial command:
 /Applications/g16/l1.exe "/Users/macmini_m1_2022/PycharmProjects/sphere_model/sphere_model_lib/Gau-60434.inp" -scrdir="/Users/macmini_m1_2022/PycharmProjects/sphere_model/sphere_model_lib/"
 Entering Link 1 = /Applications/g16/l1.exe PID=     60435.
  
 Copyright (c) 1988,1990,1992,1993,1995,1998,2003,2009,2016,
            Gaussian, Inc.  All Rights Reserved.
  
 This is part of the Gaussian(R) 16 program.  It is based on
 the Gaussian(R) 09 system (copyright 2009, Gaussian, Inc.),
 the Gaussian(R) 03 system (copyright 2003, Gaussian, Inc.),
 the Gaussian(R) 98 system (copyright 1998, Gaussian, Inc.),
 the Gaussian(R) 94 system (copyright 1995, Gaussian, Inc.),
 the Gaussian 92(TM) system (copyright 1992, Gaussian, Inc.),
 the Gaussian 90(TM) system (copyright 1990, Gaussian, Inc.),
 the Gaussian 88(TM) system (copyright 1988, Gaussian, Inc.),
 the Gaussian 86(TM) system (copyright 1986, Carnegie Mellon
 University), and the Gaussian 82(TM) system (copyright 1983,
 Carnegie Mellon University). Gaussian is a federally registered
 trademark of Gaussian, Inc.
  
 This software contains proprietary and confidential information,
 including trade secrets, belonging to Gaussian, Inc.
  
 This software is provided under written license and may be
 used, copied, transmitted, or stored only in accord with that
 written license.
  
 The following legend is applicable only to US Government
 contracts under FAR:
  
                    RESTRICTED RIGHTS LEGEND
  
 Use, reproduction and disclosure by the US Government is
 subject to restrictions as set forth in subparagraphs (a)
 and (c) of the Commercial Computer Software - Restricted
 Rights clause in FAR 52.227-19.
  
 Gaussian, Inc.
 340 Quinnipiac St., Bldg. 40, Wallingford CT 06492
  
  
 ---------------------------------------------------------------
 Warning -- This program may not be used in any manner that
 competes with the business of Gaussian, Inc. or will provide
 assistance to any competitor of Gaussian, Inc.  The licensee
 of this program is prohibited from giving any competitor of
 Gaussian, Inc. access to this program.  By using this program,
 the user acknowledges that Gaussian, Inc. is engaged in the
 business of creating and licensing software in the field of
 computational chemistry and represents and warrants to the
 licensee that it is not a competitor of Gaussian, Inc. and that
 it will not use this program in any manner prohibited above.
 ---------------------------------------------------------------
  

 Cite this work as:
 Gaussian 16, Revision A.03,
 M. J. Frisch, G. W. Trucks, H. B. Schlegel, G. E. Scuseria, 
 M. A. Robb, J. R. Cheeseman, G. Scalmani, V. Barone, 
 G. A. Petersson, H. Nakatsuji, X. Li, M. Caricato, A. V. Marenich, 
 J. Bloino, B. G. Janesko, R. Gomperts, B. Mennucci, H. P. Hratchian, 
 J. V. Ortiz, A. F. Izmaylov, J. L. Sonnenberg, D. Williams-Young, 
 F. Ding, F. Lipparini, F. Egidi, J. Goings, B. Peng, A. Petrone, 
 T. Henderson, D. Ranasinghe, V. G. Zakrzewski, J. Gao, N. Rega, 
 G. Zheng, W. Liang, M. Hada, M. Ehara, K. Toyota, R. Fukuda, 
 J. Hasegawa, M. Ishida, T. Nakajima, Y. Honda, O. Kitao, H. Nakai, 
 T. Vreven, K. Throssell, J. A. Montgomery, Jr., J. E. Peralta, 
 F. Ogliaro, M. J. Bearpark, J. J. Heyd, E. N. Brothers, K. N. Kudin, 
 V. N. Staroverov, T. A. Keith, R. Kobayashi, J. Normand, 
 K. Raghavachari, A. P. Rendell, J. C. Burant, S. S. Iyengar, 
 J. Tomasi, M. Cossi, J. M. Millam, M. Klene, C. Adamo, R. Cammi, 
 J. W. Ochterski, R. L. Martin, K. Morokuma, O. Farkas, 
 J. B. Foresman, and D. J. Fox, Gaussian, Inc., Wallingford CT, 2016.
 
 ******************************************
 Gaussian 16:  EM64M-G16RevA.03 25-Dec-2016
                22-Feb-2024 
 ******************************************
 %nprocshared=8
 Will use up to    8 processors via shared memory.
 %mem=8GB
 %chk= 2.chk
 ---------------------
 # freq b3lyp/6-31g(d)
 ---------------------
 1/10=4,30=1,38=1/1,3;
 2/12=2,17=6,18=5,40=1/2;
 3/5=1,6=6,7=1,11=2,25=1,30=1,71=2,74=-5,140=1/1,2,3;
 4//1;
 5/5=2,38=5,98=1/2;
 8/6=4,10=90,11=11/1;
 11/6=1,8=1,9=11,15=111,16=1/1,2,10;
 10/6=1/2;
 6/7=2,8=2,9=2,10=2,28=1/1;
 7/8=1,10=1,25=1/1,2,3,16;
 1/10=4,30=1/3;
 99//99;
 ---------
 good luck
 ---------
 Symbolic Z-matrix:
 Charge =  0 Multiplicity = 1
 O                     1.2179    0.        0. 
 C                     0.        0.        0. 
 C                    -0.83478  -1.28486  -0.03034 
 C                     0.01889  -2.55971  -0.00133 
 C                     0.67601  -2.85098   1.35483 
 C                     1.50267  -4.14319   1.35649 
 C                     2.15457  -4.43877   2.71108 
 C                    -1.77873  -1.22277  -1.26116 
 C                    -2.63457   0.05152  -1.28329 
 C                    -1.76326   1.31408  -1.24125 
 C                    -0.80549   1.29328  -0.03034 
 H                    -1.47896  -1.25939   0.86491 
 H                     0.79673  -2.48051  -0.77141 
 H                    -0.61873  -3.41048  -0.28154 
 H                     1.32033  -2.008     1.63073 
 H                    -0.10327  -2.92103   2.1296 
 H                     0.86079  -4.98792   1.06666 
 H                     2.28117  -4.07293   0.58391 
 H                     1.39935  -4.54949   3.49932 
 H                     2.74137  -5.36409   2.68043 
 H                     2.82793  -3.62651   3.01088 
 H                    -1.17161  -1.27455  -2.17674 
 H                    -2.41916  -2.11356  -1.26188 
 H                    -3.31475   0.04793  -0.41886 
 H                    -3.26838   0.06139  -2.17882 
 H                    -2.38649   2.21573  -1.20543 
 H                    -1.16985   1.37878  -2.16374 
 H                    -1.39653   1.35606   0.89558 
 H                    -0.10901   2.13661  -0.04586 
 

 GradGradGradGradGradGradGradGradGradGradGradGradGradGradGradGradGradGrad
 Berny optimization.
 Initialization pass.
 Trust Radius=3.00D-01 FncErr=1.00D-07 GrdErr=1.00D-07 EigMax=2.50D+02 EigMin=1.00D-04
 Number of steps in this run=      2 maximum allowed number of steps=      2.
 GradGradGradGradGradGradGradGradGradGradGradGradGradGradGradGradGradGrad

                          Input orientation:                          
 ---------------------------------------------------------------------
 Center     Atomic      Atomic             Coordinates (Angstroms)
 Number     Number       Type             X           Y           Z
 ---------------------------------------------------------------------
      1          8           0        1.217897    0.000000    0.000000
      2          6           0        0.000000    0.000000    0.000000
      3          6           0       -0.834776   -1.284860   -0.030337
      4          6           0        0.018894   -2.559706   -0.001325
      5          6           0        0.676011   -2.850977    1.354827
      6          6           0        1.502665   -4.143190    1.356494
      7          6           0        2.154568   -4.438771    2.711084
      8          6           0       -1.778730   -1.222769   -1.261155
      9          6           0       -2.634566    0.051523   -1.283289
     10          6           0       -1.763258    1.314083   -1.241245
     11          6           0       -0.805490    1.293282   -0.030337
     12          1           0       -1.478962   -1.259392    0.864909
     13          1           0        0.796734   -2.480513   -0.771407
     14          1           0       -0.618730   -3.410484   -0.281544
     15          1           0        1.320334   -2.008003    1.630732
     16          1           0       -0.103274   -2.921026    2.129599
     17          1           0        0.860793   -4.987921    1.066662
     18          1           0        2.281166   -4.072927    0.583911
     19          1           0        1.399354   -4.549492    3.499318
     20          1           0        2.741366   -5.364088    2.680434
     21          1           0        2.827931   -3.626506    3.010879
     22          1           0       -1.171614   -1.274545   -2.176737
     23          1           0       -2.419158   -2.113557   -1.261881
     24          1           0       -3.314747    0.047932   -0.418857
     25          1           0       -3.268379    0.061392   -2.178822
     26          1           0       -2.386486    2.215729   -1.205432
     27          1           0       -1.169852    1.378781   -2.163740
     28          1           0       -1.396527    1.356062    0.895578
     29          1           0       -0.109012    2.136608   -0.045860
 ---------------------------------------------------------------------
                    Distance matrix (angstroms):
                    1          2          3          4          5
     1  O    0.000000
     2  C    1.217897   0.000000
     3  C    2.421828   1.532526   0.000000
     4  C    2.826607   2.559776   1.534544   0.000000
     5  C    3.202697   3.228098   2.579511   1.534858   0.000000
     6  C    4.368889   4.611301   3.944234   2.559818   1.534006
     7  C    5.284886   5.629816   5.137969   3.930541   2.558643
     8  C    3.473536   2.499911   1.552359   2.570219   3.939566
     9  C    4.060906   2.930942   2.568083   3.937359   5.132649
    10  C    3.486372   2.525190   3.013782   4.440688   5.480634
    11  C    2.401581   1.523914   2.578308   3.940300   4.613936
    12  H    3.099546   2.126374   1.103218   2.164428   2.723430
    13  H    2.631614   2.717131   2.154204   1.097421   2.161640
    14  H    3.883795   3.477570   2.151292   1.099505   2.160350
    15  H    2.588794   2.904246   2.815419   2.159105   1.096303
    16  H    3.848776   3.616386   2.806681   2.164790   1.101119
    17  H    5.113184   5.172822   4.217940   2.783095   2.164189
    18  H    4.249733   4.704615   4.226075   2.783921   2.159629
    19  H    5.742476   5.907732   5.301662   4.256691   2.829668
    20  H    6.187013   6.593425   6.064419   4.740068   3.512642
    21  H    4.980878   5.496738   5.305443   4.254659   2.823953
    22  H    3.474538   2.781246   2.172694   2.793092   4.286117
    23  H    4.391769   3.451346   2.171107   2.780674   4.119590
    24  H    4.552208   3.341450   2.842101   4.252913   5.241734
    25  H    4.987756   3.928528   3.514371   4.734745   6.043739
    26  H    4.399329   3.472440   4.005343   5.480922   6.450219
    27  H    3.504876   2.819816   3.429091   4.647670   5.803307
    28  H    3.078340   2.142721   2.854357   4.259236   4.712271
    29  H    2.515529   2.139879   3.497630   4.698267   5.239675
                    6          7          8          9         10
     6  C    0.000000
     7  C    1.532077   0.000000
     8  C    5.113560   6.449200   0.000000
     9  C    6.456063   7.684631   1.535176   0.000000
    10  C    6.869958   8.004099   2.536977   1.534602   0.000000
    11  C    6.066804   7.009548   2.965236   2.541136   1.544037
    12  H    4.177086   5.169077   2.147405   2.769237   3.337586
    13  H    2.791200   4.219743   2.907712   4.295003   4.601442
    14  H    2.778551   4.207657   2.662956   4.129477   4.955048
    15  H    2.160434   2.787784   4.310893   5.326763   5.365915
    16  H    2.161115   2.782000   4.145895   5.185681   5.661650
    17  H    1.099806   2.163225   5.153851   6.567785   7.206062
    18  H    1.099038   2.162113   5.292488   6.682959   6.979143
    19  H    2.183449   1.097233   6.620378   7.766285   8.176586
    20  H    2.185815   1.096122   7.288204   8.598871   8.959306
    21  H    2.181807   1.096845   6.726779   7.861721   7.973017
    22  H    5.278694   6.705715   1.099800   2.167241   2.815348
    23  H    5.133809   6.489225   1.097111   2.175875   3.489892
    24  H    6.627581   7.735660   2.164138   1.099955   2.164851
    25  H    7.275976   8.577354   2.170308   1.097176   2.171100
    26  H    7.881929   8.957826   3.492240   2.179769   1.096659
    27  H    7.072946   8.286108   2.820187   2.163838   1.098778
    28  H    6.233741   7.034659   3.383481   2.825248   2.168471
    29  H    6.633247   7.480651   3.943389   3.501033   2.200460
                   11         12         13         14         15
    11  C    0.000000
    12  H    2.787683   0.000000
    13  H    4.166274   3.057361   0.000000
    14  H    4.714170   2.584870   1.763051   0.000000
    15  H    4.263421   2.997159   2.503536   3.063286   0.000000
    16  H    4.787361   2.500597   3.069186   2.513737   1.763275
    17  H    6.590403   4.406482   3.109613   2.548520   3.067452
    18  H    6.221008   4.704626   2.564412   3.097941   2.506580
    19  H    7.173410   5.103878   4.783609   4.434515   3.155475
    20  H    8.015550   6.160830   4.900184   4.886730   3.792692
    21  H    6.830451   5.362625   4.443506   4.771393   2.607145
    22  H    3.366722   3.057172   2.702537   2.908552   4.609185
    23  H    3.965750   2.477257   3.273711   2.425824   4.728864
    24  H    2.828112   2.593696   4.839587   4.387255   5.469155
    25  H    3.492759   3.769719   4.996723   4.761746   6.312795
    26  H    2.175156   4.145646   5.689987   5.969322   6.294780
    27  H    2.165982   4.028427   4.549747   5.175274   5.662981
    28  H    1.100266   2.616933   4.723192   4.970970   4.386196
    29  H    1.093856   3.773470   4.760735   5.575445   4.693803
                   16         17         18         19         20
    16  H    0.000000
    17  H    2.516210   0.000000
    18  H    3.066200   1.757192   0.000000
    19  H    2.604980   2.529839   3.082905   0.000000
    20  H    3.789980   2.506455   2.504853   1.770631   0.000000
    21  H    3.141070   3.082704   2.527532   1.769550   1.770841
    22  H    4.732524   5.332868   5.231999   7.039372   7.458410
    23  H    4.185387   4.943901   5.416560   6.571440   7.262149
    24  H    5.061907   6.708332   7.021486   7.662320   8.693220
    25  H    6.121699   7.285519   7.451358   8.676938   9.442735
    26  H    6.536187   8.221910   8.033425   9.068378   9.942256
    27  H    6.169172   7.422527   7.012862   8.591593   9.177687
    28  H    4.635601   6.735791   6.564791   7.033632   8.091247
    29  H    5.505662   7.275791   6.683404   7.716695   8.474537
                   21         22         23         24         25
    21  H    0.000000
    22  H    6.959845   0.000000
    23  H    6.933789   1.759906   0.000000
    24  H    7.937070   3.071173   2.486927   0.000000
    25  H    8.814680   2.486193   2.508458   1.760627   0.000000
    26  H    8.893769   3.821173   4.329777   2.485903   2.523171
    27  H    8.234795   2.653358   3.817138   3.068607   2.477813
    28  H    6.866333   4.050901   4.211729   2.668054   3.825171
    29  H    7.154213   4.160015   4.987924   3.844273   4.340236
                   26         27         28         29
    26  H    0.000000
    27  H    1.760407   0.000000
    28  H    2.476548   3.067788   0.000000
    29  H    2.556903   2.486986   1.775740   0.000000
 Stoichiometry    C10H18O
 Framework group  C1[X(C10H18O)]
 Deg. of freedom    81
 Full point group                 C1      NOp   1
 Largest Abelian subgroup         C1      NOp   1
 Largest concise Abelian subgroup C1      NOp   1
                         Standard orientation:                         
 ---------------------------------------------------------------------
 Center     Atomic      Atomic             Coordinates (Angstroms)
 Number     Number       Type             X           Y           Z
 ---------------------------------------------------------------------
      1          8           0       -0.315716    1.757247   -0.760361
      2          6           0       -0.945972    0.958642   -0.090823
      3          6           0       -0.457004   -0.466841    0.187649
      4          6           0        0.925185   -0.758384   -0.411836
      5          6           0        2.088230   -0.066779    0.312595
      6          6           0        3.456750   -0.396992   -0.296739
      7          6           0        4.619528    0.287755    0.428746
      8          6           0       -1.545298   -1.459055   -0.303215
      9          6           0       -2.925106   -1.166986    0.303078
     10          6           0       -3.373671    0.271337    0.011502
     11          6           0       -2.317236    1.293783    0.483308
     12          1           0       -0.405474   -0.570063    1.284817
     13          1           0        0.923090   -0.454607   -1.466373
     14          1           0        1.087816   -1.845676   -0.395792
     15          1           0        1.932799    1.018179    0.288359
     16          1           0        2.085040   -0.363745    1.372909
     17          1           0        3.608452   -1.486227   -0.285574
     18          1           0        3.460365   -0.099657   -1.354786
     19          1           0        4.664446   -0.016358    1.482035
     20          1           0        5.582474    0.037184   -0.031071
     21          1           0        4.512228    1.379072    0.404578
     22          1           0       -1.606038   -1.404769   -1.399994
     23          1           0       -1.229068   -2.480932   -0.059459
     24          1           0       -2.884950   -1.323834    1.391052
     25          1           0       -3.663828   -1.878008   -0.087477
     26          1           0       -4.335924    0.483773    0.492752
     27          1           0       -3.529347    0.392974   -1.069369
     28          1           0       -2.251523    1.260959    1.581119
     29          1           0       -2.577258    2.314874    0.189569
 ---------------------------------------------------------------------
 Rotational constants (GHZ):           2.4633894           0.4920506           0.4380368
 Standard basis: 6-31G(d) (6D, 7F)
 There are   201 symmetry adapted cartesian basis functions of A   symmetry.
 There are   201 symmetry adapted basis functions of A   symmetry.
   201 basis functions,   380 primitive gaussians,   201 cartesian basis functions
    43 alpha electrons       43 beta electrons
       nuclear repulsion energy       633.8519724291 Hartrees.
 NAtoms=   29 NActive=   29 NUniq=   29 SFac= 1.00D+00 NAtFMM=   60 NAOKFM=F Big=F
 Integral buffers will be    131072 words long.
 Raffenetti 2 integral format.
 Two-electron integral symmetry is turned on.
 One-electron integrals computed using PRISM.
 NBasis=   201 RedAO= T EigKep=  2.44D-03  NBF=   201
 NBsUse=   201 1.00D-06 EigRej= -1.00D+00 NBFU=   201
 ExpMin= 1.61D-01 ExpMax= 5.48D+03 ExpMxC= 8.25D+02 IAcc=3 IRadAn=         5 AccDes= 0.00D+00
 Harris functional with IExCor=  402 and IRadAn=       5 diagonalized for initial guess.
 HarFok:  IExCor=  402 AccDes= 0.00D+00 IRadAn=         5 IDoV= 1 UseB2=F ITyADJ=14
 ICtDFT=  3500011 ScaDFX=  1.000000  1.000000  1.000000  1.000000
 FoFCou: FMM=F IPFlag=           0 FMFlag=      100000 FMFlg1=           0
         NFxFlg=           0 DoJE=T BraDBF=F KetDBF=T FulRan=T
         wScrn=  0.000000 ICntrl=       500 IOpCl=  0 I1Cent=   200000004 NGrid=           0
         NMat0=    1 NMatS0=      1 NMatT0=    0 NMatD0=    1 NMtDS0=    0 NMtDT0=    0
 Petite list used in FoFCou.
 Requested convergence on RMS density matrix=1.00D-08 within 128 cycles.
 Requested convergence on MAX density matrix=1.00D-06.
 Requested convergence on             energy=1.00D-06.
 No special actions if energy rises.
 Integral accuracy reduced to 1.0D-05 until final iterations.
 Initial convergence to 1.0D-05 achieved.  Increase integral accuracy.
 SCF Done:  E(RB3LYP) =  -467.147470567     A.U. after   13 cycles
            NFock= 13  Conv=0.53D-08     -V/T= 2.0099
 DoSCS=F DFT=T ScalE2(SS,OS)=  1.000000  1.000000
 Range of M.O.s used for correlation:     1   201
 NBasis=   201 NAE=    43 NBE=    43 NFC=     0 NFV=     0
 NROrb=    201 NOA=    43 NOB=    43 NVA=   158 NVB=   158
 Symmetrizing basis deriv contribution to polar:
 IMax=3 JMax=2 DiffMx= 0.00D+00
 G2DrvN: will do    30 centers at a time, making    1 passes.
 Calling FoFCou, ICntrl=  3107 FMM=F I1Cent=   0 AccDes= 0.00D+00.
 End of G2Drv F.D. properties file   721 does not exist.
 End of G2Drv F.D. properties file   722 does not exist.
 End of G2Drv F.D. properties file   788 does not exist.
          IDoAtm=11111111111111111111111111111
          Differentiating once with respect to electric field.
                with respect to dipole field.
          Differentiating once with respect to nuclear coordinates.
 Keep R1 ints in memory in canonical form, NReq=214321610.
          There are    90 degrees of freedom in the 1st order CPHF.  IDoFFX=6 NUNeed=     3.
     87 vectors produced by pass  0 Test12= 7.55D-15 1.11D-09 XBig12= 6.78D+01 1.88D+00.
 AX will form    87 AO Fock derivatives at one time.
     87 vectors produced by pass  1 Test12= 7.55D-15 1.11D-09 XBig12= 5.92D+00 6.38D-01.
     87 vectors produced by pass  2 Test12= 7.55D-15 1.11D-09 XBig12= 3.04D-02 2.22D-02.
     87 vectors produced by pass  3 Test12= 7.55D-15 1.11D-09 XBig12= 6.43D-05 8.46D-04.
     87 vectors produced by pass  4 Test12= 7.55D-15 1.11D-09 XBig12= 6.18D-08 2.72D-05.
     37 vectors produced by pass  5 Test12= 7.55D-15 1.11D-09 XBig12= 4.24D-11 5.04D-07.
      3 vectors produced by pass  6 Test12= 7.55D-15 1.11D-09 XBig12= 2.44D-14 1.18D-08.
 InvSVY:  IOpt=1 It=  1 EMax= 1.07D-14
 Solved reduced A of dimension   475 with    90 vectors.
 Isotropic polarizability for W=    0.000000      105.00 Bohr**3.
 End of Minotr F.D. properties file   721 does not exist.
 End of Minotr F.D. properties file   722 does not exist.
 End of Minotr F.D. properties file   788 does not exist.

 **********************************************************************

            Population analysis using the SCF density.

 **********************************************************************

 Orbital symmetries:
       Occupied  (A) (A) (A) (A) (A) (A) (A) (A) (A) (A) (A) (A)
                 (A) (A) (A) (A) (A) (A) (A) (A) (A) (A) (A) (A)
                 (A) (A) (A) (A) (A) (A) (A) (A) (A) (A) (A) (A)
                 (A) (A) (A) (A) (A) (A) (A)
       Virtual   (A) (A) (A) (A) (A) (A) (A) (A) (A) (A) (A) (A)
                 (A) (A) (A) (A) (A) (A) (A) (A) (A) (A) (A) (A)
                 (A) (A) (A) (A) (A) (A) (A) (A) (A) (A) (A) (A)
                 (A) (A) (A) (A) (A) (A) (A) (A) (A) (A) (A) (A)
                 (A) (A) (A) (A) (A) (A) (A) (A) (A) (A) (A) (A)
                 (A) (A) (A) (A) (A) (A) (A) (A) (A) (A) (A) (A)
                 (A) (A) (A) (A) (A) (A) (A) (A) (A) (A) (A) (A)
                 (A) (A) (A) (A) (A) (A) (A) (A) (A) (A) (A) (A)
                 (A) (A) (A) (A) (A) (A) (A) (A) (A) (A) (A) (A)
                 (A) (A) (A) (A) (A) (A) (A) (A) (A) (A) (A) (A)
                 (A) (A) (A) (A) (A) (A) (A) (A) (A) (A) (A) (A)
                 (A) (A) (A) (A) (A) (A) (A) (A) (A) (A) (A) (A)
                 (A) (A) (A) (A) (A) (A) (A) (A) (A) (A) (A) (A)
                 (A) (A)
 The electronic state is 1-A.
 Alpha  occ. eigenvalues --  -19.13438 -10.26717 -10.19439 -10.19408 -10.19213
 Alpha  occ. eigenvalues --  -10.19047 -10.19000 -10.17542 -10.17274 -10.16943
 Alpha  occ. eigenvalues --  -10.16680  -1.03262  -0.83479  -0.79321  -0.76038
 Alpha  occ. eigenvalues --   -0.73123  -0.69780  -0.63478  -0.60316  -0.58743
 Alpha  occ. eigenvalues --   -0.56700  -0.52620  -0.47814  -0.46879  -0.45139
 Alpha  occ. eigenvalues --   -0.44442  -0.43407  -0.42396  -0.41034  -0.40053
 Alpha  occ. eigenvalues --   -0.39180  -0.39029  -0.36817  -0.36130  -0.35131
 Alpha  occ. eigenvalues --   -0.34414  -0.33411  -0.33178  -0.32602  -0.31868
 Alpha  occ. eigenvalues --   -0.31480  -0.30034  -0.23469
 Alpha virt. eigenvalues --   -0.01267   0.09088   0.09925   0.10435   0.11684
 Alpha virt. eigenvalues --    0.13214   0.13815   0.14084   0.15572   0.15832
 Alpha virt. eigenvalues --    0.16251   0.16471   0.17286   0.17858   0.18808
 Alpha virt. eigenvalues --    0.19101   0.19895   0.20284   0.20374   0.21443
 Alpha virt. eigenvalues --    0.21935   0.23945   0.24204   0.25524   0.27179
 Alpha virt. eigenvalues --    0.27377   0.29641   0.30167   0.33150   0.37494
 Alpha virt. eigenvalues --    0.49072   0.50308   0.51540   0.52470   0.53477
 Alpha virt. eigenvalues --    0.55345   0.55963   0.57818   0.58376   0.59726
 Alpha virt. eigenvalues --    0.60247   0.62663   0.63518   0.64975   0.66453
 Alpha virt. eigenvalues --    0.67159   0.68706   0.69433   0.72340   0.73128
 Alpha virt. eigenvalues --    0.75421   0.76676   0.78791   0.81436   0.82151
 Alpha virt. eigenvalues --    0.83221   0.83911   0.84924   0.86103   0.87072
 Alpha virt. eigenvalues --    0.87590   0.88115   0.89967   0.90435   0.91014
 Alpha virt. eigenvalues --    0.91915   0.92755   0.93788   0.94138   0.95103
 Alpha virt. eigenvalues --    0.95289   0.96438   0.96963   0.97526   0.98623
 Alpha virt. eigenvalues --    1.00847   1.04215   1.08737   1.09686   1.15008
 Alpha virt. eigenvalues --    1.16456   1.20453   1.20770   1.28347   1.34902
 Alpha virt. eigenvalues --    1.35756   1.40593   1.44351   1.45814   1.47456
 Alpha virt. eigenvalues --    1.50959   1.54099   1.56354   1.64223   1.66505
 Alpha virt. eigenvalues --    1.68195   1.69385   1.71982   1.76857   1.77272
 Alpha virt. eigenvalues --    1.80598   1.81714   1.84674   1.88706   1.89061
 Alpha virt. eigenvalues --    1.89549   1.92010   1.92931   1.93922   1.95478
 Alpha virt. eigenvalues --    1.96564   1.98362   1.98989   2.00854   2.02128
 Alpha virt. eigenvalues --    2.03574   2.05222   2.07820   2.09558   2.13447
 Alpha virt. eigenvalues --    2.14703   2.20171   2.23663   2.26156   2.27985
 Alpha virt. eigenvalues --    2.32356   2.33679   2.35257   2.37735   2.39771
 Alpha virt. eigenvalues --    2.40204   2.41909   2.44502   2.46802   2.49780
 Alpha virt. eigenvalues --    2.57746   2.58808   2.60789   2.62274   2.66454
 Alpha virt. eigenvalues --    2.68349   2.73312   2.76894   2.81775   2.88026
 Alpha virt. eigenvalues --    2.99410   3.03866   4.02043   4.11824   4.16416
 Alpha virt. eigenvalues --    4.24929   4.25956   4.32847   4.42709   4.52298
 Alpha virt. eigenvalues --    4.54526   4.57997   4.65470
          Condensed to atoms (all electrons):
               1          2          3          4          5          6
     1  O    8.013841   0.574704  -0.090710   0.004347  -0.005848   0.000022
     2  C    0.574704   4.529350   0.292430  -0.028925  -0.002342   0.000024
     3  C   -0.090710   0.292430   5.266755   0.347285  -0.025820   0.003270
     4  C    0.004347  -0.028925   0.347285   5.014378   0.374291  -0.035399
     5  C   -0.005848  -0.002342  -0.025820   0.374291   4.998407   0.385798
     6  C    0.000022   0.000024   0.003270  -0.035399   0.385798   4.948150
     7  C    0.000001  -0.000001  -0.000112   0.003482  -0.042200   0.372126
     8  C   -0.000021  -0.024331   0.352452  -0.036230   0.003187  -0.000091
     9  C    0.000141  -0.013149  -0.035884   0.003513  -0.000122   0.000001
    10  C    0.000585  -0.027286  -0.004306   0.000034   0.000003   0.000000
    11  C   -0.073884   0.343640  -0.129748   0.005830  -0.000206   0.000001
    12  H    0.001866  -0.037325   0.350429  -0.042727  -0.004537   0.000027
    13  H    0.008447  -0.008142  -0.038358   0.367809  -0.034204  -0.003632
    14  H    0.000331   0.004803  -0.040359   0.365090  -0.040916  -0.003686
    15  H    0.009572   0.004265  -0.007352  -0.035143   0.371636  -0.035316
    16  H    0.000204  -0.000255  -0.004669  -0.042696   0.367614  -0.040573
    17  H   -0.000003  -0.000002   0.000008  -0.003208  -0.041240   0.375208
    18  H    0.000034  -0.000015   0.000077  -0.003550  -0.040523   0.378195
    19  H    0.000000   0.000000   0.000001   0.000037  -0.004681  -0.034732
    20  H    0.000000   0.000000   0.000001  -0.000131   0.004102  -0.027356
    21  H   -0.000004  -0.000002   0.000004   0.000038  -0.004005  -0.034527
    22  H    0.000666  -0.004905  -0.043085  -0.002944   0.000036   0.000002
    23  H   -0.000072   0.003483  -0.032501  -0.003970  -0.000004  -0.000006
    24  H   -0.000007  -0.001897  -0.004465   0.000047   0.000001   0.000000
    25  H    0.000001   0.000305   0.004188  -0.000120   0.000001  -0.000000
    26  H   -0.000064   0.003478  -0.000236   0.000008  -0.000000  -0.000000
    27  H    0.000618  -0.003118   0.000055  -0.000028   0.000000  -0.000000
    28  H    0.001622  -0.030817   0.003457  -0.000107   0.000026  -0.000000
    29  H    0.005495  -0.023727   0.006583  -0.000147   0.000001  -0.000000
               7          8          9         10         11         12
     1  O    0.000001  -0.000021   0.000141   0.000585  -0.073884   0.001866
     2  C   -0.000001  -0.024331  -0.013149  -0.027286   0.343640  -0.037325
     3  C   -0.000112   0.352452  -0.035884  -0.004306  -0.129748   0.350429
     4  C    0.003482  -0.036230   0.003513   0.000034   0.005830  -0.042727
     5  C   -0.042200   0.003187  -0.000122   0.000003  -0.000206  -0.004537
     6  C    0.372126  -0.000091   0.000001   0.000000   0.000001   0.000027
     7  C    5.064959   0.000001  -0.000000  -0.000000  -0.000000  -0.000001
     8  C    0.000001   5.046220   0.366653  -0.044947  -0.007505  -0.042754
     9  C   -0.000000   0.366653   5.011737   0.379477  -0.046338  -0.002308
    10  C   -0.000000  -0.044947   0.379477   5.013807   0.344248  -0.001733
    11  C   -0.000000  -0.007505  -0.046338   0.344248   5.278173   0.002200
    12  H   -0.000001  -0.042754  -0.002308  -0.001733   0.002200   0.624142
    13  H    0.000033  -0.002909  -0.000045  -0.000058   0.000505   0.006102
    14  H    0.000024  -0.004268   0.000198  -0.000005  -0.000136  -0.001615
    15  H   -0.002750   0.000133   0.000003  -0.000002   0.000178  -0.000446
    16  H   -0.002960   0.000056  -0.000001  -0.000000   0.000015   0.006272
    17  H   -0.038871  -0.000001   0.000000  -0.000000  -0.000000   0.000006
    18  H   -0.038038   0.000001   0.000000  -0.000000  -0.000000   0.000010
    19  H    0.376698   0.000000   0.000000  -0.000000  -0.000000  -0.000001
    20  H    0.371374  -0.000000   0.000000   0.000000   0.000000   0.000000
    21  H    0.377985   0.000000   0.000000   0.000000  -0.000000   0.000001
    22  H    0.000000   0.370969  -0.039108  -0.005176   0.000232   0.006466
    23  H    0.000000   0.367773  -0.029924   0.004799  -0.000272  -0.006370
    24  H    0.000000  -0.040973   0.373435  -0.042327  -0.003123   0.005183
    25  H    0.000000  -0.030015   0.366423  -0.031657   0.004689  -0.000010
    26  H   -0.000000   0.004804  -0.030582   0.369286  -0.029545  -0.000025
    27  H    0.000000  -0.004591  -0.039415   0.376218  -0.043005   0.000113
    28  H    0.000000  -0.001017  -0.003385  -0.035669   0.349045   0.001830
    29  H    0.000000  -0.000081   0.004210  -0.025129   0.342800  -0.000149
              13         14         15         16         17         18
     1  O    0.008447   0.000331   0.009572   0.000204  -0.000003   0.000034
     2  C   -0.008142   0.004803   0.004265  -0.000255  -0.000002  -0.000015
     3  C   -0.038358  -0.040359  -0.007352  -0.004669   0.000008   0.000077
     4  C    0.367809   0.365090  -0.035143  -0.042696  -0.003208  -0.003550
     5  C   -0.034204  -0.040916   0.371636   0.367614  -0.041240  -0.040523
     6  C   -0.003632  -0.003686  -0.035316  -0.040573   0.375208   0.378195
     7  C    0.000033   0.000024  -0.002750  -0.002960  -0.038871  -0.038038
     8  C   -0.002909  -0.004268   0.000133   0.000056  -0.000001   0.000001
     9  C   -0.000045   0.000198   0.000003  -0.000001   0.000000   0.000000
    10  C   -0.000058  -0.000005  -0.000002  -0.000000  -0.000000  -0.000000
    11  C    0.000505  -0.000136   0.000178   0.000015  -0.000000  -0.000000
    12  H    0.006102  -0.001615  -0.000446   0.006272   0.000006   0.000010
    13  H    0.587992  -0.038032  -0.005070   0.005833  -0.000480   0.004958
    14  H   -0.038032   0.626459   0.005647  -0.005101   0.005290  -0.000452
    15  H   -0.005070   0.005647   0.572926  -0.038531   0.005529  -0.005246
    16  H    0.005833  -0.005101  -0.038531   0.633483  -0.005697   0.006065
    17  H   -0.000480   0.005290   0.005529  -0.005697   0.621025  -0.040643
    18  H    0.004958  -0.000452  -0.005246   0.006065  -0.040643   0.606231
    19  H    0.000006   0.000003  -0.000367   0.004932  -0.004552   0.005241
    20  H    0.000002   0.000002  -0.000031  -0.000032  -0.002687  -0.002725
    21  H    0.000001   0.000007   0.004589  -0.000450   0.005320  -0.004550
    22  H    0.003987  -0.000178  -0.000001   0.000008   0.000000  -0.000001
    23  H   -0.000426   0.005109  -0.000006  -0.000001  -0.000001   0.000000
    24  H    0.000003  -0.000004  -0.000000  -0.000002   0.000000  -0.000000
    25  H    0.000003  -0.000007   0.000000   0.000000  -0.000000   0.000000
    26  H    0.000000  -0.000000   0.000000   0.000000   0.000000   0.000000
    27  H   -0.000010  -0.000000  -0.000000  -0.000000   0.000000  -0.000000
    28  H   -0.000007  -0.000001  -0.000038  -0.000012   0.000000  -0.000000
    29  H   -0.000007   0.000002   0.000001  -0.000000   0.000000   0.000000
              19         20         21         22         23         24
     1  O    0.000000   0.000000  -0.000004   0.000666  -0.000072  -0.000007
     2  C    0.000000   0.000000  -0.000002  -0.004905   0.003483  -0.001897
     3  C    0.000001   0.000001   0.000004  -0.043085  -0.032501  -0.004465
     4  C    0.000037  -0.000131   0.000038  -0.002944  -0.003970   0.000047
     5  C   -0.004681   0.004102  -0.004005   0.000036  -0.000004   0.000001
     6  C   -0.034732  -0.027356  -0.034527   0.000002  -0.000006   0.000000
     7  C    0.376698   0.371374   0.377985   0.000000   0.000000   0.000000
     8  C    0.000000  -0.000000   0.000000   0.370969   0.367773  -0.040973
     9  C    0.000000   0.000000   0.000000  -0.039108  -0.029924   0.373435
    10  C   -0.000000   0.000000   0.000000  -0.005176   0.004799  -0.042327
    11  C   -0.000000   0.000000  -0.000000   0.000232  -0.000272  -0.003123
    12  H   -0.000001   0.000000   0.000001   0.006466  -0.006370   0.005183
    13  H    0.000006   0.000002   0.000001   0.003987  -0.000426   0.000003
    14  H    0.000003   0.000002   0.000007  -0.000178   0.005109  -0.000004
    15  H   -0.000367  -0.000031   0.004589  -0.000001  -0.000006  -0.000000
    16  H    0.004932  -0.000032  -0.000450   0.000008  -0.000001  -0.000002
    17  H   -0.004552  -0.002687   0.005320   0.000000  -0.000001   0.000000
    18  H    0.005241  -0.002725  -0.004550  -0.000001   0.000000  -0.000000
    19  H    0.583921  -0.031742  -0.032869  -0.000000   0.000000  -0.000000
    20  H   -0.031742   0.580523  -0.031139   0.000000  -0.000000   0.000000
    21  H   -0.032869  -0.031139   0.574963   0.000000  -0.000000   0.000000
    22  H   -0.000000   0.000000   0.000000   0.601383  -0.036693   0.005775
    23  H    0.000000  -0.000000  -0.000000  -0.036693   0.593749  -0.004105
    24  H   -0.000000   0.000000   0.000000   0.005775  -0.004105   0.609797
    25  H    0.000000  -0.000000   0.000000  -0.003945  -0.002343  -0.036121
    26  H    0.000000   0.000000  -0.000000  -0.000021  -0.000181  -0.004312
    27  H    0.000000  -0.000000   0.000000   0.004467  -0.000009   0.005802
    28  H    0.000000  -0.000000   0.000000   0.000111  -0.000010   0.004557
    29  H    0.000000  -0.000000   0.000000  -0.000043   0.000017  -0.000038
              25         26         27         28         29
     1  O    0.000001  -0.000064   0.000618   0.001622   0.005495
     2  C    0.000305   0.003478  -0.003118  -0.030817  -0.023727
     3  C    0.004188  -0.000236   0.000055   0.003457   0.006583
     4  C   -0.000120   0.000008  -0.000028  -0.000107  -0.000147
     5  C    0.000001  -0.000000   0.000000   0.000026   0.000001
     6  C   -0.000000  -0.000000  -0.000000  -0.000000  -0.000000
     7  C    0.000000  -0.000000   0.000000   0.000000   0.000000
     8  C   -0.030015   0.004804  -0.004591  -0.001017  -0.000081
     9  C    0.366423  -0.030582  -0.039415  -0.003385   0.004210
    10  C   -0.031657   0.369286   0.376218  -0.035669  -0.025129
    11  C    0.004689  -0.029545  -0.043005   0.349045   0.342800
    12  H   -0.000010  -0.000025   0.000113   0.001830  -0.000149
    13  H    0.000003   0.000000  -0.000010  -0.000007  -0.000007
    14  H   -0.000007  -0.000000  -0.000000  -0.000001   0.000002
    15  H    0.000000   0.000000  -0.000000  -0.000038   0.000001
    16  H    0.000000   0.000000  -0.000000  -0.000012  -0.000000
    17  H   -0.000000   0.000000   0.000000   0.000000   0.000000
    18  H    0.000000   0.000000  -0.000000  -0.000000   0.000000
    19  H    0.000000   0.000000   0.000000   0.000000   0.000000
    20  H   -0.000000   0.000000  -0.000000  -0.000000  -0.000000
    21  H    0.000000  -0.000000   0.000000   0.000000   0.000000
    22  H   -0.003945  -0.000021   0.004467   0.000111  -0.000043
    23  H   -0.002343  -0.000181  -0.000009  -0.000010   0.000017
    24  H   -0.036121  -0.004312   0.005802   0.004557  -0.000038
    25  H    0.594935  -0.002075  -0.004345  -0.000042  -0.000143
    26  H   -0.002075   0.591480  -0.036527  -0.006276  -0.002578
    27  H   -0.004345  -0.036527   0.595047   0.005803  -0.003298
    28  H   -0.000042  -0.006276   0.005803   0.587989  -0.027290
    29  H   -0.000143  -0.002578  -0.003298  -0.027290   0.561934
 Mulliken charges:
               1
     1  O   -0.451885
     2  C    0.449758
     3  C   -0.169390
     4  C   -0.250865
     5  C   -0.258455
     6  C   -0.247504
     7  C   -0.441747
     8  C   -0.272515
     9  C   -0.265529
    10  C   -0.270161
    11  C   -0.337793
    12  H    0.135355
    13  H    0.145699
    14  H    0.121792
    15  H    0.155819
    16  H    0.116498
    17  H    0.124999
    18  H    0.134930
    19  H    0.138104
    20  H    0.139838
    21  H    0.144639
    22  H    0.141997
    23  H    0.141963
    24  H    0.132774
    25  H    0.140277
    26  H    0.143366
    27  H    0.146224
    28  H    0.150229
    29  H    0.161584
 Sum of Mulliken charges =  -0.00000
 Mulliken charges with hydrogens summed into heavy atoms:
               1
     1  O   -0.451885
     2  C    0.449758
     3  C   -0.034035
     4  C    0.016625
     5  C    0.013862
     6  C    0.012425
     7  C   -0.019167
     8  C    0.011446
     9  C    0.007521
    10  C    0.019429
    11  C   -0.025980
 APT charges:
               1
     1  O   -0.632598
     2  C    0.693445
     3  C   -0.052479
     4  C    0.099956
     5  C    0.088508
     6  C    0.146717
     7  C    0.087854
     8  C    0.124911
     9  C    0.104692
    10  C    0.149012
    11  C   -0.062479
    12  H   -0.035610
    13  H   -0.023435
    14  H   -0.054675
    15  H   -0.011822
    16  H   -0.060713
    17  H   -0.063798
    18  H   -0.054480
    19  H   -0.032699
    20  H   -0.048798
    21  H   -0.026692
    22  H   -0.038779
    23  H   -0.049300
    24  H   -0.049223
    25  H   -0.058418
    26  H   -0.054607
    27  H   -0.040696
    28  H   -0.014526
    29  H   -0.029270
 Sum of APT charges =   0.00000
 APT charges with hydrogens summed into heavy atoms:
               1
     1  O   -0.632598
     2  C    0.693445
     3  C   -0.088089
     4  C    0.021847
     5  C    0.015973
     6  C    0.028439
     7  C   -0.020335
     8  C    0.036832
     9  C   -0.002949
    10  C    0.053710
    11  C   -0.106275
 Electronic spatial extent (au):  <R**2>=           2685.1457
 Charge=             -0.0000 electrons
 Dipole moment (field-independent basis, Debye):
    X=             -1.6865    Y=             -1.8676    Z=              1.2784  Tot=              2.8225
 Quadrupole moment (field-independent basis, Debye-Ang):
   XX=            -65.9964   YY=            -73.0524   ZZ=            -69.5020
   XY=             -0.5184   XZ=             -0.6861   YZ=              2.4447
 Traceless Quadrupole moment (field-independent basis, Debye-Ang):
   XX=              3.5205   YY=             -3.5355   ZZ=              0.0149
   XY=             -0.5184   XZ=             -0.6861   YZ=              2.4447
 Octapole moment (field-independent basis, Debye-Ang**2):
  XXX=            -18.3553  YYY=             -1.7689  ZZZ=             -1.8965  XYY=             -2.5745
  XXY=              4.4281  XXZ=             -3.1384  XZZ=             -2.8743  YZZ=              0.5692
  YYZ=              4.3266  XYZ=             -1.9960
 Hexadecapole moment (field-independent basis, Debye-Ang**3):
 XXXX=          -2937.1471 YYYY=           -532.6762 ZZZZ=           -195.7697 XXXY=            -12.8819
 XXXZ=            -14.7262 YYYX=             -1.7809 YYYZ=              3.3574 ZZZX=             -0.0997
 ZZZY=             -4.8211 XXYY=           -571.0515 XXZZ=           -521.8333 YYZZ=           -126.7553
 XXYZ=             -2.0851 YYXZ=             -0.1330 ZZXY=             -1.5694
 N-N= 6.338519724291D+02 E-N=-2.350699369095D+03  KE= 4.625803617969D+02
  Exact polarizability: 126.130   2.003  99.796  -3.083  -1.190  89.078
 Approx polarizability: 144.357   5.525 146.325  -6.675  -8.512 141.355
 Calling FoFJK, ICntrl=    100127 FMM=F ISym2X=0 I1Cent= 0 IOpClX= 0 NMat=1 NMatS=1 NMatT=0.
 Full mass-weighted force constant matrix:
 Low frequencies ---   -7.0128   -3.3863   -0.0008   -0.0007   -0.0006    1.7240
 Low frequencies ---   56.1159   65.3713   67.5145
 Diagonal vibrational polarizability:
       11.6137200       5.5617870      10.0200391
 Harmonic frequencies (cm**-1), IR intensities (KM/Mole), Raman scattering
 activities (A**4/AMU), depolarization ratios for plane and unpolarized
 incident light, reduced masses (AMU), force constants (mDyne/A),
 and normal coordinates:
                      1                      2                      3
                      A                      A                      A
 Frequencies --     56.1098                65.3695                67.5096
 Red. masses --      3.3195                 3.1904                 1.7493
 Frc consts  --      0.0062                 0.0080                 0.0047
 IR Inten    --      0.8481                 0.6897                 0.2503
  Atom  AN      X      Y      Z        X      Y      Z        X      Y      Z
     1   8    -0.12   0.04  -0.14     0.03   0.10   0.15     0.04  -0.05  -0.04
     2   6    -0.05   0.03  -0.08    -0.04   0.04   0.03     0.03  -0.02  -0.02
     3   6     0.02   0.06  -0.08    -0.00   0.06   0.06    -0.00  -0.03   0.01
     4   6     0.01   0.10  -0.12    -0.01   0.08   0.04    -0.01  -0.04   0.00
     5   6     0.01   0.04  -0.05     0.04   0.02   0.02    -0.01  -0.10   0.07
     6   6     0.03   0.01   0.01    -0.01   0.02  -0.09    -0.02   0.15  -0.09
     7   6     0.03  -0.19   0.20     0.08  -0.15  -0.07    -0.03   0.02   0.04
     8   6     0.03   0.01  -0.00     0.05  -0.03   0.12    -0.02  -0.02   0.03
     9   6     0.07  -0.04   0.11     0.01  -0.04   0.02    -0.02   0.03   0.03
    10   6    -0.02  -0.06   0.13    -0.03  -0.09  -0.15     0.01   0.03  -0.00
    11   6    -0.02  -0.00   0.01    -0.13  -0.00  -0.14     0.04   0.02  -0.02
    12   1     0.07   0.08  -0.08     0.02   0.12   0.07    -0.00  -0.01   0.01
    13   1     0.01   0.18  -0.09    -0.03   0.11   0.05     0.01   0.02   0.02
    14   1     0.02   0.10  -0.20    -0.02   0.08  -0.01    -0.03  -0.05  -0.06
    15   1     0.04   0.05  -0.02     0.06   0.03   0.10    -0.09  -0.11   0.29
    16   1    -0.05   0.00  -0.06     0.09  -0.05   0.00     0.08  -0.31   0.01
    17   1    -0.07   0.00  -0.12    -0.08   0.00  -0.22     0.05   0.15  -0.39
    18   1     0.14   0.15   0.05    -0.05   0.14  -0.05    -0.10   0.44  -0.01
    19   1    -0.08  -0.35   0.15     0.13  -0.30  -0.11     0.06  -0.29  -0.05
    20   1     0.04  -0.20   0.23     0.03  -0.15  -0.17    -0.04   0.24  -0.09
    21   1     0.12  -0.17   0.35     0.14  -0.14   0.08    -0.12   0.02   0.37
    22   1    -0.05   0.01   0.00     0.10  -0.14   0.12    -0.03  -0.04   0.03
    23   1     0.09   0.03  -0.02     0.09   0.01   0.24    -0.05  -0.02   0.05
    24   1     0.17  -0.02   0.11    -0.05   0.08   0.04    -0.02   0.05   0.03
    25   1     0.07  -0.07   0.18     0.07  -0.11   0.05    -0.03   0.04   0.04
    26   1     0.02  -0.09   0.21    -0.09  -0.09  -0.27     0.02   0.06  -0.00
    27   1    -0.12  -0.09   0.14     0.06  -0.20  -0.18     0.01   0.02  -0.00
    28   1     0.07   0.04   0.00    -0.23   0.08  -0.13     0.04   0.04  -0.02
    29   1    -0.08  -0.02  -0.01    -0.15  -0.04  -0.23     0.06   0.02  -0.04
                      4                      5                      6
                      A                      A                      A
 Frequencies --    110.5816               139.9453               166.7106
 Red. masses --      3.5867                 2.4643                 2.2121
 Frc consts  --      0.0258                 0.0284                 0.0362
 IR Inten    --      1.4201                 0.4225                 0.7348
  Atom  AN      X      Y      Z        X      Y      Z        X      Y      Z
     1   8     0.17   0.09   0.17    -0.05   0.05  -0.05    -0.09   0.01  -0.03
     2   6     0.04   0.01  -0.05    -0.03   0.04  -0.04    -0.01   0.01   0.04
     3   6    -0.01  -0.02  -0.11    -0.00   0.05  -0.03     0.03   0.02   0.01
     4   6    -0.02  -0.03  -0.16     0.01   0.06   0.01    -0.01   0.05  -0.13
     5   6    -0.04  -0.08  -0.08     0.04  -0.16   0.19     0.02  -0.10  -0.04
     6   6     0.01  -0.05   0.02     0.01  -0.08   0.08     0.04  -0.06   0.00
     7   6    -0.11   0.11   0.07     0.05   0.05  -0.11    -0.04   0.05   0.03
     8   6    -0.04  -0.03   0.01     0.02   0.05  -0.06     0.03  -0.05   0.14
     9   6     0.03  -0.01   0.16     0.04  -0.02   0.01    -0.02   0.04  -0.01
    10   6    -0.02  -0.04   0.05    -0.03  -0.04   0.05     0.06   0.04  -0.12
    11   6    -0.00   0.02  -0.14    -0.04   0.01  -0.03     0.01  -0.02   0.10
    12   1     0.06  -0.00  -0.11    -0.04   0.04  -0.03     0.15   0.05   0.01
    13   1    -0.01   0.04  -0.14     0.10   0.27   0.07    -0.06   0.24  -0.07
    14   1    -0.05  -0.03  -0.23    -0.06   0.05  -0.19    -0.05   0.04  -0.32
    15   1    -0.04  -0.08  -0.05     0.08  -0.15   0.44     0.05  -0.09   0.09
    16   1    -0.11  -0.12  -0.09     0.03  -0.41   0.12    -0.03  -0.22  -0.07
    17   1     0.09  -0.03   0.12     0.09  -0.07   0.10     0.10  -0.05   0.04
    18   1     0.07  -0.12   0.00    -0.13  -0.13   0.06     0.07  -0.09  -0.01
    19   1    -0.20   0.23   0.11     0.19   0.14  -0.09    -0.11   0.14   0.06
    20   1    -0.04   0.14   0.20     0.01   0.07  -0.20     0.01   0.07   0.13
    21   1    -0.19   0.10  -0.05    -0.03   0.04  -0.19    -0.10   0.05  -0.06
    22   1    -0.17  -0.07   0.02    -0.02   0.11  -0.06     0.09  -0.23   0.13
    23   1    -0.02  -0.03   0.01     0.06   0.04  -0.13     0.01  -0.01   0.33
    24   1     0.17   0.11   0.17     0.10  -0.05   0.00    -0.15   0.10   0.00
    25   1    -0.01  -0.06   0.32     0.04  -0.04   0.03     0.00   0.04  -0.05
    26   1     0.02  -0.01   0.11    -0.00  -0.07   0.13    -0.03   0.07  -0.30
    27   1    -0.11  -0.17   0.05    -0.13  -0.04   0.07     0.27   0.05  -0.15
    28   1     0.02   0.20  -0.14    -0.00   0.07  -0.04    -0.04  -0.20   0.09
    29   1    -0.01  -0.02  -0.27    -0.08  -0.01  -0.07     0.03   0.02   0.23
                      7                      8                      9
                      A                      A                      A
 Frequencies --    241.3554               256.8361               272.0949
 Red. masses --      1.3798                 2.2592                 3.0042
 Frc consts  --      0.0474                 0.0878                 0.1310
 IR Inten    --      0.6882                 0.3617                 0.5276
  Atom  AN      X      Y      Z        X      Y      Z        X      Y      Z
     1   8    -0.04   0.05   0.00    -0.06   0.00   0.01     0.01  -0.13   0.04
     2   6    -0.01   0.03  -0.00    -0.03  -0.00   0.02    -0.04  -0.10   0.03
     3   6     0.01   0.03   0.01     0.01   0.01   0.05    -0.02  -0.10  -0.03
     4   6     0.01  -0.06   0.02     0.02  -0.08   0.04     0.03   0.10  -0.11
     5   6     0.04  -0.03  -0.06     0.12  -0.10  -0.06     0.04   0.07  -0.00
     6   6     0.07  -0.08   0.00     0.15   0.02  -0.09     0.10   0.03   0.09
     7   6    -0.00   0.03   0.02     0.06   0.04   0.06     0.19   0.02  -0.01
     8   6     0.01   0.03   0.00    -0.03   0.06  -0.00    -0.12  -0.04  -0.01
     9   6    -0.01   0.00  -0.01    -0.06   0.02  -0.02    -0.10   0.06   0.04
    10   6    -0.03  -0.01   0.00    -0.10   0.01   0.02    -0.09   0.06  -0.01
    11   6    -0.03  -0.00   0.00    -0.08   0.01  -0.04    -0.04   0.00  -0.03
    12   1    -0.00   0.05   0.01    -0.01  -0.00   0.05     0.03  -0.16  -0.04
    13   1     0.01  -0.19  -0.01    -0.01  -0.16   0.01    -0.01   0.30  -0.05
    14   1    -0.04  -0.07   0.14    -0.05  -0.09   0.11     0.11   0.11  -0.31
    15   1     0.06  -0.03  -0.18     0.08  -0.10   0.00     0.07   0.08  -0.01
    16   1     0.03   0.09  -0.03     0.20  -0.14  -0.07    -0.05   0.07  -0.00
    17   1     0.11  -0.07   0.08     0.23   0.03  -0.18     0.08   0.03   0.17
    18   1     0.10  -0.14  -0.01     0.19   0.13  -0.06     0.13  -0.06   0.07
    19   1     0.29  -0.31  -0.09    -0.28   0.28   0.15     0.43  -0.11  -0.06
    20   1    -0.01   0.50  -0.24     0.16  -0.20   0.40     0.11   0.13  -0.24
    21   1    -0.36   0.01   0.41     0.22   0.05  -0.22     0.14   0.02   0.15
    22   1     0.01   0.04   0.00    -0.02   0.14   0.00    -0.16  -0.03  -0.00
    23   1     0.01   0.03  -0.00    -0.06   0.04  -0.07    -0.20  -0.06  -0.02
    24   1    -0.01  -0.01  -0.01    -0.07  -0.01  -0.02    -0.07   0.13   0.05
    25   1     0.01  -0.01  -0.02    -0.02   0.00  -0.05    -0.13   0.05   0.12
    26   1    -0.02  -0.02   0.01    -0.07  -0.00   0.09    -0.08   0.10  -0.01
    27   1    -0.04  -0.00   0.00    -0.18   0.02   0.03    -0.09   0.04  -0.02
    28   1    -0.02  -0.01   0.00    -0.10   0.07  -0.03    -0.08   0.04  -0.02
    29   1    -0.04  -0.00   0.01    -0.05  -0.00  -0.09     0.06   0.01  -0.07
                     10                     11                     12
                      A                      A                      A
 Frequencies --    298.0363               305.4293               424.3954
 Red. masses --      2.8351                 1.7894                 2.7591
 Frc consts  --      0.1484                 0.0984                 0.2928
 IR Inten    --      3.0031                 0.5769                 0.6412
  Atom  AN      X      Y      Z        X      Y      Z        X      Y      Z
     1   8    -0.03   0.17   0.02    -0.07  -0.00   0.00    -0.13  -0.00   0.05
     2   6    -0.01   0.03  -0.13    -0.01  -0.01   0.05    -0.07  -0.01   0.08
     3   6    -0.03  -0.00  -0.17     0.00  -0.03  -0.02    -0.03  -0.07  -0.04
     4   6     0.04  -0.12   0.02     0.01  -0.05   0.02    -0.01  -0.07  -0.02
     5   6    -0.02  -0.00   0.05    -0.01  -0.01   0.01    -0.04  -0.03  -0.02
     6   6     0.02   0.07   0.06    -0.01   0.01   0.00     0.00   0.02   0.03
     7   6     0.12  -0.00  -0.02     0.01  -0.00  -0.00     0.04   0.00   0.00
     8   6    -0.07  -0.09   0.04    -0.03   0.06  -0.10     0.08  -0.15  -0.04
     9   6    -0.07   0.00   0.02     0.08   0.06   0.13     0.13   0.04  -0.06
    10   6    -0.00   0.02  -0.00     0.05  -0.01  -0.12     0.08   0.07   0.05
    11   6     0.04  -0.07   0.05    -0.02  -0.01   0.03    -0.05   0.19  -0.00
    12   1    -0.05   0.12  -0.15    -0.03  -0.12  -0.03    -0.03  -0.13  -0.04
    13   1     0.19  -0.32  -0.04     0.04  -0.11   0.00     0.00  -0.14  -0.04
    14   1     0.02  -0.12   0.24     0.01  -0.05   0.09    -0.02  -0.07   0.05
    15   1    -0.11  -0.02   0.03    -0.03  -0.01  -0.01    -0.09  -0.04  -0.03
    16   1    -0.03   0.01   0.06     0.00   0.01   0.01    -0.06  -0.02  -0.01
    17   1     0.02   0.07  -0.00    -0.00   0.01  -0.02     0.02   0.02   0.01
    18   1    -0.02   0.11   0.07    -0.02   0.03   0.01     0.01   0.03   0.03
    19   1     0.16   0.05  -0.00    -0.01   0.01   0.00     0.08   0.01  -0.00
    20   1     0.06  -0.17  -0.07     0.00  -0.04   0.01     0.01  -0.04  -0.04
    21   1     0.28   0.01  -0.08     0.03  -0.00  -0.02     0.09   0.01  -0.01
    22   1    -0.11  -0.34   0.03    -0.18   0.25  -0.08     0.17  -0.34  -0.05
    23   1    -0.07  -0.04   0.25    -0.02   0.01  -0.31     0.04  -0.11   0.18
    24   1    -0.09   0.04   0.03     0.31   0.30   0.16     0.17   0.01  -0.07
    25   1    -0.10   0.02   0.04     0.02  -0.05   0.43     0.03   0.11  -0.02
    26   1    -0.01   0.06  -0.03    -0.05   0.03  -0.35     0.06  -0.08   0.07
    27   1     0.03   0.04  -0.01     0.30  -0.14  -0.17     0.04   0.11   0.06
    28   1     0.17  -0.27   0.04    -0.12  -0.09   0.03    -0.18   0.55   0.01
    29   1     0.01  -0.01   0.27     0.01   0.00   0.06     0.03   0.11  -0.38
                     13                     14                     15
                      A                      A                      A
 Frequencies --    442.5985               450.7548               509.8690
 Red. masses --      2.6306                 3.3613                 2.4569
 Frc consts  --      0.3036                 0.4024                 0.3763
 IR Inten    --      0.5988                 2.7915                 7.6139
  Atom  AN      X      Y      Z        X      Y      Z        X      Y      Z
     1   8     0.03   0.01  -0.04    -0.08   0.01   0.03     0.13  -0.11  -0.00
     2   6     0.05   0.07   0.06     0.04  -0.09   0.02    -0.08   0.03  -0.05
     3   6    -0.01   0.05   0.08     0.19  -0.03   0.03    -0.08   0.07  -0.01
     4   6    -0.12  -0.10  -0.10     0.10  -0.11  -0.10    -0.10   0.00   0.01
     5   6    -0.13  -0.07  -0.08    -0.08  -0.01   0.01    -0.04  -0.04  -0.04
     6   6     0.00   0.08   0.10    -0.10   0.04   0.07     0.02   0.01   0.01
     7   6     0.14   0.02   0.01    -0.03  -0.02  -0.03     0.05   0.02   0.01
     8   6    -0.01   0.10   0.04     0.11   0.12   0.07     0.09  -0.00  -0.02
     9   6    -0.03  -0.09   0.01     0.06   0.13  -0.04     0.12   0.06  -0.04
    10   6     0.06  -0.07   0.00    -0.16   0.06  -0.02    -0.08   0.01  -0.02
    11   6     0.01   0.02  -0.00    -0.02  -0.10  -0.07    -0.09  -0.00   0.08
    12   1     0.08   0.03   0.08     0.33  -0.03   0.02    -0.12   0.11  -0.01
    13   1    -0.21  -0.09  -0.10     0.10  -0.11  -0.10    -0.11  -0.09  -0.02
    14   1    -0.19  -0.11  -0.09     0.12  -0.10  -0.06    -0.19  -0.01   0.10
    15   1    -0.24  -0.08  -0.08    -0.20  -0.03  -0.02    -0.04  -0.04  -0.02
    16   1    -0.24  -0.07  -0.08    -0.17  -0.01   0.01    -0.05  -0.05  -0.04
    17   1     0.04   0.08   0.08    -0.13   0.04   0.06     0.06   0.02   0.00
    18   1     0.05   0.07   0.09    -0.13   0.03   0.06     0.05   0.02   0.02
    19   1     0.30   0.03   0.00     0.05  -0.02  -0.03     0.09   0.02   0.01
    20   1     0.02  -0.12  -0.16    -0.10  -0.10  -0.12     0.03  -0.02  -0.02
    21   1     0.30   0.04  -0.00     0.05  -0.02  -0.03     0.09   0.02   0.01
    22   1    -0.02   0.28   0.05     0.19   0.10   0.06     0.18  -0.18  -0.04
    23   1     0.08   0.08  -0.16    -0.02   0.08   0.09     0.09   0.05   0.18
    24   1    -0.16  -0.23  -0.01     0.06   0.22  -0.02     0.30   0.24  -0.01
    25   1     0.03  -0.04  -0.19     0.17  -0.02   0.02     0.11  -0.06   0.21
    26   1     0.02  -0.01  -0.11    -0.04  -0.01   0.25    -0.05  -0.16   0.11
    27   1     0.17  -0.12  -0.02    -0.42   0.12   0.03    -0.20   0.09   0.00
    28   1    -0.04   0.13   0.01    -0.06  -0.16  -0.07     0.02  -0.35   0.06
    29   1    -0.07  -0.03  -0.11     0.15  -0.05  -0.02    -0.16   0.08   0.43
                     16                     17                     18
                      A                      A                      A
 Frequencies --    589.8198               671.2245               723.3180
 Red. masses --      2.7297                 3.1554                 1.8206
 Frc consts  --      0.5595                 0.8376                 0.5612
 IR Inten    --      1.0581                 1.1196                 8.2404
  Atom  AN      X      Y      Z        X      Y      Z        X      Y      Z
     1   8    -0.09   0.10   0.03     0.05   0.08  -0.14    -0.04  -0.04   0.00
     2   6     0.01  -0.06  -0.06     0.19   0.19   0.17     0.07  -0.02   0.12
     3   6    -0.07  -0.07   0.15     0.03  -0.07   0.06    -0.03   0.10  -0.07
     4   6    -0.15   0.03   0.08     0.03  -0.04   0.00    -0.06   0.07  -0.01
     5   6    -0.03  -0.02  -0.04     0.01   0.00   0.01    -0.01   0.03  -0.02
     6   6     0.03   0.00  -0.01    -0.01   0.01   0.00     0.01   0.00  -0.01
     7   6     0.05   0.02   0.02    -0.01  -0.00  -0.00     0.01   0.01   0.00
     8   6    -0.00  -0.06  -0.03    -0.06  -0.12  -0.06    -0.03   0.04  -0.02
     9   6     0.05   0.04  -0.03    -0.05  -0.04  -0.03    -0.03   0.00  -0.02
    10   6     0.05   0.03  -0.02    -0.10  -0.05  -0.05     0.01  -0.03  -0.01
    11   6     0.14  -0.09  -0.12    -0.04   0.03   0.03     0.09  -0.09  -0.03
    12   1    -0.20  -0.00   0.16    -0.01  -0.30   0.04    -0.02  -0.04  -0.08
    13   1    -0.36   0.30   0.15    -0.03   0.17   0.06    -0.00  -0.33  -0.12
    14   1    -0.11   0.03  -0.24     0.09  -0.03  -0.20    -0.11   0.07   0.41
    15   1    -0.03  -0.02  -0.08    -0.03  -0.00  -0.10     0.06   0.04   0.33
    16   1     0.01   0.05  -0.02     0.02   0.11   0.03     0.01  -0.31  -0.11
    17   1     0.06   0.01   0.01    -0.01   0.01  -0.01    -0.03  -0.00   0.13
    18   1     0.08  -0.02  -0.02    -0.02   0.01   0.00     0.07  -0.13  -0.05
    19   1     0.05   0.01   0.01    -0.01  -0.01  -0.00    -0.00  -0.03  -0.00
    20   1     0.04   0.00   0.01    -0.01  -0.01  -0.00     0.02   0.01   0.01
    21   1     0.07   0.02   0.03     0.00  -0.00   0.00     0.02   0.01   0.04
    22   1     0.11   0.03  -0.03     0.03  -0.28  -0.07     0.01  -0.24  -0.04
    23   1    -0.05  -0.08  -0.06    -0.08  -0.08   0.14     0.06   0.14   0.26
    24   1     0.20   0.18  -0.01     0.20   0.22  -0.00     0.09   0.10  -0.01
    25   1    -0.04   0.02   0.19    -0.13  -0.15   0.32    -0.03  -0.07   0.12
    26   1     0.18   0.06   0.24     0.01  -0.08   0.20     0.11   0.06   0.14
    27   1    -0.21   0.08   0.03    -0.34   0.03  -0.00    -0.12   0.02   0.01
    28   1     0.24  -0.22  -0.12    -0.27  -0.04   0.04    -0.10   0.08  -0.02
    29   1     0.20  -0.04   0.03    -0.15   0.02   0.08     0.16  -0.13  -0.22
                     19                     20                     21
                      A                      A                      A
 Frequencies --    747.6006               797.4882               843.7209
 Red. masses --      1.2283                 1.2854                 1.5664
 Frc consts  --      0.4045                 0.4817                 0.6570
 IR Inten    --      0.8300                 0.8214                 7.3191
  Atom  AN      X      Y      Z        X      Y      Z        X      Y      Z
     1   8     0.01   0.03  -0.01     0.01  -0.01   0.00     0.02   0.04  -0.01
     2   6    -0.02   0.02  -0.04     0.02  -0.03  -0.01     0.04  -0.05  -0.08
     3   6     0.02  -0.06   0.05    -0.01   0.03  -0.04     0.04  -0.02   0.06
     4   6     0.02  -0.01  -0.01     0.00  -0.05   0.04    -0.01   0.02   0.01
     5   6    -0.00   0.04  -0.03    -0.00  -0.03   0.02    -0.01   0.02  -0.05
     6   6    -0.01   0.05  -0.03    -0.00   0.05  -0.04    -0.00  -0.02   0.02
     7   6    -0.00   0.01  -0.01     0.00   0.02  -0.01    -0.00  -0.01   0.02
     8   6     0.01  -0.04   0.01    -0.01   0.07  -0.02     0.03  -0.01  -0.05
     9   6     0.01  -0.01   0.01     0.00   0.03  -0.02    -0.05  -0.01  -0.03
    10   6    -0.01   0.02  -0.00    -0.01  -0.03   0.03    -0.10   0.01   0.06
    11   6    -0.03   0.04   0.00    -0.01  -0.04   0.04    -0.01  -0.03   0.08
    12   1     0.05  -0.02   0.05    -0.14   0.04  -0.03    -0.03   0.06   0.07
    13   1    -0.07  -0.12  -0.04     0.03   0.29   0.14    -0.16  -0.06  -0.01
    14   1     0.12   0.01   0.10    -0.07  -0.06  -0.30     0.08   0.04   0.07
    15   1    -0.08   0.03   0.39    -0.16  -0.05  -0.16     0.04   0.03   0.16
    16   1     0.12  -0.37  -0.14     0.14   0.16   0.07    -0.04  -0.18  -0.10
    17   1    -0.07   0.04   0.45     0.08   0.06   0.31    -0.09  -0.03  -0.11
    18   1     0.10  -0.41  -0.15    -0.04  -0.30  -0.13     0.10   0.12   0.06
    19   1    -0.11  -0.18  -0.05    -0.18  -0.22  -0.07     0.15   0.14   0.05
    20   1    -0.00  -0.06   0.04     0.02  -0.10   0.08    -0.03   0.04  -0.08
    21   1     0.13   0.02   0.17     0.20   0.04   0.21    -0.11  -0.03  -0.13
    22   1    -0.01   0.13   0.02     0.06  -0.18  -0.03     0.22  -0.08  -0.06
    23   1    -0.04  -0.10  -0.16    -0.01   0.13   0.24    -0.04   0.00   0.08
    24   1    -0.03  -0.02   0.01     0.08   0.00  -0.02     0.21   0.06  -0.02
    25   1    -0.01   0.02  -0.02     0.04  -0.02   0.01    -0.05  -0.12   0.19
    26   1    -0.02  -0.02  -0.01    -0.09  -0.01  -0.13    -0.29   0.06  -0.34
    27   1    -0.01   0.00  -0.00     0.17  -0.02   0.01     0.35   0.06  -0.01
    28   1     0.04  -0.07  -0.01    -0.01   0.18   0.04     0.12   0.34   0.08
    29   1    -0.06   0.07   0.12    -0.00  -0.10  -0.17     0.03  -0.10  -0.22
                     22                     23                     24
                      A                      A                      A
 Frequencies --    859.9577               892.6567               908.0984
 Red. masses --      2.3965                 2.1735                 1.5319
 Frc consts  --      1.0442                 1.0204                 0.7443
 IR Inten    --      0.1722                 1.5502                 2.0006
  Atom  AN      X      Y      Z        X      Y      Z        X      Y      Z
     1   8     0.03   0.03  -0.03     0.01  -0.03   0.02     0.01   0.00   0.00
     2   6     0.02   0.03  -0.01    -0.08   0.02  -0.02    -0.01  -0.01  -0.04
     3   6    -0.02  -0.09   0.02     0.02   0.09   0.07    -0.01   0.00  -0.00
     4   6    -0.01  -0.01  -0.01     0.09   0.00  -0.03    -0.01  -0.02  -0.04
     5   6    -0.00   0.05  -0.00     0.09  -0.06  -0.06    -0.05   0.04   0.07
     6   6     0.01  -0.02  -0.00    -0.03   0.06   0.08     0.02  -0.04  -0.05
     7   6     0.01  -0.02   0.01    -0.11  -0.01  -0.01     0.07   0.01  -0.01
     8   6    -0.10   0.06   0.03    -0.06  -0.03  -0.01    -0.03  -0.01   0.08
     9   6     0.09   0.19  -0.04    -0.07   0.01  -0.07    -0.02  -0.02  -0.08
    10   6     0.12  -0.10   0.07     0.13  -0.03   0.01     0.04  -0.03  -0.04
    11   6    -0.10  -0.10  -0.01    -0.02  -0.04   0.00     0.01  -0.00   0.08
    12   1    -0.04  -0.15   0.01     0.08   0.19   0.08     0.14   0.22   0.01
    13   1    -0.10  -0.04  -0.01     0.09  -0.03  -0.03     0.05  -0.02  -0.04
    14   1     0.13   0.01   0.01    -0.00  -0.01   0.01     0.01  -0.02  -0.01
    15   1     0.02   0.06   0.18     0.09  -0.06  -0.12    -0.07   0.03   0.02
    16   1     0.00  -0.13  -0.05     0.07   0.00  -0.05    -0.10   0.06   0.08
    17   1    -0.12  -0.04  -0.09     0.12   0.08   0.09    -0.06  -0.05  -0.05
    18   1     0.08   0.07   0.02     0.03   0.06   0.08    -0.12  -0.06  -0.06
    19   1     0.07   0.12   0.05     0.11  -0.07  -0.04    -0.17  -0.01  -0.00
    20   1     0.04   0.10   0.00    -0.30  -0.28  -0.27     0.24   0.19   0.24
    21   1    -0.15  -0.03  -0.11     0.18   0.02  -0.01    -0.11  -0.01   0.06
    22   1    -0.07  -0.10   0.02     0.10   0.05  -0.02    -0.01   0.27   0.08
    23   1    -0.37   0.02   0.21    -0.08  -0.04  -0.04    -0.04  -0.07  -0.20
    24   1    -0.04  -0.03  -0.07     0.16   0.28  -0.03     0.04   0.36  -0.02
    25   1     0.08   0.32  -0.26    -0.28   0.02   0.30    -0.03  -0.16   0.22
    26   1     0.08  -0.25   0.05     0.19  -0.04   0.16     0.10  -0.19   0.15
    27   1     0.12  -0.12   0.06    -0.01   0.16   0.05    -0.11   0.29   0.02
    28   1    -0.08  -0.01  -0.01     0.06   0.06  -0.00    -0.03   0.27   0.09
    29   1    -0.36  -0.19  -0.07    -0.23  -0.12  -0.08    -0.05  -0.10  -0.19
                     25                     26                     27
                      A                      A                      A
 Frequencies --    933.8962               940.4645               966.0922
 Red. masses --      1.7518                 1.7433                 1.6954
 Frc consts  --      0.9002                 0.9085                 0.9323
 IR Inten    --      2.5485                 1.9645                 3.2299
  Atom  AN      X      Y      Z        X      Y      Z        X      Y      Z
     1   8     0.00   0.02  -0.01    -0.02  -0.03   0.03    -0.01   0.01   0.01
     2   6     0.05  -0.04  -0.02    -0.07   0.01   0.00    -0.01  -0.01  -0.02
     3   6    -0.06  -0.04  -0.08    -0.04   0.01   0.03    -0.03  -0.07   0.05
     4   6    -0.02  -0.01   0.05     0.07  -0.10  -0.03    -0.01   0.03  -0.07
     5   6     0.06   0.00  -0.06     0.01   0.07   0.00     0.04  -0.01   0.04
     6   6    -0.00   0.04   0.04     0.01   0.01  -0.01     0.02  -0.00   0.03
     7   6    -0.07  -0.02   0.02     0.01  -0.05   0.01    -0.03   0.02  -0.04
     8   6    -0.03   0.03   0.08    -0.04   0.11  -0.01    -0.08   0.07   0.03
     9   6     0.08  -0.01  -0.01    -0.02  -0.07  -0.03     0.05  -0.02  -0.06
    10   6    -0.05  -0.03  -0.08     0.03  -0.03  -0.01    -0.05  -0.07  -0.00
    11   6     0.04   0.04   0.08     0.05   0.09  -0.03     0.07   0.10  -0.00
    12   1    -0.17   0.10  -0.05    -0.11  -0.02   0.03     0.08  -0.16   0.03
    13   1    -0.06   0.11   0.08     0.03   0.13   0.04    -0.03  -0.20  -0.13
    14   1     0.03  -0.00  -0.10     0.14  -0.10  -0.25     0.05   0.04   0.17
    15   1     0.06   0.01   0.07    -0.24   0.03   0.17     0.29   0.03  -0.07
    16   1     0.24  -0.08  -0.08     0.17  -0.12  -0.05    -0.19   0.08   0.06
    17   1    -0.02   0.03   0.05    -0.32  -0.03   0.02     0.27   0.03  -0.03
    18   1     0.25   0.06   0.05     0.20   0.00  -0.01    -0.24   0.04   0.04
    19   1     0.23   0.08   0.04     0.09   0.18   0.07    -0.17  -0.18  -0.09
    20   1    -0.24  -0.14  -0.27     0.07   0.18   0.00    -0.03  -0.13   0.04
    21   1     0.03  -0.01  -0.13    -0.28  -0.08  -0.18     0.16   0.04   0.15
    22   1    -0.25   0.13   0.10     0.12  -0.15  -0.02     0.04  -0.06   0.02
    23   1    -0.01  -0.01  -0.10     0.01   0.19   0.27    -0.26   0.06   0.19
    24   1    -0.16   0.09   0.01     0.20  -0.01  -0.02     0.19  -0.03  -0.06
    25   1     0.27  -0.15  -0.12    -0.02  -0.17   0.14     0.16  -0.18   0.02
    26   1    -0.01  -0.25   0.10     0.07   0.04   0.04    -0.12  -0.18  -0.10
    27   1    -0.19   0.11  -0.04    -0.04  -0.06  -0.01     0.05  -0.11  -0.02
    28   1    -0.13   0.19   0.09     0.16  -0.12  -0.04     0.27  -0.01  -0.02
    29   1     0.20   0.02  -0.11     0.03   0.14   0.17     0.12   0.15   0.12
                     28                     29                     30
                      A                      A                      A
 Frequencies --   1021.4169              1041.7320              1064.5435
 Red. masses --      2.9024                 1.9457                 1.4172
 Frc consts  --      1.7841                 1.2441                 0.9462
 IR Inten    --      1.4845                 2.5614                 5.1121
  Atom  AN      X      Y      Z        X      Y      Z        X      Y      Z
     1   8     0.01   0.01  -0.02    -0.01  -0.01   0.00    -0.00  -0.01  -0.00
     2   6    -0.01   0.04   0.01     0.04  -0.03   0.02    -0.04   0.07   0.05
     3   6    -0.12  -0.09  -0.02     0.04   0.12   0.03     0.02  -0.03  -0.04
     4   6    -0.10  -0.09  -0.11    -0.06  -0.04  -0.05    -0.08   0.01  -0.00
     5   6     0.11   0.09   0.10     0.04   0.04   0.06     0.03  -0.01   0.04
     6   6     0.13   0.06   0.08     0.09   0.07   0.05    -0.04   0.01  -0.05
     7   6    -0.10  -0.07  -0.09    -0.04  -0.08  -0.06     0.01   0.00   0.05
     8   6     0.11   0.04   0.03    -0.06  -0.10  -0.03     0.01  -0.02   0.04
     9   6    -0.02  -0.03   0.02     0.04   0.05  -0.01     0.01   0.01  -0.04
    10   6     0.02   0.10   0.02    -0.05  -0.04   0.02    -0.03  -0.01   0.04
    11   6    -0.04  -0.09  -0.02     0.02   0.02  -0.00     0.03  -0.02  -0.05
    12   1    -0.10  -0.19  -0.03     0.17   0.34   0.04     0.38  -0.24  -0.08
    13   1    -0.21  -0.13  -0.12    -0.04  -0.01  -0.04     0.21   0.00  -0.00
    14   1    -0.02  -0.08  -0.09    -0.32  -0.08  -0.06    -0.30  -0.03   0.03
    15   1     0.17   0.11   0.12    -0.17   0.01   0.02    -0.05  -0.02  -0.06
    16   1     0.02   0.08   0.10     0.08   0.08   0.07     0.35   0.13   0.07
    17   1     0.18   0.07   0.05    -0.06   0.05   0.11    -0.15  -0.01   0.07
    18   1     0.05   0.10   0.09     0.13   0.02   0.04     0.14  -0.07  -0.07
    19   1    -0.24  -0.12  -0.10    -0.16   0.00  -0.04     0.19   0.11   0.07
    20   1    -0.05  -0.04   0.00     0.05   0.09   0.04    -0.06  -0.00  -0.10
    21   1    -0.16  -0.07  -0.04    -0.27  -0.10  -0.10     0.02   0.01  -0.07
    22   1     0.14   0.08   0.03     0.02   0.06  -0.02    -0.01   0.10   0.04
    23   1     0.28   0.08  -0.03    -0.16  -0.15  -0.11    -0.13  -0.10  -0.09
    24   1    -0.02   0.04   0.04     0.08  -0.14  -0.04     0.04   0.11  -0.03
    25   1     0.07  -0.12   0.04    -0.13   0.26  -0.06     0.09  -0.12   0.04
    26   1     0.08   0.37   0.01    -0.15  -0.23  -0.10    -0.10   0.06  -0.12
    27   1     0.07   0.23   0.02     0.02  -0.26  -0.02     0.18   0.12   0.02
    28   1    -0.07   0.04  -0.01    -0.06  -0.05   0.00     0.39   0.02  -0.07
    29   1    -0.24  -0.17  -0.11     0.29   0.09   0.03    -0.13  -0.04   0.01
                     31                     32                     33
                      A                      A                      A
 Frequencies --   1071.6348              1082.7572              1089.2122
 Red. masses --      2.2197                 2.1470                 1.8175
 Frc consts  --      1.5019                 1.4830                 1.2705
 IR Inten    --      0.9092                 3.0807                12.9548
  Atom  AN      X      Y      Z        X      Y      Z        X      Y      Z
     1   8    -0.00  -0.01   0.00     0.01  -0.01  -0.01     0.00  -0.01  -0.00
     2   6    -0.03   0.02   0.01    -0.02   0.05   0.03    -0.05   0.07   0.05
     3   6     0.04  -0.03  -0.02    -0.03   0.06   0.05    -0.09   0.05   0.04
     4   6     0.03   0.07   0.08     0.10   0.02   0.01     0.08  -0.02  -0.03
     5   6    -0.19  -0.02   0.01    -0.05  -0.03  -0.03     0.04  -0.02  -0.04
     6   6     0.19   0.03  -0.01     0.02   0.02   0.02    -0.04   0.02   0.05
     7   6    -0.08  -0.06  -0.06     0.00  -0.02  -0.02     0.03  -0.01  -0.02
     8   6     0.03   0.02  -0.00    -0.12  -0.05   0.03     0.06  -0.05  -0.02
     9   6    -0.04   0.02  -0.00     0.15  -0.08  -0.02     0.00   0.09   0.02
    10   6     0.00  -0.05  -0.00    -0.04   0.13   0.01    -0.07  -0.07  -0.01
    11   6     0.02   0.03  -0.01    -0.01  -0.09  -0.03     0.08  -0.04  -0.01
    12   1     0.06  -0.24  -0.04    -0.10   0.13   0.06    -0.34  -0.18   0.03
    13   1     0.18   0.08   0.09     0.14   0.02   0.01    -0.02  -0.03  -0.03
    14   1     0.07   0.08   0.11     0.09   0.02   0.02     0.10  -0.02  -0.05
    15   1    -0.34  -0.05  -0.01    -0.16  -0.05  -0.04    -0.02  -0.03  -0.03
    16   1    -0.27  -0.01   0.01    -0.16  -0.05  -0.04    -0.09  -0.07  -0.06
    17   1     0.39   0.05   0.02     0.01   0.01   0.01    -0.15   0.01   0.01
    18   1     0.45   0.03  -0.01     0.02   0.00   0.01    -0.20   0.02   0.04
    19   1    -0.07  -0.06  -0.06    -0.08  -0.01  -0.02    -0.13  -0.01  -0.02
    20   1    -0.09  -0.06  -0.09     0.05   0.04   0.05     0.12   0.09   0.12
    21   1    -0.11  -0.07  -0.10    -0.08  -0.03  -0.01    -0.09  -0.02   0.03
    22   1    -0.05  -0.02   0.00    -0.29  -0.02   0.05    -0.19  -0.01  -0.00
    23   1     0.03   0.02   0.00    -0.28  -0.11  -0.02     0.22  -0.02  -0.11
    24   1    -0.15   0.18   0.02     0.21  -0.22  -0.05    -0.35   0.22   0.05
    25   1    -0.01  -0.03   0.03     0.39  -0.28  -0.11     0.03   0.12  -0.10
    26   1    -0.01  -0.11   0.00    -0.03   0.34  -0.07    -0.13  -0.22  -0.07
    27   1     0.02   0.05   0.01     0.13   0.28  -0.00     0.06   0.07  -0.01
    28   1     0.26   0.04  -0.02     0.01   0.02  -0.03     0.45   0.15  -0.02
    29   1    -0.09   0.01   0.03    -0.03  -0.12  -0.10     0.06  -0.07  -0.09
                     34                     35                     36
                      A                      A                      A
 Frequencies --   1109.5388              1146.3181              1161.9192
 Red. masses --      1.7260                 1.7247                 2.5765
 Frc consts  --      1.2519                 1.3353                 2.0494
 IR Inten    --      1.1215                18.3303                11.7479
  Atom  AN      X      Y      Z        X      Y      Z        X      Y      Z
     1   8     0.00   0.01   0.01    -0.01  -0.00   0.00    -0.03   0.01  -0.01
     2   6    -0.00  -0.05  -0.06     0.07  -0.04   0.02     0.15  -0.08   0.04
     3   6     0.16   0.03   0.03    -0.01   0.07   0.03    -0.08  -0.06  -0.09
     4   6    -0.06   0.02   0.03     0.00  -0.06  -0.05     0.02   0.08   0.07
     5   6     0.05  -0.01  -0.02    -0.03   0.07   0.06     0.03  -0.09  -0.10
     6   6    -0.01   0.04   0.05     0.02  -0.07  -0.07    -0.03   0.08   0.09
     7   6     0.02  -0.03  -0.03    -0.03   0.04   0.04     0.04  -0.04  -0.05
     8   6    -0.05   0.02  -0.05    -0.05  -0.02   0.01    -0.00   0.02   0.10
     9   6     0.01  -0.06   0.03     0.04  -0.04  -0.03    -0.02  -0.03  -0.08
    10   6     0.04   0.03  -0.04     0.01   0.06   0.04     0.03   0.04   0.10
    11   6    -0.05   0.03   0.02    -0.07  -0.01  -0.06    -0.08   0.04  -0.09
    12   1     0.05  -0.38  -0.01    -0.10  -0.01   0.03    -0.08   0.05  -0.07
    13   1    -0.25  -0.02   0.02    -0.03   0.01  -0.03     0.11   0.03   0.05
    14   1    -0.28  -0.02   0.03     0.14  -0.04  -0.08    -0.01   0.07   0.08
    15   1    -0.02  -0.02  -0.02     0.07   0.09   0.11    -0.03  -0.09  -0.11
    16   1     0.02   0.01  -0.01    -0.03   0.00   0.05    -0.01  -0.05  -0.09
    17   1    -0.13   0.03   0.05     0.17  -0.05  -0.10    -0.16   0.06   0.09
    18   1    -0.10   0.01   0.04     0.09  -0.01  -0.05    -0.12   0.02   0.07
    19   1    -0.12   0.00  -0.01     0.17  -0.02   0.01    -0.21   0.01  -0.02
    20   1     0.10   0.09   0.09    -0.15  -0.14  -0.13     0.18   0.15   0.15
    21   1    -0.14  -0.04  -0.00     0.21   0.06   0.02    -0.23  -0.07  -0.00
    22   1    -0.41  -0.29  -0.05    -0.23  -0.03   0.02     0.09   0.22   0.11
    23   1     0.11   0.11   0.13     0.42   0.12  -0.02     0.23   0.05  -0.09
    24   1    -0.20   0.08   0.06    -0.03   0.08  -0.00     0.17   0.14  -0.06
    25   1     0.10  -0.12  -0.04    -0.17   0.14   0.05    -0.17  -0.01   0.18
    26   1     0.06  -0.15   0.08    -0.17  -0.41  -0.10    -0.15  -0.26  -0.14
    27   1    -0.04   0.31   0.01     0.16   0.25   0.04     0.23   0.08   0.07
    28   1     0.14   0.05   0.01     0.21  -0.08  -0.07     0.01  -0.22  -0.09
    29   1    -0.12   0.01   0.02     0.08   0.07   0.09    -0.09   0.12   0.21
                     37                     38                     39
                      A                      A                      A
 Frequencies --   1170.0291              1231.1003              1260.9496
 Red. masses --      1.8506                 1.4955                 1.4849
 Frc consts  --      1.4927                 1.3355                 1.3911
 IR Inten    --      2.6619                15.6265                 5.1064
  Atom  AN      X      Y      Z        X      Y      Z        X      Y      Z
     1   8     0.02   0.04  -0.02     0.03   0.01  -0.02    -0.01   0.01   0.01
     2   6     0.02  -0.05  -0.07    -0.09   0.07  -0.01     0.06  -0.06  -0.01
     3   6    -0.11  -0.03   0.12    -0.00  -0.02  -0.02    -0.05   0.01   0.04
     4   6     0.04   0.08  -0.10    -0.03  -0.02   0.06     0.01  -0.01  -0.01
     5   6    -0.00  -0.07   0.05    -0.01   0.01  -0.06    -0.01   0.05  -0.04
     6   6    -0.01   0.05  -0.05    -0.01  -0.02   0.06     0.01  -0.09   0.07
     7   6     0.00  -0.03   0.03     0.01   0.02  -0.04    -0.01   0.07  -0.06
     8   6    -0.01   0.02  -0.01    -0.03   0.03   0.03    -0.01  -0.02  -0.03
     9   6     0.02  -0.01   0.04     0.03  -0.04   0.00     0.00   0.02   0.03
    10   6     0.01   0.03  -0.03    -0.00   0.04  -0.03    -0.01  -0.00  -0.02
    11   6    -0.02  -0.02   0.05    -0.01  -0.07   0.02     0.01   0.03   0.01
    12   1    -0.03  -0.33   0.08     0.38  -0.28  -0.06     0.07   0.02   0.03
    13   1     0.45  -0.16  -0.16     0.13   0.11   0.10     0.40   0.07   0.01
    14   1    -0.16   0.05   0.21     0.11   0.00  -0.05    -0.28  -0.05  -0.02
    15   1    -0.18  -0.10  -0.20     0.06   0.03   0.08    -0.23   0.02   0.11
    16   1     0.12   0.18   0.11     0.13  -0.08  -0.08     0.28  -0.09  -0.08
    17   1    -0.11   0.04   0.14     0.02  -0.02  -0.09    -0.16  -0.12  -0.23
    18   1     0.13  -0.12  -0.10     0.01   0.11   0.10     0.17   0.22   0.16
    19   1     0.11   0.11   0.06    -0.13  -0.08  -0.06    -0.16  -0.20  -0.13
    20   1    -0.01   0.06  -0.06     0.06  -0.01   0.08     0.02  -0.13   0.11
    21   1    -0.09  -0.04  -0.11     0.01   0.02   0.09     0.16   0.09   0.21
    22   1     0.10  -0.03  -0.02     0.08   0.04   0.03     0.13   0.00  -0.03
    23   1     0.21   0.11   0.08     0.14   0.08   0.03     0.00  -0.00   0.02
    24   1    -0.01  -0.10   0.02     0.18  -0.19  -0.02    -0.08  -0.02   0.03
    25   1    -0.08   0.13  -0.03    -0.29   0.27   0.05     0.12  -0.06  -0.06
    26   1     0.00  -0.14   0.04    -0.03  -0.20   0.01     0.02   0.03   0.02
    27   1    -0.09   0.00  -0.02    -0.05   0.01  -0.03    -0.04   0.03  -0.01
    28   1    -0.18   0.05   0.06     0.00   0.06   0.02     0.08   0.03   0.01
    29   1     0.14  -0.02  -0.09     0.46   0.00  -0.16    -0.32  -0.05   0.05
                     40                     41                     42
                      A                      A                      A
 Frequencies --   1266.7439              1289.8571              1297.8961
 Red. masses --      1.3600                 1.2785                 1.2609
 Frc consts  --      1.2858                 1.2532                 1.2515
 IR Inten    --      0.5215                 0.1107                 1.3538
  Atom  AN      X      Y      Z        X      Y      Z        X      Y      Z
     1   8    -0.02  -0.01   0.01    -0.01  -0.00   0.02     0.01   0.00  -0.00
     2   6     0.04   0.00   0.04     0.01  -0.03  -0.03    -0.01   0.01  -0.01
     3   6    -0.03  -0.03  -0.01     0.00   0.03   0.02    -0.02   0.01   0.05
     4   6    -0.03  -0.00   0.01    -0.02  -0.02   0.01    -0.04  -0.02  -0.02
     5   6    -0.02  -0.03  -0.00    -0.02  -0.01  -0.01    -0.05  -0.02  -0.01
     6   6    -0.02   0.04  -0.00    -0.02   0.02   0.01    -0.04   0.02   0.03
     7   6     0.01  -0.03   0.01     0.01  -0.02  -0.00     0.02  -0.02  -0.02
     8   6    -0.02   0.01  -0.06    -0.05  -0.03   0.03     0.01  -0.00  -0.06
[...]
 15,-0.00001045,0.00000173,-0.00000107,-0.00000435,-0.00000029,-0.00000
 239,-0.00000078,-0.00000081,-0.00000254,0.00000111,0.00001191,0.000002
 24,0.00001315,-0.01103122,-0.01486595,0.00037548,0.14989838,-0.0001333
 4,0.00031709,-0.00011587,0.00105898,0.00026954,-0.00008657,0.00051120,
 0.00045681,0.00010367,0.00078366,0.00066837,0.00033693,0.00001852,0.00
 029140,-0.00003564,-0.00001025,-0.00001572,-0.00005435,-0.00001475,0.0
 0001522,0.00000989,-0.12337804,-0.21692267,0.00210591,-0.01687359,-0.0
 2203050,0.00056425,0.00571033,-0.00349137,0.00002067,0.00017523,0.0006
 8867,0.00030117,0.00005044,0.00012964,-0.00043654,0.00012088,-0.000045
 37,0.00004492,-0.00007401,0.00049064,0.00020485,0.00011670,-0.00001233
 ,0.00007385,0.00000545,-0.00001460,-0.00003740,0.00000312,0.00001535,0
 .00000132,0.00000282,-0.00000225,-0.00000105,0.00000197,-0.00000140,-0
 .00000596,-0.00000623,0.00000338,-0.00000808,0.00000425,0.00000181,0.0
 0000098,0.00086040,0.00162371,0.00052548,0.13232658,0.23700186,-0.0025
 8796,-0.00192487,0.00119713,-0.00104831,0.00443076,-0.00496849,-0.0193
 3000,-0.02321833,-0.00392619,0.00080705,-0.00132945,0.00055705,0.00016
 268,-0.00013067,-0.00007011,0.00004238,0.00004968,0.00005024,0.0000026
 9,-0.00002347,-0.00000140,0.00444003,0.00259374,-0.04857855,0.00067387
 ,-0.00049703,-0.00084875,-0.00022050,-0.00004786,0.00036355,0.00032364
 ,0.00013748,0.00059732,0.00089828,-0.00021547,0.00155257,0.00003417,0.
 00010336,0.00003603,0.00008477,0.00065024,0.00028723,0.00009231,-0.000
 01502,0.00013986,0.00000712,-0.00000521,-0.00006237,-0.00001464,0.0000
 3135,0.00000382,0.00001117,-0.00000315,-0.00000620,0.00000034,0.000001
 02,-0.00000660,0.00000426,-0.00000219,0.00000660,0.00000688,0.00000083
 ,0.00000259,0.01626218,0.02310563,0.00002266,-0.00027015,-0.00333681,0
 .05252376,0.00021893,0.00000062,0.00007573,-0.00035673,-0.00005635,-0.
 00006964,0.00041185,-0.00065615,0.00140867,0.00016307,0.00018416,-0.00
 032837,-0.00000580,-0.00001046,0.00000241,0.00000666,0.00000105,-0.000
 01194,-0.00000602,0.00000144,0.00000537,-0.01241383,0.00091760,0.01533
 158,-0.14391417,-0.00063610,0.11845328,-0.01246242,-0.00096670,0.01569
 225,0.00048895,0.00076844,0.00109354,-0.00011739,0.00020408,-0.0009698
 5,0.00019302,-0.00014480,-0.00004454,-0.00000857,-0.00006224,0.0000363
 7,-0.00001082,0.00000112,-0.00001137,0.00000622,0.00002564,-0.00005804
 ,-0.00000156,-0.00000356,0.00000277,0.00000980,-0.00000601,-0.00000216
 ,0.00000242,0.00000286,-0.00000455,0.00000056,-0.00000111,-0.00000155,
 -0.00000148,0.00000052,0.00000008,-0.00129344,0.00334224,-0.00032804,0
 .00089979,-0.00007447,-0.00046961,0.15570708,-0.00003388,0.00020768,-0
 .00001077,0.00001640,-0.00061340,-0.00001475,-0.00081403,0.00105226,-0
 .00101375,-0.00012715,-0.00011934,0.00010588,-0.00006147,0.00001272,0.
 00002008,-0.00000663,0.00001569,0.00000792,0.00000451,-0.00000665,-0.0
 0000824,0.01905480,-0.00149109,-0.02407656,-0.00063927,-0.04809201,0.0
 0062924,-0.01882065,-0.00170311,0.02418318,0.00092165,0.00103415,0.000
 68549,-0.00011378,0.00011198,0.00075469,-0.00019018,0.00005939,0.00006
 012,0.00001470,0.00002125,-0.00006153,0.00000986,-0.00000017,0.0000210
 7,0.00001089,-0.00001285,0.00004991,0.00000210,-0.00000031,-0.00000409
 ,-0.00000525,-0.00000093,-0.00000248,-0.00000130,0.00000072,0.00000368
 ,0.00000429,-0.00000428,0.00000391,0.00000035,0.00000153,0.00000200,0.
 00392538,-0.00459315,0.00057560,-0.00078165,0.00109171,-0.00015123,0.0
 0059487,0.05682368,0.00014191,-0.00001951,-0.00010748,-0.00031286,0.00
 001833,0.00015619,-0.00036785,0.00020903,0.00081514,-0.00013723,0.0000
 2084,0.00033162,0.00006746,-0.00005222,-0.00005928,0.00000310,0.000017
 55,0.00003673,0.00001047,-0.00001465,-0.00001455,-0.00050315,-0.000588
 96,-0.00045582,0.11907989,0.00061249,-0.20739200,-0.00088562,0.0006029
 2,-0.00004191,-0.00032112,-0.00018687,0.00091679,0.00030782,0.00001501
 ,0.00052073,-0.00007172,0.00011130,-0.00008106,0.00000919,0.00000133,-
 0.00002179,-0.00000510,0.00000585,-0.00000457,-0.00000576,-0.00000932,
 0.00001606,0.00000029,-0.00000705,-0.00000412,-0.00000291,-0.00000057,
 0.00000196,-0.00000461,0.00000038,0.00000701,0.00000733,-0.00000730,0.
 00000884,-0.00000110,0.00000182,0.00000004,-0.00048473,-0.00020593,0.0
 0139873,-0.00000287,-0.00057989,0.00020234,-0.13318134,-0.00074996,0.2
 2312988,-0.00048552,0.00006572,0.00003371,0.00113361,-0.00008041,0.000
 38114,-0.00111519,0.00324212,0.00146948,-0.00026714,-0.00037433,-0.001
 13337,-0.00022213,0.00034947,0.00023519,-0.00000989,-0.00007043,-0.000
 17998,-0.00003117,0.00006559,0.00003905,-0.01125193,0.00030866,-0.0154
 6309,-0.13259295,0.00132701,-0.11936336,-0.01136712,0.00010837,-0.0156
 6233,-0.00148152,-0.00352821,0.00110746,0.00022612,0.00000507,-0.00019
 344,-0.00005213,-0.00003213,0.00002296,0.00005052,0.00003722,-0.000005
 02,0.00000748,-0.00002238,0.00001730,0.00002636,0.00000500,-0.00001303
 ,0.00000691,0.00001836,0.00000409,-0.00000830,-0.00000344,0.00000678,0
 .00000676,-0.00000389,-0.00000640,-0.00002434,0.00002316,-0.00003126,0
 .00000276,-0.00000762,-0.00000062,0.00021800,-0.00069320,0.00022130,0.
 00073465,-0.00000523,0.00029483,0.01279702,-0.00018149,0.01679266,0.14
 312941,0.00000333,0.00092507,0.00000094,-0.00002059,-0.00241434,0.0000
 6713,0.00305530,-0.00455655,-0.00150036,0.00095089,0.00064298,0.001539
 99,0.00027347,-0.00054668,-0.00031900,0.00004194,0.00008038,0.00025734
 ,0.00003577,-0.00009406,-0.00004577,0.01635078,-0.00023522,0.02484541,
 0.00137703,-0.04782220,0.00197650,-0.01610735,0.00050633,-0.02454286,-
 0.00342710,-0.00462430,0.00109970,-0.00040693,-0.00000432,-0.00033438,
 0.00009124,-0.00007595,-0.00005760,-0.00009388,0.00004309,0.00000834,0
 .00002416,0.00002153,0.00002068,-0.00002837,0.00000501,0.00001102,-0.0
 0000959,-0.00000744,-0.00000441,0.00000535,0.00000214,-0.00000954,-0.0
 0000695,0.00000345,0.00000708,0.00002905,-0.00002317,0.00004047,0.0000
 0370,0.00000990,0.00000373,-0.00055791,0.00114083,-0.00047085,-0.00084
 796,0.00078499,0.00018009,0.00005497,-0.00041411,0.00009111,-0.0013298
 5,0.05450767,-0.00008902,0.00001627,-0.00008351,0.00033682,-0.00003177
 ,0.00015471,0.00035630,0.00058856,0.00112866,-0.00014834,-0.00034490,0
 .00006701,-0.00001047,0.00004448,0.00008755,0.00000352,-0.00004049,-0.
 00005038,-0.00000602,0.00002268,0.00001801,0.00140975,-0.00004804,0.00
 051145,-0.12029512,0.00185578,-0.22548629,0.00117595,0.00012953,0.0000
 9400,0.00017752,-0.00072850,0.00129736,0.00009350,-0.00008937,0.000479
 15,-0.00007514,0.00010520,-0.00000625,0.00001537,0.00000913,-0.0000093
 5,-0.00000166,-0.00000334,-0.00000338,0.00000123,-0.00000570,-0.000010
 97,0.00000326,0.00000941,0.00000244,-0.00000075,0.00000040,0.00000241,
 0.00000304,-0.00000386,-0.00000464,-0.00001356,0.00001395,-0.00001246,
 0.00000201,-0.00000437,-0.00000134,-0.00020733,0.00034069,0.00079317,-
 0.00001154,0.00051128,0.00001505,-0.01462749,0.00022017,-0.02170538,0.
 13216333,-0.00204767,0.24146725,-0.00148709,0.00145824,0.00067091,-0.0
 0024412,-0.00417292,-0.00371902,-0.00013476,0.00003905,0.00054983,0.00
 013304,0.00002582,0.00022109,0.00001179,-0.00004459,-0.00000802,0.0000
 1950,-0.00001309,0.00001164,-0.00000196,0.00000132,0.00000852,-0.00259
 355,-0.00260505,-0.00013751,0.01305804,-0.01790196,-0.00074786,-0.1347
 2556,0.12291226,0.00866307,-0.01238272,0.01745942,-0.00151282,-0.00002
 729,-0.00002880,0.00000390,-0.00000301,-0.00005905,-0.00004543,-0.0000
 0162,0.00015661,-0.00001464,0.00003707,-0.00000897,0.00006285,0.000008
 63,0.00001078,-0.00001089,-0.00000110,0.00001943,-0.00000072,0.0000005
 4,-0.00000345,-0.00000305,0.00000347,-0.00000153,-0.00000483,-0.000007
 17,0.00001004,-0.00000448,0.00000437,-0.00000292,0.00000239,0.00003416
 ,-0.00007507,-0.00020005,0.00075897,-0.00116010,0.00007024,0.00091955,
 0.00078325,0.00000880,0.00070636,0.00087963,-0.00001445,0.14503880,0.0
 0004864,0.00009448,0.00013750,-0.00041822,0.00060644,-0.00019498,-0.00
 028014,0.00064031,-0.00020459,0.00004581,0.00006213,0.00012175,0.00003
 978,-0.00003286,-0.00008002,-0.00000659,0.00003200,0.00004940,0.000009
 23,-0.00002462,-0.00002154,-0.00573365,-0.00336726,-0.00019562,0.01652
 498,-0.02185617,-0.00133558,0.12161431,-0.22263094,-0.00903506,-0.0005
 0295,0.00146920,-0.00003817,0.00001390,-0.00002966,0.00005426,0.000010
 16,-0.00001390,0.00000128,-0.00003004,0.00010211,-0.00000560,0.0000208
 6,0.00000701,0.00001684,-0.00000676,-0.00000595,0.00001183,0.00000011,
 -0.00000025,-0.00000228,0.00000218,-0.00000169,-0.00000231,-0.00000505
 ,0.00000195,0.00000547,0.00001436,-0.00001540,0.00001481,0.00000213,0.
 00000688,0.00000353,-0.00006355,0.00033221,-0.00010421,0.00113336,-0.0
 0163604,0.00008461,0.00010572,0.00109327,0.00060017,-0.00000022,0.0007
 6360,-0.00049659,-0.13157923,0.24179078,-0.00257848,0.00193991,0.00114
 143,-0.00126315,-0.00418144,-0.00493578,0.00017877,-0.00009789,0.00051
 789,0.00016467,0.00003891,0.00013191,-0.00001557,-0.00003509,0.0000082
 6,0.00001860,-0.00000717,0.00000322,-0.00000410,0.00000167,0.00000713,
 -0.00026339,0.00000204,0.00038580,0.00104246,0.00026512,-0.00093284,0.
 00878417,-0.00974688,-0.04980402,-0.01737293,0.02476892,-0.00224621,-0
 .00003592,-0.00003122,-0.00000375,-0.00002985,-0.00004524,-0.00003262,
 0.00000105,0.00009836,0.00000180,0.00002538,-0.00000930,0.00005014,0.0
 0001079,0.00000862,-0.00000468,-0.00000136,0.00001400,-0.00000002,-0.0
 0000126,-0.00000299,-0.00000243,0.00000271,-0.00000038,-0.00000332,-0.
 00000421,0.00000616,-0.00000393,0.00000314,-0.00000170,0.00000182,-0.0
 0029846,0.00039372,0.00023493,0.00006959,-0.00009330,0.00057285,-0.000
 45534,0.00018475,0.00023373,0.00027771,-0.00016553,-0.00002899,-0.0056
 9377,0.01047866,0.05311272,-0.00001225,-0.00034627,0.00035601,0.001623
 88,-0.00060865,-0.00048970,0.00003390,-0.00000913,-0.00020426,0.000061
 46,0.00003772,0.00005761,0.00000730,-0.00003246,-0.00001719,-0.0000016
 3,0.00000990,0.00002013,0.00000178,-0.00000922,-0.00000559,0.00042744,
 0.00120599,-0.00027535,-0.01281994,-0.00184757,0.01707048,-0.12466463,
 -0.00482408,0.11638896,0.01098516,0.00135088,-0.01971560,-0.00013253,0
 .00000342,-0.00003133,0.00001195,0.00000708,0.00000678,-0.00000919,0.0
 0002360,0.00000689,0.00000690,0.00000153,-0.00000623,-0.00000480,-0.00
 000632,0.00000136,-0.00000109,0.00000086,0.00000091,0.00000147,0.00000
 121,-0.00000116,-0.00000104,0.00000011,0.00000027,0.00000443,-0.000004
 18,0.00000505,0.00000174,0.00000242,0.00000068,0.00071262,-0.00048500,
 -0.00021819,0.00003032,0.00007725,-0.00028578,-0.00141221,-0.00403974,
 -0.00058066,0.00025343,0.00056727,-0.00019848,-0.01056737,-0.00114238,
 0.01595576,0.13659560,-0.00008126,0.00014478,-0.00020746,-0.00048094,-
 0.00022699,0.00083299,0.00021115,-0.00014767,-0.00009534,0.00002680,-0
 .00000280,0.00003717,0.00000523,-0.00001739,0.00000017,0.00000684,-0.0
 0000869,-0.00000029,-0.00000123,0.00000294,0.00000547,-0.00065739,0.00
 178669,0.00109200,-0.01652235,-0.00267033,0.02411013,-0.00437664,-0.05
 299070,0.01097018,-0.00027611,-0.00019813,0.00026456,-0.00003688,0.000
 09233,-0.00019937,0.00003087,-0.00003154,-0.00000917,0.00000534,0.0000
 0897,0.00000480,0.00000635,-0.00000435,0.00001612,0.00000248,0.0000068
 1,-0.00001284,-0.00000095,0.00000495,0.00000101,0.00000213,-0.00000046
 ,-0.00000073,0.00000151,-0.00000055,-0.00000304,-0.00000334,0.00000416
 ,-0.00000276,0.00000082,-0.00000152,-0.00000015,0.00049880,-0.00035980
 ,-0.00057226,0.00009544,0.00032155,-0.00039281,-0.00337262,-0.00454138
 ,0.00007129,0.00070250,0.00116222,-0.00033097,0.01470875,0.00210355,-0
 .02355099,0.00952227,0.05438270,-0.00146879,0.00033999,0.00047819,0.00
 262752,-0.00183264,-0.00056068,-0.00003474,0.00036793,-0.00028867,0.00
 010973,0.00002540,-0.00002865,-0.00001613,0.00000587,0.00000989,0.0000
 1402,-0.00000970,-0.00001378,-0.00000438,0.00000649,0.00000439,-0.0002
 2952,-0.00014964,-0.00008094,-0.00071769,-0.00012456,0.00159354,0.1160
 6873,0.01095357,-0.22611648,0.01159092,0.00205467,-0.02323750,-0.00005
 252,-0.00005355,0.00014407,-0.00005417,0.00003120,0.00000992,-0.000014
 70,0.00004716,0.00001075,0.00001975,-0.00000651,0.00000723,-0.00000661
 ,-0.00000924,0.00001644,-0.00000058,0.00000881,0.00000123,-0.00001070,
 0.00000451,0.00000584,-0.00000114,-0.00000420,0.00000283,-0.00000529,0
 .00000792,-0.00000364,0.00000452,-0.00000222,-0.00000123,-0.00021988,0
 .00057803,0.00017476,-0.00019349,0.00010814,0.00023789,-0.00040092,-0.
 00064533,0.00147843,0.00022195,0.00045587,0.00083735,0.00095432,-0.000
 67814,-0.00078975,-0.12427066,-0.01162433,0.24852586,-0.00149191,0.004
 58756,-0.00272762,-0.01283134,-0.00138614,0.01573269,0.00001504,-0.000
 34782,-0.00076862,0.00001727,0.00003646,-0.00039097,-0.00006972,0.0000
 1455,-0.00002244,0.00002084,0.00000872,-0.00001800,-0.00000271,0.00000
 717,0.00001127,-0.00009829,-0.00031733,-0.00006179,0.00141284,0.000352
 06,-0.00002416,0.01109891,-0.00189500,-0.02057924,-0.12068556,0.005632
 51,0.12110636,0.00080723,0.00020720,-0.00037585,0.00003479,-0.00017024
 ,-0.00005364,0.00002047,0.00000919,-0.00002157,0.00001185,-0.00001553,
 0.00014300,0.00004933,0.00005992,-0.00003021,-0.00000235,0.00000641,-0
 .00000365,0.00000988,-0.00001494,-0.00000894,0.00000623,0.00000693,-0.
 00000711,-0.00000208,-0.00000034,-0.00000730,-0.00000561,-0.00000284,0
 .00000403,-0.00011867,0.00004224,-0.00004658,-0.00002279,-0.00001280,-
 0.00003899,-0.00016483,0.00007972,0.00038957,0.00017198,0.00039040,0.0
 0016375,0.00140511,-0.00009315,0.00095504,-0.00222967,-0.00030172,-0.0
 0398893,0.13303413,0.00330166,-0.00345751,0.00346342,0.01486020,0.0032
 2070,-0.02687673,-0.00146724,-0.00034725,0.00264139,0.00010888,0.00015
 462,0.00041202,0.00008091,0.00002139,0.00005310,-0.00002611,-0.0000142
 4,-0.00000582,0.00000440,0.00000460,-0.00000274,0.00045662,0.00020245,
 0.00026438,0.00054954,0.00006268,-0.00095160,-0.00153335,0.00042308,0.
 00219548,0.00685060,-0.05357932,-0.01705213,-0.00041028,-0.00169627,-0
 .00001556,-0.00000626,0.00013403,0.00006108,-0.00005912,0.00005155,0.0
 0001027,-0.00003646,0.00003155,-0.00016171,-0.00005420,-0.00005143,0.0
 0002249,0.00000105,-0.00001970,0.00000111,-0.00000521,0.00001230,0.000
 00633,-0.00000259,-0.00000352,0.00000386,-0.00000117,-0.00000078,0.000
 00097,-0.00000423,-0.00000010,-0.00000601,0.00000199,0.00009263,0.0000
 6640,0.00003984,0.00000221,0.00002050,-0.00018008,0.00013274,-0.000006
 16,-0.00002618,-0.00001668,0.00011725,-0.00059939,0.00014547,0.0002358
 7,0.00059854,0.00101556,0.00054717,-0.00946909,0.05052554,-0.00057517,
 -0.00033167,-0.00102973,-0.00036904,0.00064460,0.00173303,0.00086643,0
 .00012019,-0.00062942,-0.00015894,-0.00020751,0.00016743,0.00006863,0.
 00002930,0.00001465,-0.00001339,-0.00001138,-0.00000875,0.00000182,0.0
 0000609,0.00000003,-0.00048231,-0.00010135,-0.00019534,0.00152532,0.00
 045761,0.00097642,0.01357290,-0.00140032,-0.02637151,0.11723637,-0.012
 98800,-0.21881478,-0.00040925,0.00010608,0.00059386,-0.00007047,0.0001
 1982,0.00002574,0.00001558,-0.00002977,0.00000180,-0.00003229,-0.00002
 060,-0.00000490,-0.00000596,-0.00001109,0.00001895,0.00000181,-0.00000
 327,-0.00000030,-0.00000490,0.00000553,0.00000449,-0.00000183,-0.00000
 213,0.00000279,-0.00000223,0.00000188,-0.00000149,-0.00000071,-0.00000
 098,-0.00000185,-0.00003009,0.00018184,0.00014578,0.00000942,-0.000061
 35,0.00000666,-0.00085107,-0.00071850,0.00043867,-0.00017842,0.0002717
 9,0.00042153,0.00038314,0.00039827,0.00155470,-0.00447296,-0.00004831,
 -0.00340541,-0.12593031,0.01294614,0.24419453,0.00198142,-0.00128028,-
 0.00005016,0.01154629,0.01596280,-0.00053515,-0.00215468,0.00247144,0.
 00009543,0.00075176,0.00072631,0.00007277,0.00004424,-0.00002612,0.000
 08515,-0.00000416,0.00000626,-0.00001888,-0.00000649,-0.00000056,0.000
 00216,-0.00025468,0.00024903,-0.00006492,-0.00146447,0.00170949,-0.004
 09579,-0.01151035,-0.01472744,0.00184210,-0.15918195,-0.13464717,0.005
 48372,-0.00001443,0.00000746,-0.00009805,0.00002984,-0.00006324,0.0000
 1498,-0.00013335,0.00034699,-0.00001190,-0.00000372,-0.00001522,-0.000
 01832,0.00000115,0.00000493,-0.00001246,-0.00000271,-0.00000932,-0.000
 00032,0.00000020,-0.00000050,0.00000198,-0.00000024,-0.00000012,-0.000
 00086,-0.00000055,0.00000023,-0.00000162,-0.00000054,0.00000118,-0.000
 00284,0.00006723,-0.00005933,0.00001936,0.00006541,-0.00008498,0.00004
 707,0.00034434,0.00039370,0.00005015,-0.00056205,-0.00129781,-0.000205
 96,0.00003793,0.00027641,0.00052796,0.00109695,0.00028414,0.00007940,-
 0.01039036,-0.01297327,-0.00009208,0.16971793,-0.00001611,0.00610949,-
 0.00026143,-0.02280614,-0.02664329,0.00133720,0.00524111,-0.00319064,-
 0.00003668,-0.00164235,-0.00084773,-0.00026331,-0.00007750,-0.00004603
 ,-0.00024749,0.00001338,0.00004534,0.00011862,0.00001765,-0.00004499,-
 0.00003556,0.00044611,0.00027824,0.00046612,0.00058537,0.00081443,0.00
 044854,0.00230593,0.00303501,-0.00085265,-0.12968128,-0.20768888,0.005
 20060,0.00010835,0.00045288,0.00015270,0.00006382,-0.00003032,-0.00006
 194,0.00034755,-0.00058483,-0.00002096,0.00004701,0.00002587,0.0000947
 1,0.00000776,0.00000829,0.00002047,0.00000019,0.00002909,-0.00000211,0
 .00000438,-0.00000705,-0.00001120,-0.00000418,0.00000302,0.00000624,0.
 00002117,-0.00001769,0.00002584,0.00001165,0.00000986,0.00001401,-0.00
 003875,-0.00000612,-0.00012318,-0.00008857,-0.00000169,-0.00009572,-0.
 00003467,-0.00006599,0.00004899,0.00010074,0.00023581,0.00019081,-0.00
 020848,0.00036335,-0.00046762,-0.00005505,0.00016511,-0.00040269,0.002
 58591,0.00295367,0.00064707,0.14274499,0.22464577,-0.00025447,0.000152
 65,-0.00128459,0.00090233,-0.00076801,-0.00059205,0.00002646,0.0006494
 2,0.00120248,0.00005897,0.00000917,0.00040223,0.00004655,-0.00001158,0
 .00000428,-0.00000275,-0.00001121,0.00000480,0.00000406,0.00000447,0.0
 0000295,-0.00015129,0.00066925,-0.00014037,-0.00269596,0.00154629,-0.0
 0453816,-0.01655924,-0.02208401,0.00111992,0.00543450,0.00536836,-0.05
 083816,-0.00047111,-0.00030680,0.00023285,-0.00004664,0.00005634,0.000
 00596,-0.00003037,0.00008483,-0.00001559,0.00000261,-0.00000984,0.0000
 1317,-0.00000097,-0.00000668,-0.00000063,0.00000007,0.00000116,-0.0000
 0052,0.00000150,0.00000156,-0.00000074,0.00000096,-0.00000056,-0.00000
 194,-0.00000324,0.00000162,-0.00000221,-0.00000227,-0.00000168,-0.0000
 0056,0.00005295,-0.00003561,-0.00001077,0.00013580,-0.00006051,0.00009
 347,-0.00028622,-0.00005052,0.00019508,-0.00105860,-0.00137921,0.00002
 587,0.00050679,0.00041630,0.00083004,0.00090225,-0.00035508,0.00098812
 ,0.01660022,0.02200926,0.00016242,-0.00311290,-0.00588939,0.05214264\\
 0.00003832,-0.00002312,-0.00000197,0.00001183,-0.00001546,-0.00001405,
 -0.00001700,-0.00000368,0.00003810,0.00000423,-0.00001070,0.00000226,-
 0.00001268,0.00003029,-0.00000905,0.00000703,-0.00002454,0.00000457,0.
 00000007,0.00001480,-0.00000413,0.00001730,-0.00001176,-0.00001834,-0.
 00003732,0.00003410,0.00001194,0.00002873,-0.00000454,-0.00000925,-0.0
 0002808,0.00001669,0.00000419,-0.00000073,0.00000029,-0.00001247,-0.00
 000169,0.00000438,0.00000288,0.00000927,-0.00000059,0.00000685,0.00000
 178,-0.00001003,-0.00000427,-0.00000200,-0.00000760,-0.00000272,-0.000
 00458,0.00000364,0.00000717,-0.00000427,0.00000453,0.00000045,-0.00000
 009,-0.00000292,-0.00000484,0.00000115,0.00000250,-0.00000356,0.000000
 35,0.00000046,0.00000044,0.00000108,0.00000138,0.00000580,0.00000016,0
 .00000372,0.00000278,0.00000315,0.00000390,-0.00000911,0.00000131,0.00
 000274,-0.00000107,-0.00000137,-0.00000323,0.00000661,-0.00000564,-0.0
 0000863,0.00000410,-0.00000294,-0.00000279,-0.00000098,-0.00000738,0.0
 0000615,-0.00000231\\\@


 THE PROGRESS OF RIVERS TO THE SEA IS NOT AS RAPID
 AS THAT OF MAN TO ERROR.
                                              -- VOLTAIRE
 Job cpu time:       0 days  0 hours  2 minutes 26.5 seconds.
 Elapsed time:       0 days  0 hours  2 minutes 27.7 seconds.
 File lengths (MBytes):  RWF=    140 Int=      0 D2E=      0 Chk=      5 Scr=      1
 Normal termination of Gaussian 16 at Thu Feb 22 10:37:44 2024.
