 Entering Gaussian System, Link 0=g16
 Input=/Volumes/SSD-PMU3/b3lyp_6-31gd_freq/POYYYXPQBFPUKS-SECBINFHSA-N_calculating/gaussianinput1.gjf
 Output=/Volumes/SSD-PMU3/b3lyp_6-31gd_freq/POYYYXPQBFPUKS-SECBINFHSA-N_calculating/gaussianinput1.log
 Initial command:
 /Applications/g16/l1.exe "/Users/macmini_m1_2022/PycharmProjects/sphere_model/sphere_model_lib/Gau-60280.inp" -scrdir="/Users/macmini_m1_2022/PycharmProjects/sphere_model/sphere_model_lib/"
 Entering Link 1 = /Applications/g16/l1.exe PID=     60281.
  
 Copyright (c) 1988,1990,1992,1993,1995,1998,2003,2009,2016,
            Gaussian, Inc.  All Rights Reserved.
  
 This is part of the Gaussian(R) 16 program.  It is based on
 the Gaussian(R) 09 system (copyright 2009, Gaussian, Inc.),
 the Gaussian(R) 03 system (copyright 2003, Gaussian, Inc.),
 the Gaussian(R) 98 system (copyright 1998, Gaussian, Inc.),
 the Gaussian(R) 94 system (copyright 1995, Gaussian, Inc.),
 the Gaussian 92(TM) system (copyright 1992, Gaussian, Inc.),
 the Gaussian 90(TM) system (copyright 1990, Gaussian, Inc.),
 the Gaussian 88(TM) system (copyright 1988, Gaussian, Inc.),
 the Gaussian 86(TM) system (copyright 1986, Carnegie Mellon
 University), and the Gaussian 82(TM) system (copyright 1983,
 Carnegie Mellon University). Gaussian is a federally registered
 trademark of Gaussian, Inc.
  
 This software contains proprietary and confidential information,
 including trade secrets, belonging to Gaussian, Inc.
  
 This software is provided under written license and may be
 used, copied, transmitted, or stored only in accord with that
 written license.
  
 The following legend is applicable only to US Government
 contracts under FAR:
  
                    RESTRICTED RIGHTS LEGEND
  
 Use, reproduction and disclosure by the US Government is
 subject to restrictions as set forth in subparagraphs (a)
 and (c) of the Commercial Computer Software - Restricted
 Rights clause in FAR 52.227-19.
  
 Gaussian, Inc.
 340 Quinnipiac St., Bldg. 40, Wallingford CT 06492
  
  
 ---------------------------------------------------------------
 Warning -- This program may not be used in any manner that
 competes with the business of Gaussian, Inc. or will provide
 assistance to any competitor of Gaussian, Inc.  The licensee
 of this program is prohibited from giving any competitor of
 Gaussian, Inc. access to this program.  By using this program,
 the user acknowledges that Gaussian, Inc. is engaged in the
 business of creating and licensing software in the field of
 computational chemistry and represents and warrants to the
 licensee that it is not a competitor of Gaussian, Inc. and that
 it will not use this program in any manner prohibited above.
 ---------------------------------------------------------------
  

 Cite this work as:
 Gaussian 16, Revision A.03,
 M. J. Frisch, G. W. Trucks, H. B. Schlegel, G. E. Scuseria, 
 M. A. Robb, J. R. Cheeseman, G. Scalmani, V. Barone, 
 G. A. Petersson, H. Nakatsuji, X. Li, M. Caricato, A. V. Marenich, 
 J. Bloino, B. G. Janesko, R. Gomperts, B. Mennucci, H. P. Hratchian, 
 J. V. Ortiz, A. F. Izmaylov, J. L. Sonnenberg, D. Williams-Young, 
 F. Ding, F. Lipparini, F. Egidi, J. Goings, B. Peng, A. Petrone, 
 T. Henderson, D. Ranasinghe, V. G. Zakrzewski, J. Gao, N. Rega, 
 G. Zheng, W. Liang, M. Hada, M. Ehara, K. Toyota, R. Fukuda, 
 J. Hasegawa, M. Ishida, T. Nakajima, Y. Honda, O. Kitao, H. Nakai, 
 T. Vreven, K. Throssell, J. A. Montgomery, Jr., J. E. Peralta, 
 F. Ogliaro, M. J. Bearpark, J. J. Heyd, E. N. Brothers, K. N. Kudin, 
 V. N. Staroverov, T. A. Keith, R. Kobayashi, J. Normand, 
 K. Raghavachari, A. P. Rendell, J. C. Burant, S. S. Iyengar, 
 J. Tomasi, M. Cossi, J. M. Millam, M. Klene, C. Adamo, R. Cammi, 
 J. W. Ochterski, R. L. Martin, K. Morokuma, O. Farkas, 
 J. B. Foresman, and D. J. Fox, Gaussian, Inc., Wallingford CT, 2016.
 
 ******************************************
 Gaussian 16:  EM64M-G16RevA.03 25-Dec-2016
                22-Feb-2024 
 ******************************************
 %nprocshared=8
 Will use up to    8 processors via shared memory.
 %mem=8GB
 %chk= 1.chk
 ---------------------
 # freq b3lyp/6-31g(d)
 ---------------------
 1/10=4,30=1,38=1/1,3;
 2/12=2,17=6,18=5,40=1/2;
 3/5=1,6=6,7=1,11=2,25=1,30=1,71=2,74=-5,140=1/1,2,3;
 4//1;
 5/5=2,38=5,98=1/2;
 8/6=4,10=90,11=11/1;
 11/6=1,8=1,9=11,15=111,16=1/1,2,10;
 10/6=1/2;
 6/7=2,8=2,9=2,10=2,28=1/1;
 7/8=1,10=1,25=1/1,2,3,16;
 1/10=4,30=1/3;
 99//99;
 ---------
 good luck
 ---------
 Symbolic Z-matrix:
 Charge =  0 Multiplicity = 1
 O                     1.21727   0.        0. 
 C                     0.        0.        0. 
 C                    -0.8281   -1.29095  -0.00544 
 C                     0.06176  -2.54181  -0.03871 
 C                    -0.67753  -3.85687   0.24111 
 C                     0.25653  -5.07444   0.2648 
 C                    -0.47352  -6.39087   0.54912 
 C                    -1.86669  -1.22669  -1.15518 
 C                    -2.7194    0.04919  -1.11088 
 C                    -1.84472   1.30885  -1.14437 
 C                    -0.80485   1.29479  -0.00544 
 H                    -1.3976   -1.28357   0.94068 
 H                     0.866    -2.41186   0.695 
 H                     0.56276  -2.59713  -1.01515 
 H                    -1.4587   -4.02555  -0.51357 
 H                    -1.19946  -3.7849    1.20779 
 H                     0.78024  -5.14631  -0.69893 
 H                     1.03687  -4.91579   1.02229 
 H                    -0.97931  -6.36212   1.52226 
 H                     0.22031  -7.23918   0.56014 
 H                    -1.23607  -6.59467  -0.21292 
 H                    -2.51261  -2.11111  -1.1136 
 H                    -1.33177  -1.27616  -2.11518 
 H                    -3.42367   0.05653  -1.95217 
 H                    -3.32779   0.0503   -0.19436 
 H                    -2.46109   2.21313  -1.07265 
 H                    -1.32014   1.36248  -2.10844 
 H                    -1.33018   1.37191   0.95877 
 H                    -0.10721   2.1346   -0.07411 
 

 GradGradGradGradGradGradGradGradGradGradGradGradGradGradGradGradGradGrad
 Berny optimization.
 Initialization pass.
 Trust Radius=3.00D-01 FncErr=1.00D-07 GrdErr=1.00D-07 EigMax=2.50D+02 EigMin=1.00D-04
 Number of steps in this run=      2 maximum allowed number of steps=      2.
 GradGradGradGradGradGradGradGradGradGradGradGradGradGradGradGradGradGrad

                          Input orientation:                          
 ---------------------------------------------------------------------
 Center     Atomic      Atomic             Coordinates (Angstroms)
 Number     Number       Type             X           Y           Z
 ---------------------------------------------------------------------
      1          8           0        1.217274    0.000000    0.000000
      2          6           0        0.000000    0.000000    0.000000
      3          6           0       -0.828096   -1.290954   -0.005435
      4          6           0        0.061763   -2.541808   -0.038705
      5          6           0       -0.677526   -3.856866    0.241110
      6          6           0        0.256533   -5.074436    0.264799
      7          6           0       -0.473524   -6.390869    0.549118
      8          6           0       -1.866691   -1.226692   -1.155176
      9          6           0       -2.719395    0.049190   -1.110883
     10          6           0       -1.844716    1.308845   -1.144371
     11          6           0       -0.804854    1.294794   -0.005435
     12          1           0       -1.397595   -1.283568    0.940678
     13          1           0        0.865995   -2.411861    0.695003
     14          1           0        0.562759   -2.597130   -1.015151
     15          1           0       -1.458700   -4.025546   -0.513566
     16          1           0       -1.199458   -3.784899    1.207787
     17          1           0        0.780239   -5.146312   -0.698933
     18          1           0        1.036867   -4.915786    1.022287
     19          1           0       -0.979314   -6.362116    1.522259
     20          1           0        0.220310   -7.239176    0.560136
     21          1           0       -1.236073   -6.594673   -0.212924
     22          1           0       -2.512609   -2.111108   -1.113595
     23          1           0       -1.331771   -1.276159   -2.115185
     24          1           0       -3.423666    0.056525   -1.952171
     25          1           0       -3.327788    0.050296   -0.194361
     26          1           0       -2.461089    2.213126   -1.072651
     27          1           0       -1.320139    1.362483   -2.108440
     28          1           0       -1.330181    1.371910    0.958774
     29          1           0       -0.107205    2.134604   -0.074114
 ---------------------------------------------------------------------
                    Distance matrix (angstroms):
                    1          2          3          4          5
     1  O    0.000000
     2  C    1.217274   0.000000
     3  C    2.418704   1.533732   0.000000
     4  C    2.792399   2.542853   1.535445   0.000000
     5  C    4.303930   3.923339   2.582123   1.534347   0.000000
     6  C    5.171368   5.087812   3.945147   2.558174   1.534765
     7  C    6.633516   6.431871   5.142216   3.930310   2.560792
     8  C    3.514263   2.514705   1.550714   2.587464   3.206485
     9  C    4.090702   2.937957   2.568076   3.949389   4.610248
    10  C    3.521142   2.534884   3.014904   4.436743   5.474163
    11  C    2.401150   1.524569   2.585852   3.933401   5.159128
    12  H    3.061039   2.117946   1.104316   2.161501   2.762202
    13  H    2.534462   2.655193   2.148718   1.096359   2.162525
    14  H    2.864264   2.844699   2.158726   1.098865   2.168740
    15  H    4.861029   4.312375   2.851991   2.176874   1.099191
    16  H    4.650248   4.150049   2.798138   2.165571   1.100934
    17  H    5.211913   5.251838   4.234556   2.781286   2.161349
    18  H    5.024198   5.126901   4.204011   2.777103   2.161178
    19  H    6.900637   6.614594   5.298434   4.256196   2.829964
    20  H    7.328940   7.264156   6.066331   4.738039   3.513959
    21  H    7.039457   6.712892   5.323432   4.259160   2.830849
    22  H    4.428194   3.465555   2.176753   2.822815   2.872356
    23  H    3.549679   2.806457   2.169090   2.802780   3.555307
    24  H    5.035126   3.941530   3.513184   4.749832   5.259886
    25  H    4.549494   3.333838   2.843080   4.269928   4.741249
    26  H    4.424801   3.479291   4.010510   5.481170   6.461569
    27  H    3.569362   2.836309   3.421325   4.630005   5.759769
    28  H    3.048100   2.137935   2.876219   4.271962   5.317998
    29  H    2.513219   2.138579   3.501264   4.679598   6.026802
                    6          7          8          9         10
     6  C    0.000000
     7  C    1.531932   0.000000
     8  C    4.618392   5.613756   0.000000
     9  C    6.082778   7.019537   1.535233   0.000000
    10  C    6.866388   8.002104   2.535655   1.533922   0.000000
    11  C    6.462713   7.712764   2.967709   2.537521   1.542299
    12  H    4.190899   5.204974   2.148462   2.780702   3.356777
    13  H    2.765109   4.200964   3.506474   4.708823   4.957308
    14  H    2.805190   4.232408   2.792836   4.217192   4.590128
    15  H    2.155933   2.773918   2.900294   4.306926   5.385411
    16  H    2.161491   2.784224   3.545873   4.731456   5.647586
    17  H    1.099188   2.162978   4.751612   6.277769   6.982683
    18  H    1.099036   2.163571   5.175076   6.581102   7.193327
    19  H    2.183264   1.097112   5.859068   7.146059   8.167220
    20  H    2.185094   1.095971   6.591497   8.034578   8.957586
    21  H    2.183395   1.097144   5.486414   6.866403   7.981456
    22  H    4.283623   5.023827   1.095961   2.170174   3.484696
    23  H    4.755412   5.830554   1.100093   2.165796   2.808530
    24  H    6.692203   7.518555   2.169336   1.097186   2.171159
    25  H    6.270651   7.084362   2.165333   1.100071   2.164709
    26  H    7.891945   8.978267   3.491771   2.179634   1.096715
    27  H    7.039324   8.239772   2.812696   2.162817   1.098857
    28  H    6.674926   7.820640   3.392545   2.821876   2.166089
    29  H    7.226163   8.556068   3.944971   3.499625   2.201425
                   11         12         13         14         15
    11  C    0.000000
    12  H    2.809701   0.000000
    13  H    4.125729   2.541110   0.000000
    14  H    4.246995   3.064914   1.746684   0.000000
    15  H    5.384397   3.104352   3.077146   2.525521   0.000000
    16  H    5.237452   2.523343   2.532642   3.075330   1.757320
    17  H    6.669431   4.727798   3.070445   2.577910   2.510642
    18  H    6.558922   4.373359   2.530998   3.122835   3.062552
    19  H    7.809773   5.128825   4.437796   4.794951   3.135914
    20  H    8.613912   6.183178   4.872173   4.914000   3.781445
    21  H    7.903967   5.437345   4.768536   4.456424   2.596221
    22  H    3.967948   2.479540   3.844014   3.115092   2.266237
    23  H    3.367267   3.056581   3.743949   2.558180   3.184403
    24  H    3.490167   3.777484   5.612633   4.879700   4.753312
    25  H    2.819515   2.606368   4.943784   4.776915   4.495316
    26  H    2.173798   4.172695   5.965282   5.682035   6.343374
    27  H    2.166271   4.037909   5.184992   4.518752   5.620825
    28  H    1.100734   2.656395   4.382886   4.820050   5.596145
    29  H    1.093943   3.791940   4.712643   4.870699   6.321954
                   16         17         18         19         20
    16  H    0.000000
    17  H    3.067283   0.000000
    18  H    2.512860   1.755448   0.000000
    19  H    2.605648   3.083488   2.531171   0.000000
    20  H    3.790412   2.505764   2.505692   1.770314   0.000000
    21  H    3.148744   2.529717   3.083936   1.769426   1.770327
    22  H    3.148771   4.497472   5.002698   5.231614   6.047090
    23  H    4.165744   4.630814   5.357337   6.262762   6.717430
    24  H    5.448759   6.805361   7.312156   7.697108   8.533317
    25  H    4.604837   6.643434   6.722530   7.041388   8.142154
    26  H    6.539756   8.050292   8.212542   9.080969   9.960015
    27  H    6.124334   6.983030   7.400918   8.542106   9.136893
    28  H    5.164472   7.049048   6.718785   7.762460   8.758638
    29  H    6.154413   7.361365   7.226271   8.689260   9.400920
                   21         22         23         24         25
    21  H    0.000000
    22  H    4.747958   0.000000
    23  H    5.649278   1.759176   0.000000
    24  H    7.214498   2.496371   2.485688   0.000000
    25  H    6.966436   2.486197   3.071340   1.760434   0.000000
    26  H    8.934043   4.324735   3.812787   2.520127   2.490059
    27  H    8.180243   3.804936   2.638676   2.480881   3.068581
    28  H    8.052837   4.221879   4.057277   3.819230   2.658349
    29  H    8.803061   4.989244   4.159187   4.341016   3.838093
                   26         27         28         29
    26  H    0.000000
    27  H    1.760176   0.000000
    28  H    2.472506   3.067245   0.000000
    29  H    2.558127   2.491157   1.773198   0.000000
 Stoichiometry    C10H18O
 Framework group  C1[X(C10H18O)]
 Deg. of freedom    81
 Full point group                 C1      NOp   1
 Largest Abelian subgroup         C1      NOp   1
 Largest concise Abelian subgroup C1      NOp   1
                         Standard orientation:                         
 ---------------------------------------------------------------------
 Center     Atomic      Atomic             Coordinates (Angstroms)
 Number     Number       Type             X           Y           Z
 ---------------------------------------------------------------------
      1          8           0       -1.311538    2.216845   -0.315607
      2          6           0       -1.510523    1.093711    0.109517
      3          6           0       -0.389926    0.059235    0.272169
      4          6           0        0.968023    0.609163   -0.187339
      5          6           0        2.172104   -0.255790    0.207967
      6          6           0        3.513959    0.360336   -0.210743
      7          6           0        4.721607   -0.494923    0.185408
      8          6           0       -0.805660   -1.258903   -0.430959
      9          6           0       -2.180143   -1.765762    0.028205
     10          6           0       -3.268863   -0.707455   -0.189949
     11          6           0       -2.903528    0.618794    0.507388
     12          1           0       -0.339298   -0.157549    1.353814
     13          1           0        1.090010    1.616423    0.228050
     14          1           0        0.948028    0.742918   -1.277850
     15          1           0        2.088251   -1.256644   -0.238668
     16          1           0        2.170914   -0.408570    1.298248
     17          1           0        3.515821    0.515728   -1.298890
     18          1           0        3.607888    1.359240    0.237863
     19          1           0        4.766158   -0.639704    1.272012
     20          1           0        5.662669   -0.027711   -0.126467
     21          1           0        4.673819   -1.488293   -0.277904
     22          1           0       -0.043576   -2.025424   -0.249840
     23          1           0       -0.823189   -1.087293   -1.517442
     24          1           0       -2.436603   -2.687147   -0.509472
     25          1           0       -2.134480   -2.029345    1.095254
     26          1           0       -4.238560   -1.064689    0.177278
     27          1           0       -3.389109   -0.525249   -1.266903
     28          1           0       -2.910680    0.463152    1.597039
     29          1           0       -3.618052    1.414965    0.278742
 ---------------------------------------------------------------------
 Rotational constants (GHZ):           2.2289103           0.4868231           0.4175093
 Standard basis: 6-31G(d) (6D, 7F)
 There are   201 symmetry adapted cartesian basis functions of A   symmetry.
 There are   201 symmetry adapted basis functions of A   symmetry.
   201 basis functions,   380 primitive gaussians,   201 cartesian basis functions
    43 alpha electrons       43 beta electrons
       nuclear repulsion energy       629.6443680979 Hartrees.
 NAtoms=   29 NActive=   29 NUniq=   29 SFac= 1.00D+00 NAtFMM=   60 NAOKFM=F Big=F
 Integral buffers will be    131072 words long.
 Raffenetti 2 integral format.
 Two-electron integral symmetry is turned on.
 One-electron integrals computed using PRISM.
 NBasis=   201 RedAO= T EigKep=  2.28D-03  NBF=   201
 NBsUse=   201 1.00D-06 EigRej= -1.00D+00 NBFU=   201
 ExpMin= 1.61D-01 ExpMax= 5.48D+03 ExpMxC= 8.25D+02 IAcc=3 IRadAn=         5 AccDes= 0.00D+00
 Harris functional with IExCor=  402 and IRadAn=       5 diagonalized for initial guess.
 HarFok:  IExCor=  402 AccDes= 0.00D+00 IRadAn=         5 IDoV= 1 UseB2=F ITyADJ=14
 ICtDFT=  3500011 ScaDFX=  1.000000  1.000000  1.000000  1.000000
 FoFCou: FMM=F IPFlag=           0 FMFlag=      100000 FMFlg1=           0
         NFxFlg=           0 DoJE=T BraDBF=F KetDBF=T FulRan=T
         wScrn=  0.000000 ICntrl=       500 IOpCl=  0 I1Cent=   200000004 NGrid=           0
         NMat0=    1 NMatS0=      1 NMatT0=    0 NMatD0=    1 NMtDS0=    0 NMtDT0=    0
 Petite list used in FoFCou.
 Requested convergence on RMS density matrix=1.00D-08 within 128 cycles.
 Requested convergence on MAX density matrix=1.00D-06.
 Requested convergence on             energy=1.00D-06.
 No special actions if energy rises.
 Integral accuracy reduced to 1.0D-05 until final iterations.
 Initial convergence to 1.0D-05 achieved.  Increase integral accuracy.
 SCF Done:  E(RB3LYP) =  -467.146684796     A.U. after   13 cycles
            NFock= 13  Conv=0.51D-08     -V/T= 2.0099
 DoSCS=F DFT=T ScalE2(SS,OS)=  1.000000  1.000000
 Range of M.O.s used for correlation:     1   201
 NBasis=   201 NAE=    43 NBE=    43 NFC=     0 NFV=     0
 NROrb=    201 NOA=    43 NOB=    43 NVA=   158 NVB=   158
 Symmetrizing basis deriv contribution to polar:
 IMax=3 JMax=2 DiffMx= 0.00D+00
 G2DrvN: will do    30 centers at a time, making    1 passes.
 Calling FoFCou, ICntrl=  3107 FMM=F I1Cent=   0 AccDes= 0.00D+00.
 End of G2Drv F.D. properties file   721 does not exist.
 End of G2Drv F.D. properties file   722 does not exist.
 End of G2Drv F.D. properties file   788 does not exist.
          IDoAtm=11111111111111111111111111111
          Differentiating once with respect to electric field.
                with respect to dipole field.
          Differentiating once with respect to nuclear coordinates.
 Keep R1 ints in memory in canonical form, NReq=214321603.
          There are    90 degrees of freedom in the 1st order CPHF.  IDoFFX=6 NUNeed=     3.
     87 vectors produced by pass  0 Test12= 7.55D-15 1.11D-09 XBig12= 7.38D+01 2.27D+00.
 AX will form    87 AO Fock derivatives at one time.
     87 vectors produced by pass  1 Test12= 7.55D-15 1.11D-09 XBig12= 9.60D+00 6.17D-01.
     87 vectors produced by pass  2 Test12= 7.55D-15 1.11D-09 XBig12= 5.04D-02 2.32D-02.
     87 vectors produced by pass  3 Test12= 7.55D-15 1.11D-09 XBig12= 1.25D-04 1.41D-03.
     87 vectors produced by pass  4 Test12= 7.55D-15 1.11D-09 XBig12= 1.08D-07 3.35D-05.
     37 vectors produced by pass  5 Test12= 7.55D-15 1.11D-09 XBig12= 5.55D-11 7.68D-07.
      3 vectors produced by pass  6 Test12= 7.55D-15 1.11D-09 XBig12= 2.76D-14 1.29D-08.
 InvSVY:  IOpt=1 It=  1 EMax= 3.55D-15
 Solved reduced A of dimension   475 with    90 vectors.
 Isotropic polarizability for W=    0.000000      105.04 Bohr**3.
 End of Minotr F.D. properties file   721 does not exist.
 End of Minotr F.D. properties file   722 does not exist.
 End of Minotr F.D. properties file   788 does not exist.

 **********************************************************************

            Population analysis using the SCF density.

 **********************************************************************

 Orbital symmetries:
       Occupied  (A) (A) (A) (A) (A) (A) (A) (A) (A) (A) (A) (A)
                 (A) (A) (A) (A) (A) (A) (A) (A) (A) (A) (A) (A)
                 (A) (A) (A) (A) (A) (A) (A) (A) (A) (A) (A) (A)
                 (A) (A) (A) (A) (A) (A) (A)
       Virtual   (A) (A) (A) (A) (A) (A) (A) (A) (A) (A) (A) (A)
                 (A) (A) (A) (A) (A) (A) (A) (A) (A) (A) (A) (A)
                 (A) (A) (A) (A) (A) (A) (A) (A) (A) (A) (A) (A)
                 (A) (A) (A) (A) (A) (A) (A) (A) (A) (A) (A) (A)
                 (A) (A) (A) (A) (A) (A) (A) (A) (A) (A) (A) (A)
                 (A) (A) (A) (A) (A) (A) (A) (A) (A) (A) (A) (A)
                 (A) (A) (A) (A) (A) (A) (A) (A) (A) (A) (A) (A)
                 (A) (A) (A) (A) (A) (A) (A) (A) (A) (A) (A) (A)
                 (A) (A) (A) (A) (A) (A) (A) (A) (A) (A) (A) (A)
                 (A) (A) (A) (A) (A) (A) (A) (A) (A) (A) (A) (A)
                 (A) (A) (A) (A) (A) (A) (A) (A) (A) (A) (A) (A)
                 (A) (A) (A) (A) (A) (A) (A) (A) (A) (A) (A) (A)
                 (A) (A) (A) (A) (A) (A) (A) (A) (A) (A) (A) (A)
                 (A) (A)
 The electronic state is 1-A.
 Alpha  occ. eigenvalues --  -19.13286 -10.26595 -10.19407 -10.19333 -10.19091
 Alpha  occ. eigenvalues --  -10.18987 -10.18933 -10.17741 -10.17719 -10.17469
 Alpha  occ. eigenvalues --  -10.17127  -1.03144  -0.83428  -0.79607  -0.76156
 Alpha  occ. eigenvalues --   -0.73075  -0.69930  -0.64136  -0.60014  -0.58724
 Alpha  occ. eigenvalues --   -0.57192  -0.52505  -0.47270  -0.46727  -0.46007
 Alpha  occ. eigenvalues --   -0.44172  -0.43612  -0.42680  -0.41291  -0.40210
 Alpha  occ. eigenvalues --   -0.39603  -0.39281  -0.37150  -0.35931  -0.35230
 Alpha  occ. eigenvalues --   -0.33911  -0.33558  -0.33333  -0.32525  -0.32203
 Alpha  occ. eigenvalues --   -0.31303  -0.30874  -0.23363
 Alpha virt. eigenvalues --   -0.01117   0.09042   0.09542   0.10244   0.11613
 Alpha virt. eigenvalues --    0.12478   0.13187   0.14596   0.15052   0.15690
 Alpha virt. eigenvalues --    0.16390   0.16674   0.17323   0.17728   0.18944
 Alpha virt. eigenvalues --    0.19019   0.19242   0.19922   0.20223   0.21284
 Alpha virt. eigenvalues --    0.22543   0.24133   0.25130   0.25581   0.26295
 Alpha virt. eigenvalues --    0.27101   0.29118   0.29653   0.35051   0.37646
 Alpha virt. eigenvalues --    0.49597   0.50653   0.51525   0.52396   0.53809
 Alpha virt. eigenvalues --    0.54699   0.55424   0.56288   0.57412   0.60058
 Alpha virt. eigenvalues --    0.60147   0.63046   0.63985   0.65177   0.66515
 Alpha virt. eigenvalues --    0.67394   0.67481   0.70793   0.71183   0.73078
 Alpha virt. eigenvalues --    0.76384   0.76610   0.79261   0.80993   0.81660
 Alpha virt. eigenvalues --    0.84033   0.84285   0.85543   0.85749   0.86775
 Alpha virt. eigenvalues --    0.87477   0.88108   0.89529   0.90213   0.90509
 Alpha virt. eigenvalues --    0.91319   0.92768   0.94006   0.94032   0.94524
 Alpha virt. eigenvalues --    0.95531   0.95627   0.96868   0.98601   1.00708
 Alpha virt. eigenvalues --    1.01970   1.03913   1.07264   1.11239   1.13067
 Alpha virt. eigenvalues --    1.15928   1.18028   1.21116   1.23934   1.35687
 Alpha virt. eigenvalues --    1.37276   1.40335   1.44483   1.46498   1.47863
 Alpha virt. eigenvalues --    1.51588   1.55844   1.57568   1.65201   1.66427
 Alpha virt. eigenvalues --    1.66540   1.71085   1.71728   1.75028   1.76012
 Alpha virt. eigenvalues --    1.80551   1.81780   1.83567   1.85567   1.87812
 Alpha virt. eigenvalues --    1.89787   1.90743   1.93573   1.94558   1.95589
 Alpha virt. eigenvalues --    1.96961   1.97713   1.99162   2.00532   2.01141
 Alpha virt. eigenvalues --    2.03182   2.06199   2.07692   2.08045   2.13615
 Alpha virt. eigenvalues --    2.15599   2.20683   2.23685   2.26598   2.27642
 Alpha virt. eigenvalues --    2.31767   2.33365   2.35299   2.36896   2.38078
 Alpha virt. eigenvalues --    2.40028   2.42091   2.42485   2.46552   2.53070
 Alpha virt. eigenvalues --    2.57306   2.58679   2.60669   2.63311   2.66754
 Alpha virt. eigenvalues --    2.69738   2.73633   2.76658   2.77879   2.88511
 Alpha virt. eigenvalues --    2.98865   3.04586   4.00789   4.11043   4.16281
 Alpha virt. eigenvalues --    4.24895   4.25998   4.33853   4.41986   4.52449
 Alpha virt. eigenvalues --    4.53077   4.57196   4.65685
          Condensed to atoms (all electrons):
               1          2          3          4          5          6
     1  O    8.007958   0.582785  -0.093187   0.004980   0.000659   0.000001
     2  C    0.582785   4.524997   0.286920  -0.028021   0.004169  -0.000074
     3  C   -0.093187   0.286920   5.281781   0.348288  -0.031585   0.003185
     4  C    0.004980  -0.028021   0.348288   5.015827   0.357384  -0.037313
     5  C    0.000659   0.004169  -0.031585   0.357384   5.017100   0.388182
     6  C    0.000001  -0.000074   0.003185  -0.037313   0.388182   4.950134
     7  C    0.000000   0.000001  -0.000110   0.003403  -0.042595   0.370900
     8  C    0.000519  -0.023500   0.350168  -0.038691  -0.004241   0.000127
     9  C    0.000155  -0.013040  -0.036622   0.003724   0.000139  -0.000001
    10  C    0.000946  -0.028455  -0.002665  -0.000030  -0.000011   0.000000
    11  C   -0.074403   0.347314  -0.132071   0.005668  -0.000053   0.000001
    12  H    0.001298  -0.036345   0.351693  -0.041336  -0.004649   0.000013
    13  H    0.008558  -0.003045  -0.039104   0.373399  -0.039881  -0.003653
    14  H    0.002545  -0.003968  -0.037179   0.372347  -0.039807  -0.003183
    15  H   -0.000009  -0.000044  -0.004886  -0.034464   0.367375  -0.039971
    16  H    0.000001   0.000014  -0.003843  -0.040151   0.370448  -0.040036
    17  H   -0.000001  -0.000000   0.000099  -0.002953  -0.040652   0.377410
    18  H   -0.000003  -0.000005  -0.000002  -0.002887  -0.040595   0.377359
    19  H   -0.000000   0.000000   0.000001   0.000048  -0.004593  -0.034612
    20  H    0.000000  -0.000000   0.000001  -0.000126   0.004112  -0.027141
    21  H   -0.000000  -0.000000   0.000001   0.000037  -0.004669  -0.034517
    22  H   -0.000068   0.003144  -0.031886  -0.003941   0.001447  -0.000103
    23  H    0.000463  -0.004603  -0.043535  -0.003355  -0.000272  -0.000024
    24  H    0.000002   0.000321   0.004166  -0.000129  -0.000001  -0.000000
    25  H   -0.000008  -0.001861  -0.004174   0.000052  -0.000017  -0.000000
    26  H   -0.000063   0.003453  -0.000262   0.000009   0.000000  -0.000000
    27  H    0.000489  -0.003118   0.000196  -0.000042  -0.000001  -0.000000
    28  H    0.001385  -0.030485   0.003260  -0.000079  -0.000003  -0.000000
    29  H    0.005425  -0.023886   0.006584  -0.000149   0.000001  -0.000000
               7          8          9         10         11         12
     1  O    0.000000   0.000519   0.000155   0.000946  -0.074403   0.001298
     2  C    0.000001  -0.023500  -0.013040  -0.028455   0.347314  -0.036345
     3  C   -0.000110   0.350168  -0.036622  -0.002665  -0.132071   0.351693
     4  C    0.003403  -0.038691   0.003724  -0.000030   0.005668  -0.041336
     5  C   -0.042595  -0.004241   0.000139  -0.000011  -0.000053  -0.004649
     6  C    0.370900   0.000127  -0.000001   0.000000   0.000001   0.000013
     7  C    5.066854   0.000001  -0.000000  -0.000000  -0.000000  -0.000001
     8  C    0.000001   5.051316   0.368978  -0.044912  -0.006210  -0.045489
     9  C   -0.000000   0.368978   5.010160   0.378531  -0.045836  -0.002025
    10  C   -0.000000  -0.044912   0.378531   5.015720   0.342022  -0.001655
    11  C   -0.000000  -0.006210  -0.045836   0.342022   5.279213   0.002045
    12  H   -0.000001  -0.045489  -0.002025  -0.001655   0.002045   0.623141
    13  H    0.000051   0.004775  -0.000151  -0.000014   0.000509  -0.002070
    14  H    0.000016  -0.007856   0.000106  -0.000041   0.000094   0.005973
    15  H   -0.002727   0.001590  -0.000080  -0.000000  -0.000001  -0.000213
    16  H   -0.002961  -0.000452  -0.000023   0.000001  -0.000002   0.005969
    17  H   -0.038645  -0.000013  -0.000000   0.000000  -0.000000   0.000009
    18  H   -0.038365  -0.000001   0.000000  -0.000000  -0.000000   0.000006
    19  H    0.377148   0.000000  -0.000000   0.000000   0.000000  -0.000001
    20  H    0.372195   0.000000   0.000000   0.000000   0.000000   0.000000
    21  H    0.376793  -0.000002   0.000000  -0.000000  -0.000000   0.000000
    22  H    0.000004   0.368860  -0.030061   0.004747  -0.000244  -0.006318
    23  H    0.000000   0.370523  -0.038980  -0.005238   0.000174   0.006484
    24  H    0.000000  -0.030664   0.367096  -0.032018   0.004674  -0.000022
    25  H   -0.000000  -0.041504   0.373490  -0.042398  -0.003265   0.005169
    26  H   -0.000000   0.004848  -0.030654   0.369199  -0.029194  -0.000028
    27  H    0.000000  -0.004922  -0.039551   0.376190  -0.042770   0.000116
    28  H    0.000000  -0.001174  -0.003317  -0.036192   0.349457   0.001719
    29  H    0.000000  -0.000133   0.004200  -0.025309   0.343232  -0.000131
              13         14         15         16         17         18
     1  O    0.008558   0.002545  -0.000009   0.000001  -0.000001  -0.000003
     2  C   -0.003045  -0.003968  -0.000044   0.000014  -0.000000  -0.000005
     3  C   -0.039104  -0.037179  -0.004886  -0.003843   0.000099  -0.000002
     4  C    0.373399   0.372347  -0.034464  -0.040151  -0.002953  -0.002887
     5  C   -0.039881  -0.039807   0.367375   0.370448  -0.040652  -0.040595
     6  C   -0.003653  -0.003183  -0.039971  -0.040036   0.377410   0.377359
     7  C    0.000051   0.000016  -0.002727  -0.002961  -0.038645  -0.038365
     8  C    0.004775  -0.007856   0.001590  -0.000452  -0.000013  -0.000001
     9  C   -0.000151   0.000106  -0.000080  -0.000023  -0.000000   0.000000
    10  C   -0.000014  -0.000041  -0.000000   0.000001   0.000000  -0.000000
    11  C    0.000509   0.000094  -0.000001  -0.000002  -0.000000  -0.000000
    12  H   -0.002070   0.005973  -0.000213   0.005969   0.000009   0.000006
    13  H    0.579419  -0.034803   0.005349  -0.004665  -0.000463   0.005180
    14  H   -0.034803   0.599096  -0.005218   0.005742   0.004779  -0.000449
    15  H    0.005349  -0.005218   0.616818  -0.041751  -0.005523   0.005968
    16  H   -0.004665   0.005742  -0.041751   0.622492   0.005984  -0.005533
    17  H   -0.000463   0.004779  -0.005523   0.005984   0.608913  -0.039471
    18  H    0.005180  -0.000449   0.005968  -0.005533  -0.039471   0.606882
    19  H    0.000002   0.000005  -0.000409   0.004900   0.005238  -0.004435
    20  H    0.000001   0.000002  -0.000049  -0.000040  -0.002726  -0.002691
    21  H    0.000007   0.000003   0.005086  -0.000392  -0.004484   0.005223
    22  H   -0.000066  -0.000209   0.004300   0.000385   0.000013   0.000001
    23  H    0.000017   0.005917   0.000260   0.000054  -0.000001   0.000001
    24  H    0.000002  -0.000001   0.000006   0.000000   0.000000   0.000000
    25  H    0.000002   0.000007   0.000011  -0.000003  -0.000000   0.000000
    26  H    0.000000   0.000000  -0.000000  -0.000000  -0.000000   0.000000
    27  H   -0.000001  -0.000006   0.000000  -0.000000  -0.000000   0.000000
    28  H   -0.000033  -0.000003   0.000001  -0.000002  -0.000000   0.000000
    29  H   -0.000013   0.000003   0.000000   0.000000   0.000000  -0.000000
              19         20         21         22         23         24
     1  O   -0.000000   0.000000  -0.000000  -0.000068   0.000463   0.000002
     2  C    0.000000  -0.000000  -0.000000   0.003144  -0.004603   0.000321
     3  C    0.000001   0.000001   0.000001  -0.031886  -0.043535   0.004166
     4  C    0.000048  -0.000126   0.000037  -0.003941  -0.003355  -0.000129
     5  C   -0.004593   0.004112  -0.004669   0.001447  -0.000272  -0.000001
     6  C   -0.034612  -0.027141  -0.034517  -0.000103  -0.000024  -0.000000
     7  C    0.377148   0.372195   0.376793   0.000004   0.000000   0.000000
     8  C    0.000000   0.000000  -0.000002   0.368860   0.370523  -0.030664
     9  C   -0.000000   0.000000   0.000000  -0.030061  -0.038980   0.367096
    10  C    0.000000   0.000000  -0.000000   0.004747  -0.005238  -0.032018
    11  C    0.000000   0.000000  -0.000000  -0.000244   0.000174   0.004674
    12  H   -0.000001   0.000000   0.000000  -0.006318   0.006484  -0.000022
    13  H    0.000002   0.000001   0.000007  -0.000066   0.000017   0.000002
    14  H    0.000005   0.000002   0.000003  -0.000209   0.005917  -0.000001
    15  H   -0.000409  -0.000049   0.005086   0.004300   0.000260   0.000006
    16  H    0.004900  -0.000040  -0.000392   0.000385   0.000054   0.000000
    17  H    0.005238  -0.002726  -0.004484   0.000013  -0.000001   0.000000
    18  H   -0.004435  -0.002691   0.005223   0.000001   0.000001   0.000000
    19  H    0.580582  -0.031292  -0.033081   0.000001  -0.000000   0.000000
    20  H   -0.031292   0.576254  -0.031267  -0.000000  -0.000000  -0.000000
    21  H   -0.033081  -0.031267   0.581355  -0.000003   0.000000  -0.000000
    22  H    0.000001  -0.000000  -0.000003   0.587360  -0.036810  -0.002344
    23  H   -0.000000  -0.000000   0.000000  -0.036810   0.602983  -0.003923
    24  H    0.000000  -0.000000  -0.000000  -0.002344  -0.003923   0.595757
    25  H    0.000000  -0.000000   0.000000  -0.004003   0.005789  -0.036076
    26  H   -0.000000   0.000000   0.000000  -0.000180  -0.000025  -0.002140
    27  H    0.000000  -0.000000   0.000000  -0.000006   0.004664  -0.004190
    28  H    0.000000  -0.000000   0.000000  -0.000014   0.000112  -0.000035
    29  H    0.000000  -0.000000   0.000000   0.000017  -0.000040  -0.000145
              25         26         27         28         29
     1  O   -0.000008  -0.000063   0.000489   0.001385   0.005425
     2  C   -0.001861   0.003453  -0.003118  -0.030485  -0.023886
     3  C   -0.004174  -0.000262   0.000196   0.003260   0.006584
     4  C    0.000052   0.000009  -0.000042  -0.000079  -0.000149
     5  C   -0.000017   0.000000  -0.000001  -0.000003   0.000001
     6  C   -0.000000  -0.000000  -0.000000  -0.000000  -0.000000
     7  C   -0.000000  -0.000000   0.000000   0.000000   0.000000
     8  C   -0.041504   0.004848  -0.004922  -0.001174  -0.000133
     9  C    0.373490  -0.030654  -0.039551  -0.003317   0.004200
    10  C   -0.042398   0.369199   0.376190  -0.036192  -0.025309
    11  C   -0.003265  -0.029194  -0.042770   0.349457   0.343232
    12  H    0.005169  -0.000028   0.000116   0.001719  -0.000131
    13  H    0.000002   0.000000  -0.000001  -0.000033  -0.000013
    14  H    0.000007   0.000000  -0.000006  -0.000003   0.000003
    15  H    0.000011  -0.000000   0.000000   0.000001   0.000000
    16  H   -0.000003  -0.000000  -0.000000  -0.000002   0.000000
    17  H   -0.000000  -0.000000  -0.000000  -0.000000   0.000000
    18  H    0.000000   0.000000   0.000000   0.000000  -0.000000
    19  H    0.000000  -0.000000   0.000000   0.000000   0.000000
    20  H   -0.000000   0.000000  -0.000000  -0.000000  -0.000000
    21  H    0.000000   0.000000   0.000000   0.000000   0.000000
    22  H   -0.004003  -0.000180  -0.000006  -0.000014   0.000017
    23  H    0.005789  -0.000025   0.004664   0.000112  -0.000040
    24  H   -0.036076  -0.002140  -0.004190  -0.000035  -0.000145
    25  H    0.610061  -0.004226   0.005832   0.004706  -0.000032
    26  H   -0.004226   0.592278  -0.036719  -0.006327  -0.002494
    27  H    0.005832  -0.036719   0.596554   0.005802  -0.003321
    28  H    0.004706  -0.006327   0.005802   0.587542  -0.027248
    29  H   -0.000032  -0.002494  -0.003321  -0.027248   0.561681
 Mulliken charges:
               1
     1  O   -0.450427
     2  C    0.447330
     3  C   -0.175231
     4  C   -0.251499
     5  C   -0.257389
     6  C   -0.246684
     7  C   -0.441962
     8  C   -0.271939
     9  C   -0.266239
    10  C   -0.268417
    11  C   -0.340354
    12  H    0.136648
    13  H    0.150690
    14  H    0.136089
    15  H    0.128580
    16  H    0.123862
    17  H    0.132490
    18  H    0.133817
    19  H    0.140499
    20  H    0.142765
    21  H    0.139909
    22  H    0.145977
    23  H    0.139365
    24  H    0.139664
    25  H    0.132449
    26  H    0.142524
    27  H    0.144802
    28  H    0.150927
    29  H    0.161755
 Sum of Mulliken charges =  -0.00000
 Mulliken charges with hydrogens summed into heavy atoms:
               1
     1  O   -0.450427
     2  C    0.447330
     3  C   -0.038583
     4  C    0.035280
     5  C   -0.004947
     6  C    0.019623
     7  C   -0.018789
     8  C    0.013403
     9  C    0.005874
    10  C    0.018909
    11  C   -0.027672
 APT charges:
               1
     1  O   -0.637755
     2  C    0.704636
     3  C   -0.046871
     4  C    0.093562
     5  C    0.103444
     6  C    0.143786
     7  C    0.087112
     8  C    0.108845
     9  C    0.117293
    10  C    0.143641
    11  C   -0.065847
    12  H   -0.038470
    13  H   -0.022187
    14  H   -0.038526
    15  H   -0.047021
    16  H   -0.056046
    17  H   -0.055852
    18  H   -0.056419
    19  H   -0.030817
    20  H   -0.046019
    21  H   -0.030652
    22  H   -0.040365
    23  H   -0.039384
    24  H   -0.057701
    25  H   -0.049920
    26  H   -0.055257
    27  H   -0.041376
    28  H   -0.014206
    29  H   -0.031628
 Sum of APT charges =   0.00000
 APT charges with hydrogens summed into heavy atoms:
               1
     1  O   -0.637755
     2  C    0.704636
     3  C   -0.085341
     4  C    0.032849
     5  C    0.000377
     6  C    0.031515
     7  C   -0.020376
     8  C    0.029096
     9  C    0.009672
    10  C    0.047008
    11  C   -0.111681
 Electronic spatial extent (au):  <R**2>=           2762.2911
 Charge=             -0.0000 electrons
 Dipole moment (field-independent basis, Debye):
    X=             -0.4527    Y=             -2.6529    Z=              0.8072  Tot=              2.8097
 Quadrupole moment (field-independent basis, Debye-Ang):
   XX=            -66.6633   YY=            -76.7270   ZZ=            -68.1437
   XY=              3.7883   XZ=             -1.3142   YZ=              2.0594
 Traceless Quadrupole moment (field-independent basis, Debye-Ang):
   XX=              3.8480   YY=             -6.2157   ZZ=              2.3677
   XY=              3.7883   XZ=             -1.3142   YZ=              2.0594
 Octapole moment (field-independent basis, Debye-Ang**2):
  XXX=            -21.5895  YYY=            -11.7862  ZZZ=             -0.5202  XYY=              6.3019
  XXY=              2.2206  XXZ=              0.6135  XZZ=             -3.6255  YZZ=              2.7289
  YYZ=              3.0638  XYZ=             -1.7212
 Hexadecapole moment (field-independent basis, Debye-Ang**3):
 XXXX=          -2961.2136 YYYY=           -638.1867 ZZZZ=           -164.7067 XXXY=              7.2621
 XXXZ=            -11.9352 YYYX=             16.2515 YYYZ=             10.4700 ZZZX=              1.4966
 ZZZY=             -3.4309 XXYY=           -605.6781 XXZZ=           -520.6115 YYZZ=           -128.5844
 XXYZ=              4.1653 YYXZ=             -3.8070 ZZXY=             -2.7823
 N-N= 6.296443680979D+02 E-N=-2.342195338265D+03  KE= 4.625809744391D+02
  Exact polarizability: 125.106   1.759 102.568  -1.246  -1.694  87.442
 Approx polarizability: 140.327   3.075 153.411  -1.624  -6.846 138.135
 Calling FoFJK, ICntrl=    100127 FMM=F ISym2X=0 I1Cent= 0 IOpClX= 0 NMat=1 NMatS=1 NMatT=0.
 Full mass-weighted force constant matrix:
 Low frequencies ---  -13.3979   -3.5653   -2.2464   -0.0009   -0.0007   -0.0006
 Low frequencies ---   44.3884   61.4686   79.0897
 Diagonal vibrational polarizability:
       10.6018186       3.4125374      10.2171235
 Harmonic frequencies (cm**-1), IR intensities (KM/Mole), Raman scattering
 activities (A**4/AMU), depolarization ratios for plane and unpolarized
 incident light, reduced masses (AMU), force constants (mDyne/A),
 and normal coordinates:
                      1                      2                      3
                      A                      A                      A
 Frequencies --     44.3642                61.4641                79.0745
 Red. masses --      2.0507                 2.2601                 3.1898
 Frc consts  --      0.0024                 0.0050                 0.0118
 IR Inten    --      0.0834                 0.5716                 1.0064
  Atom  AN      X      Y      Z        X      Y      Z        X      Y      Z
     1   8     0.01   0.00   0.04    -0.03  -0.03  -0.12     0.13   0.02   0.13
     2   6     0.02  -0.01   0.02     0.01  -0.00  -0.02     0.04  -0.01   0.01
     3   6     0.01  -0.03  -0.07     0.01  -0.00  -0.06    -0.01  -0.07  -0.01
     4   6     0.00  -0.05  -0.11     0.01   0.00  -0.06    -0.01  -0.12  -0.08
     5   6     0.01   0.02   0.03    -0.01  -0.05  -0.11     0.01  -0.11  -0.13
     6   6     0.01  -0.05  -0.08     0.02   0.06   0.14    -0.02   0.07   0.02
     7   6     0.02   0.08   0.15    -0.01  -0.01   0.07     0.05   0.18   0.03
     8   6    -0.05   0.00  -0.11    -0.03   0.02  -0.09    -0.06  -0.10   0.08
     9   6    -0.03   0.00  -0.04     0.01   0.01   0.00    -0.10   0.00   0.07
    10   6    -0.03   0.02   0.06    -0.02   0.01   0.13    -0.04   0.05  -0.05
    11   6     0.03  -0.00   0.09     0.04   0.01   0.11    -0.01   0.06  -0.09
    12   1     0.05  -0.07  -0.08     0.03  -0.04  -0.07     0.03  -0.01   0.00
    13   1    -0.03   0.00  -0.22     0.03  -0.03   0.01     0.01  -0.12  -0.10
    14   1     0.03  -0.18  -0.12     0.00   0.07  -0.05    -0.06  -0.13  -0.08
    15   1     0.01  -0.06   0.20     0.05   0.03  -0.30     0.10  -0.05  -0.27
    16   1     0.01   0.21   0.05    -0.10  -0.25  -0.14    -0.03  -0.25  -0.15
    17   1     0.03  -0.30  -0.12     0.12   0.29   0.17     0.04   0.18   0.04
    18   1    -0.03   0.06  -0.32    -0.03  -0.04   0.36    -0.17   0.04   0.13
    19   1    -0.00   0.35   0.19    -0.12  -0.26   0.04    -0.02   0.08   0.02
    20   1     0.01   0.02   0.06     0.02   0.07   0.28     0.02   0.33   0.16
    21   1     0.05  -0.04   0.40     0.06   0.09  -0.16     0.22   0.22  -0.07
    22   1    -0.04  -0.01  -0.19    -0.01   0.02  -0.17    -0.10  -0.13   0.16
    23   1    -0.11   0.06  -0.10    -0.11   0.07  -0.08    -0.02  -0.19   0.07
    24   1    -0.07   0.03  -0.07    -0.04   0.03  -0.01    -0.13  -0.02   0.13
    25   1     0.04  -0.04  -0.06     0.10  -0.03  -0.01    -0.16   0.09   0.09
    26   1    -0.01   0.02   0.11     0.02  -0.00   0.23    -0.08   0.12  -0.10
    27   1    -0.09   0.06   0.08    -0.13   0.03   0.15     0.05   0.00  -0.07
    28   1     0.10  -0.04   0.08     0.14  -0.00   0.11    -0.09   0.10  -0.08
    29   1     0.03   0.01   0.16     0.02   0.00   0.18     0.05   0.09  -0.16
                      4                      5                      6
                      A                      A                      A
 Frequencies --     95.9529               130.0134               159.6709
 Red. masses --      3.8060                 2.2781                 2.0853
 Frc consts  --      0.0206                 0.0227                 0.0313
 IR Inten    --      1.2147                 0.3232                 0.3507
  Atom  AN      X      Y      Z        X      Y      Z        X      Y      Z
     1   8    -0.05   0.13   0.20     0.05   0.03   0.06     0.06   0.02   0.01
     2   6    -0.03   0.05  -0.02     0.01  -0.00  -0.04     0.00   0.01  -0.04
     3   6     0.01   0.08  -0.09    -0.01  -0.03  -0.08    -0.02  -0.01  -0.01
     4   6    -0.01   0.08  -0.16     0.00  -0.06  -0.08     0.01   0.01   0.14
     5   6    -0.04   0.04  -0.13     0.02   0.08   0.18    -0.00  -0.08   0.01
     6   6     0.03  -0.03  -0.00     0.01   0.06   0.12    -0.03  -0.04  -0.03
     7   6    -0.09  -0.14   0.12     0.02  -0.03  -0.12     0.04   0.06  -0.01
     8   6     0.05   0.01   0.01    -0.05  -0.02  -0.07    -0.03   0.06  -0.12
     9   6     0.11  -0.03   0.12    -0.02  -0.02   0.03     0.04  -0.01   0.04
    10   6     0.05  -0.12   0.02    -0.03  -0.03   0.05    -0.04  -0.08   0.10
    11   6    -0.03  -0.04  -0.11     0.00   0.02  -0.05    -0.03   0.04  -0.11
    12   1     0.07   0.13  -0.08    -0.00  -0.04  -0.08    -0.11  -0.09  -0.02
    13   1     0.01   0.08  -0.18    -0.08   0.03  -0.27     0.04  -0.07   0.33
    14   1    -0.03   0.04  -0.16     0.09  -0.28  -0.11     0.05   0.22   0.17
    15   1    -0.05   0.06  -0.17     0.09  -0.02   0.37    -0.05  -0.03  -0.09
    16   1    -0.12  -0.00  -0.14    -0.03   0.30   0.21     0.05  -0.18  -0.01
    17   1     0.15  -0.02  -0.00    -0.10   0.18   0.13    -0.05  -0.09  -0.03
    18   1     0.06  -0.05   0.02     0.09   0.01   0.21    -0.07  -0.02  -0.07
    19   1    -0.23  -0.17   0.12     0.10  -0.23  -0.15     0.11   0.17   0.01
    20   1    -0.01  -0.22   0.24     0.00   0.00  -0.11    -0.01   0.08  -0.11
    21   1    -0.12  -0.13   0.09    -0.05   0.05  -0.29     0.07   0.01   0.10
    22   1     0.11   0.07   0.02    -0.03  -0.02  -0.14     0.01   0.06  -0.29
    23   1    -0.01  -0.06  -0.00    -0.13  -0.01  -0.07    -0.18   0.17  -0.10
    24   1     0.15  -0.11   0.23    -0.05  -0.04   0.08     0.03  -0.04   0.10
    25   1     0.17   0.09   0.14     0.05   0.03   0.04     0.18   0.03   0.04
    26   1     0.07  -0.14   0.06    -0.01  -0.01   0.13     0.04  -0.09   0.28
    27   1     0.03  -0.24   0.01    -0.10  -0.09   0.05    -0.20  -0.21   0.10
    28   1    -0.08   0.08  -0.09    -0.01   0.10  -0.04    -0.10   0.23  -0.09
    29   1    -0.06  -0.09  -0.21     0.01   0.01  -0.10    -0.02   0.01  -0.28
                      7                      8                      9
                      A                      A                      A
 Frequencies --    238.6567               247.7686               257.8504
 Red. masses --      3.0887                 1.2398                 3.5685
 Frc consts  --      0.1036                 0.0448                 0.1398
 IR Inten    --      3.4731                 0.6027                 0.0883
  Atom  AN      X      Y      Z        X      Y      Z        X      Y      Z
     1   8     0.20  -0.10  -0.00     0.05  -0.02  -0.01    -0.05  -0.07   0.01
     2   6     0.07  -0.07   0.02     0.02  -0.01   0.01    -0.04  -0.07   0.03
     3   6     0.02  -0.09   0.02     0.00  -0.01   0.03     0.01  -0.04   0.04
     4   6    -0.06   0.07   0.03    -0.02   0.01   0.02     0.03   0.06   0.04
     5   6    -0.03   0.14  -0.05    -0.02   0.03   0.03     0.16   0.15  -0.06
     6   6    -0.04   0.14  -0.02    -0.04  -0.02  -0.08     0.24   0.06  -0.07
     7   6    -0.20  -0.04   0.02    -0.06   0.01   0.02     0.12  -0.09   0.05
     8   6     0.01  -0.07  -0.03     0.01   0.01  -0.01    -0.10  -0.00  -0.00
     9   6    -0.01  -0.02  -0.00     0.02  -0.00  -0.01    -0.13   0.02   0.02
    10   6     0.02   0.02   0.03     0.02  -0.00   0.01    -0.15  -0.01  -0.01
    11   6     0.05   0.04  -0.01     0.01   0.01  -0.01    -0.10  -0.01  -0.05
    12   1     0.03  -0.13   0.01    -0.00  -0.03   0.02     0.03  -0.08   0.03
    13   1    -0.15   0.04   0.12    -0.03   0.01   0.02    -0.05   0.05   0.11
    14   1    -0.10   0.17   0.04    -0.03   0.00   0.02    -0.02   0.15   0.05
    15   1    -0.00   0.15  -0.10    -0.05  -0.01   0.13     0.15   0.14  -0.05
    16   1    -0.02   0.07  -0.06     0.04   0.13   0.04     0.22   0.13  -0.06
    17   1    -0.00   0.16  -0.01    -0.04  -0.12  -0.09     0.32   0.01  -0.07
    18   1     0.02   0.11   0.03    -0.03   0.02  -0.17     0.33   0.06  -0.09
    19   1    -0.12   0.18   0.05    -0.42  -0.38  -0.02    -0.06  -0.18   0.04
    20   1    -0.10  -0.38  -0.18    -0.01   0.25   0.52     0.22  -0.15   0.23
    21   1    -0.52  -0.14   0.26     0.24   0.17  -0.36     0.10  -0.05  -0.04
    22   1    -0.01  -0.09  -0.05     0.02   0.00  -0.03    -0.14  -0.06  -0.08
    23   1    -0.00  -0.04  -0.02     0.01   0.04  -0.00    -0.15   0.05   0.01
    24   1    -0.06  -0.00  -0.01     0.01   0.01  -0.02    -0.11  -0.01   0.06
    25   1     0.01  -0.03  -0.01     0.03  -0.02  -0.01    -0.13   0.07   0.04
    26   1     0.02   0.04   0.06     0.02  -0.00   0.03    -0.14   0.00   0.03
    27   1    -0.01   0.01   0.03    -0.00  -0.01   0.01    -0.18  -0.05  -0.02
    28   1     0.01   0.09  -0.00    -0.01   0.03  -0.00    -0.19   0.04  -0.05
    29   1     0.09   0.05  -0.07     0.02   0.01  -0.04    -0.01   0.04  -0.13
                     10                     11                     12
                      A                      A                      A
 Frequencies --    305.9916               328.5741               409.9877
 Red. masses --      1.7786                 2.3118                 2.9479
 Frc consts  --      0.0981                 0.1471                 0.2919
 IR Inten    --      0.0795                 0.6635                 2.0232
  Atom  AN      X      Y      Z        X      Y      Z        X      Y      Z
     1   8    -0.02  -0.06  -0.01     0.03  -0.07  -0.04    -0.03   0.13  -0.02
     2   6    -0.00  -0.03   0.06     0.01  -0.01   0.12     0.04   0.09  -0.07
     3   6     0.01  -0.03  -0.02     0.03   0.04   0.18    -0.01   0.03   0.05
     4   6    -0.00   0.00   0.01    -0.02  -0.08  -0.09     0.06  -0.14   0.08
     5   6    -0.01  -0.01   0.01     0.00  -0.03  -0.04     0.12  -0.05   0.01
     6   6    -0.02  -0.01   0.00    -0.01   0.01   0.01     0.01   0.12  -0.07
     7   6    -0.01   0.01  -0.00    -0.02  -0.00   0.00    -0.13   0.00   0.01
     8   6    -0.04   0.03  -0.10    -0.00   0.16   0.02    -0.11   0.06   0.02
     9   6     0.03   0.07   0.14     0.05   0.02  -0.04    -0.05  -0.08   0.03
    10   6     0.07   0.04  -0.11    -0.01  -0.04  -0.00     0.01  -0.06  -0.04
    11   6    -0.01  -0.02   0.03    -0.06   0.01  -0.05     0.11  -0.08  -0.02
    12   1     0.04  -0.13  -0.04     0.14  -0.01   0.17    -0.11   0.07   0.06
    13   1    -0.01  -0.01   0.04     0.08   0.03  -0.39     0.10  -0.12   0.03
    14   1     0.02   0.03   0.01    -0.17  -0.38  -0.13     0.06  -0.18   0.07
    15   1    -0.01  -0.01   0.01     0.06  -0.04  -0.01     0.24  -0.05  -0.01
    16   1    -0.01  -0.00   0.01    -0.03  -0.00  -0.03     0.25  -0.08   0.01
    17   1    -0.02  -0.01   0.00     0.02   0.07   0.02    -0.00   0.12  -0.07
    18   1    -0.02  -0.00   0.00    -0.03  -0.01   0.07    -0.01   0.11  -0.04
    19   1    -0.00   0.00  -0.00     0.02   0.04   0.01    -0.29   0.00   0.02
    20   1    -0.01   0.02  -0.00    -0.01  -0.05  -0.05     0.00  -0.20   0.11
    21   1    -0.00   0.01  -0.01    -0.07  -0.02   0.05    -0.29  -0.00   0.03
    22   1    -0.00   0.03  -0.30     0.04   0.15  -0.21    -0.04   0.08  -0.16
    23   1    -0.27   0.12  -0.08    -0.08   0.41   0.06    -0.24   0.17   0.04
    24   1     0.01  -0.09   0.43     0.13   0.05  -0.13     0.01  -0.08  -0.00
    25   1     0.11   0.39   0.22     0.05  -0.08  -0.06    -0.08  -0.09   0.03
    26   1    -0.03   0.06  -0.35     0.02  -0.08   0.04    -0.04   0.06  -0.06
    27   1     0.35   0.06  -0.14    -0.05  -0.07  -0.00     0.07  -0.07  -0.05
    28   1    -0.06  -0.13   0.02    -0.26   0.11  -0.04     0.30  -0.22  -0.04
    29   1     0.01   0.01   0.06    -0.00   0.01  -0.25     0.00  -0.11   0.21
                     13                     14                     15
                      A                      A                      A
 Frequencies --    430.2985               449.7155               526.3841
 Red. masses --      3.0233                 2.9480                 2.4317
 Frc consts  --      0.3298                 0.3513                 0.3970
 IR Inten    --      0.9230                 2.9142                 7.4048
  Atom  AN      X      Y      Z        X      Y      Z        X      Y      Z
     1   8     0.14  -0.01  -0.01    -0.06  -0.07   0.05     0.15   0.01  -0.01
     2   6     0.07  -0.01  -0.04     0.04  -0.11  -0.03    -0.10   0.04  -0.07
     3   6     0.03   0.08   0.03     0.14   0.03  -0.04    -0.13  -0.00   0.01
     4   6    -0.02   0.15  -0.04     0.14   0.01  -0.01    -0.10  -0.08   0.03
     5   6    -0.10   0.05  -0.01     0.03  -0.06   0.04     0.02   0.00  -0.01
     6   6    -0.03  -0.09   0.05    -0.07   0.02  -0.01     0.05   0.03  -0.02
     7   6     0.07   0.00  -0.01    -0.11   0.03  -0.01     0.04  -0.02   0.01
     8   6    -0.11   0.09   0.06     0.08   0.05   0.02     0.07   0.03  -0.02
     9   6    -0.09  -0.05   0.03    -0.01   0.19  -0.01     0.08   0.10  -0.02
    10   6    -0.09  -0.09  -0.06    -0.17   0.01  -0.02    -0.06  -0.03  -0.03
    11   6     0.10  -0.15  -0.02     0.01  -0.07  -0.05    -0.10  -0.04   0.06
    12   1     0.10   0.13   0.04     0.17   0.05  -0.03    -0.24   0.01   0.02
    13   1    -0.02   0.13  -0.01     0.19  -0.01   0.02    -0.08  -0.04  -0.09
    14   1    -0.04   0.17  -0.04     0.22   0.02  -0.01    -0.15  -0.18   0.01
    15   1    -0.22   0.06  -0.02     0.03  -0.06   0.03     0.08  -0.01  -0.01
    16   1    -0.20   0.05  -0.01     0.04  -0.05   0.04     0.07  -0.01  -0.02
    17   1    -0.02  -0.08   0.05    -0.12   0.02  -0.01     0.08   0.03  -0.02
    18   1    -0.01  -0.08   0.03    -0.12   0.02  -0.00     0.07   0.02  -0.01
    19   1     0.19   0.01  -0.01    -0.15   0.03  -0.01     0.01  -0.01   0.01
    20   1    -0.02   0.15  -0.08    -0.08  -0.02   0.02     0.06  -0.05   0.02
    21   1     0.19   0.01  -0.02    -0.15   0.03  -0.01     0.01  -0.02   0.01
    22   1    -0.09   0.08  -0.09    -0.06  -0.06   0.18     0.06   0.06   0.15
    23   1    -0.22   0.17   0.08     0.23  -0.06  -0.00     0.22  -0.04  -0.03
    24   1     0.06  -0.08   0.02     0.08   0.05   0.18     0.10  -0.04   0.21
    25   1    -0.16  -0.02   0.04     0.00   0.39   0.04     0.15   0.33   0.04
    26   1    -0.10   0.01   0.00    -0.04  -0.08   0.25     0.04  -0.18   0.07
    27   1    -0.10  -0.12  -0.06    -0.44  -0.05  -0.00    -0.19  -0.02  -0.01
    28   1     0.33  -0.37  -0.05     0.07  -0.16  -0.06     0.20  -0.28   0.03
    29   1     0.03  -0.12   0.30     0.12   0.06   0.08    -0.26  -0.08   0.42
                     16                     17                     18
                      A                      A                      A
 Frequencies --    584.5564               668.8631               737.5188
 Red. masses --      3.1197                 3.0125                 1.1300
 Frc consts  --      0.6281                 0.7941                 0.3622
 IR Inten    --      1.6245                 1.7924                 3.1742
  Atom  AN      X      Y      Z        X      Y      Z        X      Y      Z
     1   8    -0.15   0.03   0.04    -0.00   0.11  -0.11    -0.00  -0.01  -0.00
     2   6     0.06  -0.05  -0.07     0.08   0.20   0.25     0.01  -0.00   0.02
     3   6    -0.02  -0.11   0.14     0.04  -0.03   0.04    -0.02   0.00  -0.02
     4   6    -0.16  -0.05   0.05     0.01   0.01  -0.01    -0.03  -0.04  -0.03
     5   6    -0.06   0.07  -0.04    -0.01   0.02  -0.01    -0.01  -0.03  -0.05
     6   6     0.02  -0.02   0.01    -0.01  -0.01   0.01     0.00  -0.01  -0.04
     7   6     0.06  -0.02   0.01    -0.00   0.00  -0.00     0.01  -0.01  -0.00
     8   6     0.03  -0.03  -0.02     0.00  -0.12  -0.08    -0.01   0.03   0.02
     9   6     0.03   0.07  -0.02    -0.03  -0.05  -0.04     0.01   0.02  -0.00
    10   6     0.03   0.07  -0.00    -0.05  -0.08  -0.07     0.01  -0.00  -0.00
    11   6     0.21   0.01  -0.12     0.01  -0.01   0.01     0.02  -0.01  -0.01
    12   1    -0.12  -0.10   0.14     0.18  -0.27  -0.02     0.02   0.01  -0.02
    13   1    -0.23   0.02  -0.11     0.01   0.00   0.01     0.04  -0.17   0.27
    14   1    -0.36  -0.19   0.03    -0.03   0.04  -0.00    -0.07   0.30   0.02
    15   1    -0.08   0.07  -0.05    -0.03   0.00   0.02    -0.00  -0.23   0.41
    16   1    -0.06   0.03  -0.04    -0.03   0.05  -0.00     0.05   0.46   0.03
    17   1     0.07  -0.00   0.01    -0.00   0.00   0.01     0.09   0.37   0.02
    18   1     0.06  -0.02   0.01    -0.01  -0.02   0.02    -0.06  -0.17   0.33
    19   1     0.10  -0.01   0.01     0.02   0.00  -0.00    -0.08   0.12   0.02
    20   1     0.02   0.04  -0.02    -0.02   0.03  -0.01     0.02   0.01   0.04
    21   1     0.11  -0.02   0.01     0.02   0.00  -0.00     0.09  -0.06   0.11
    22   1    -0.00  -0.08  -0.08    -0.04  -0.11   0.17    -0.01   0.05   0.06
    23   1     0.07   0.12   0.00     0.19  -0.25  -0.10     0.02  -0.00   0.01
    24   1    -0.04  -0.00   0.15    -0.06  -0.24   0.31     0.04   0.02  -0.02
    25   1     0.07   0.24   0.02     0.06   0.32   0.04     0.00   0.00  -0.01
    26   1     0.12   0.13   0.29     0.05  -0.05   0.24     0.02  -0.00   0.03
    27   1    -0.23  -0.04   0.01    -0.34  -0.15  -0.04    -0.01  -0.01   0.00
    28   1     0.34  -0.04  -0.12    -0.23  -0.16  -0.02    -0.02  -0.00  -0.01
    29   1     0.25   0.08   0.02    -0.03  -0.05  -0.03     0.03  -0.00  -0.03
                     19                     20                     21
                      A                      A                      A
 Frequencies --    757.3343               787.6714               840.8269
 Red. masses --      2.2360                 1.2536                 1.7117
 Frc consts  --      0.7556                 0.4582                 0.7130
 IR Inten    --      3.0918                 0.3389                 7.7887
  Atom  AN      X      Y      Z        X      Y      Z        X      Y      Z
     1   8    -0.00  -0.07   0.00     0.01  -0.02   0.01    -0.00  -0.06   0.00
     2   6     0.06  -0.03   0.10     0.01  -0.02  -0.01    -0.08   0.00   0.10
     3   6    -0.12   0.09  -0.12    -0.03   0.05  -0.00    -0.06   0.03  -0.06
     4   6    -0.07  -0.05   0.00     0.02   0.05   0.06     0.01   0.03  -0.01
     5   6    -0.00  -0.02   0.03     0.00   0.01   0.02     0.02  -0.03   0.05
     6   6     0.03   0.05   0.01    -0.00  -0.03  -0.06     0.01   0.00  -0.02
     7   6     0.03  -0.00   0.01    -0.00  -0.01  -0.02     0.01  -0.00  -0.02
     8   6    -0.09   0.12   0.01    -0.01  -0.00  -0.05    -0.02  -0.03   0.04
     9   6    -0.01   0.03  -0.03    -0.03  -0.02  -0.01     0.03  -0.00   0.03
    10   6     0.04  -0.03   0.01    -0.00  -0.01   0.02     0.09   0.06  -0.05
    11   6     0.12  -0.06  -0.00     0.03  -0.02   0.01     0.01   0.06  -0.08
    12   1    -0.15  -0.01  -0.13    -0.15  -0.01  -0.01     0.06  -0.01  -0.07
    13   1    -0.08  -0.08   0.08     0.01   0.20  -0.31    -0.01   0.05  -0.04
    14   1     0.03   0.04   0.01     0.04  -0.35   0.01     0.16  -0.02  -0.02
    15   1     0.12   0.02  -0.09    -0.18   0.08  -0.09    -0.00   0.03  -0.08
    16   1    -0.04  -0.13   0.01     0.17  -0.13   0.00     0.05  -0.15   0.03
    17   1     0.00  -0.21  -0.03    -0.05   0.37   0.00    -0.08   0.09  -0.01
    18   1     0.03   0.15  -0.23     0.06  -0.20   0.31     0.05  -0.03   0.06
    19   1     0.06  -0.12  -0.01    -0.20   0.24   0.02    -0.13   0.09   0.00
    20   1     0.06  -0.09  -0.01     0.01   0.06   0.11     0.05  -0.03   0.08
    21   1    -0.11   0.04  -0.08     0.20  -0.12   0.19     0.04  -0.04   0.08
    22   1    -0.07   0.25   0.48    -0.03   0.02   0.13     0.08   0.05  -0.09
    23   1     0.19  -0.23  -0.05     0.11  -0.11  -0.06    -0.24  -0.04   0.04
    24   1     0.09  -0.03   0.03    -0.05  -0.07   0.08    -0.03   0.11  -0.13
    25   1     0.06   0.11  -0.01     0.05   0.07   0.01    -0.15  -0.14   0.00
    26   1     0.03   0.05   0.05    -0.05   0.03  -0.07     0.27   0.08   0.42
    27   1     0.01   0.00   0.02     0.08   0.05   0.02    -0.32  -0.24  -0.05
    28   1    -0.18   0.11   0.02    -0.04   0.10   0.03     0.10  -0.36  -0.14
    29   1     0.23  -0.04  -0.30     0.06  -0.02  -0.11    -0.08   0.07   0.25
                     22                     23                     24
                      A                      A                      A
 Frequencies --    859.7792               878.5294               907.8893
 Red. masses --      2.2908                 2.2952                 1.4129
 Frc consts  --      0.9977                 1.0437                 0.6862
 IR Inten    --      0.2242                 2.7796                 2.3201
  Atom  AN      X      Y      Z        X      Y      Z        X      Y      Z
     1   8     0.00   0.06  -0.03     0.02  -0.02   0.01     0.01   0.02   0.00
     2   6     0.04   0.05   0.00    -0.09  -0.01  -0.03     0.01  -0.01  -0.05
     3   6     0.07  -0.11  -0.04    -0.03   0.06   0.11     0.01  -0.00  -0.01
     4   6    -0.01  -0.04   0.02     0.08   0.08  -0.02    -0.02  -0.01  -0.02
     5   6    -0.01   0.06   0.01     0.04  -0.04  -0.04    -0.03  -0.01   0.04
     6   6    -0.01  -0.02  -0.01     0.00  -0.01   0.03     0.01   0.03  -0.02
     7   6    -0.01  -0.02  -0.01    -0.03   0.03   0.02     0.04  -0.01  -0.02
     8   6    -0.09   0.02   0.05    -0.08  -0.06  -0.05    -0.01  -0.04   0.08
     9   6     0.01   0.21   0.02    -0.07   0.06  -0.06    -0.00   0.00  -0.08
    10   6     0.08  -0.04   0.05     0.17   0.02   0.07     0.05  -0.00  -0.04
    11   6    -0.05  -0.11  -0.02    -0.00  -0.09  -0.05     0.00  -0.03   0.09
    12   1     0.11  -0.17  -0.06    -0.06   0.05   0.10     0.03   0.28   0.05
    13   1    -0.22  -0.02   0.02     0.28   0.08  -0.09    -0.06  -0.04   0.08
    14   1     0.05  -0.06   0.02    -0.05   0.01  -0.02     0.07   0.09  -0.01
    15   1    -0.05   0.14  -0.15    -0.02  -0.12   0.16    -0.01   0.03  -0.06
    16   1    -0.00  -0.12  -0.01     0.05   0.19  -0.01    -0.11  -0.12   0.03
    17   1    -0.07   0.06   0.01     0.14  -0.10   0.01    -0.15   0.06  -0.02
    18   1     0.12  -0.06   0.06    -0.17   0.03  -0.04     0.06   0.02  -0.01
    19   1    -0.05   0.11   0.01     0.13  -0.14  -0.01    -0.15   0.07   0.00
    20   1    -0.06   0.10   0.03    -0.04  -0.02  -0.10     0.14  -0.11   0.12
    21   1     0.16  -0.06   0.08    -0.18   0.10  -0.13     0.02  -0.06   0.09
    22   1    -0.28  -0.17   0.09    -0.20  -0.14   0.08     0.02  -0.08  -0.26
    23   1    -0.10  -0.10   0.03     0.10  -0.04  -0.05    -0.19   0.23   0.12
    24   1     0.05   0.40  -0.32    -0.34   0.02   0.14     0.03  -0.15   0.18
    25   1    -0.07  -0.17  -0.07     0.04   0.23  -0.02    -0.18   0.32   0.01
    26   1     0.12  -0.21  -0.03     0.21   0.01   0.16     0.18  -0.15   0.15
    27   1     0.15  -0.09   0.03     0.04   0.05   0.09    -0.24   0.20   0.03
    28   1    -0.11  -0.08  -0.01     0.07   0.01  -0.03    -0.21   0.21   0.11
    29   1    -0.16  -0.23  -0.09    -0.22  -0.31  -0.11     0.02  -0.11  -0.24
                     25                     26                     27
                      A                      A                      A
 Frequencies --    913.1771               948.5118               969.9996
 Red. masses --      1.8358                 1.3413                 2.2681
 Frc consts  --      0.9020                 0.7110                 1.2574
 IR Inten    --      1.6746                 1.9072                 1.0542
  Atom  AN      X      Y      Z        X      Y      Z        X      Y      Z
     1   8     0.00   0.01  -0.01     0.00   0.01  -0.01     0.02   0.01  -0.02
     2   6     0.01   0.01   0.01     0.05  -0.00   0.00     0.00   0.03   0.04
     3   6     0.04   0.01   0.02    -0.01   0.02  -0.06    -0.01   0.07  -0.03
     4   6    -0.03   0.04  -0.00    -0.00   0.02   0.08    -0.06  -0.05   0.01
     5   6    -0.11  -0.10   0.05    -0.02  -0.02  -0.05     0.01   0.01  -0.00
     6   6     0.02   0.10  -0.06    -0.01  -0.00  -0.02     0.00   0.00   0.01
     7   6     0.14   0.00  -0.00     0.01   0.02   0.05    -0.02  -0.02  -0.01
     8   6     0.03  -0.02  -0.05     0.02  -0.04   0.02     0.18  -0.03  -0.04
     9   6    -0.02   0.03   0.03     0.03   0.03   0.03    -0.08   0.01   0.07
    10   6    -0.02  -0.00   0.04    -0.01  -0.00  -0.05    -0.03   0.11   0.05
    11   6    -0.01  -0.03  -0.04     0.00  -0.02   0.05     0.00  -0.18  -0.04
    12   1     0.09  -0.07   0.00    -0.20   0.03  -0.04    -0.06   0.12  -0.02
    13   1     0.05   0.04  -0.04     0.00   0.13  -0.18     0.02  -0.08   0.05
    14   1    -0.05  -0.02  -0.01    -0.03  -0.26   0.05    -0.09   0.03   0.02
    15   1    -0.19  -0.10   0.08    -0.23  -0.07   0.12     0.19   0.00  -0.02
    16   1    -0.16  -0.04   0.06     0.23   0.15  -0.03    -0.02  -0.01  -0.00
    17   1    -0.13   0.11  -0.06     0.30   0.03  -0.01    -0.03  -0.02   0.00
    18   1    -0.20   0.12  -0.05    -0.28  -0.00   0.04     0.15   0.00  -0.02
    19   1    -0.20  -0.08   0.00     0.22  -0.22   0.00     0.01   0.06   0.00
    20   1     0.45  -0.48   0.21    -0.01  -0.06  -0.13    -0.09   0.12  -0.01
    21   1    -0.25  -0.00   0.04    -0.19   0.12  -0.16     0.14  -0.05   0.03
    22   1    -0.04  -0.08   0.01     0.06  -0.03  -0.15     0.36   0.10  -0.25
    23   1     0.07  -0.06  -0.05    -0.24  -0.06   0.02    -0.01   0.12  -0.02
    24   1    -0.09   0.12  -0.09     0.10   0.10  -0.12    -0.32   0.14  -0.04
    25   1     0.06  -0.14  -0.01    -0.19  -0.09   0.01    -0.18  -0.13   0.04
    26   1    -0.10   0.04  -0.11     0.07  -0.11   0.08    -0.10   0.31   0.08
    27   1     0.16  -0.06   0.01    -0.15  -0.01  -0.03    -0.02   0.11   0.05
    28   1     0.06  -0.07  -0.04    -0.22  -0.02   0.04    -0.27  -0.15  -0.04
    29   1    -0.04  -0.03   0.05     0.12   0.05  -0.09    -0.03  -0.27  -0.23
                     28                     29                     30
                      A                      A                      A
 Frequencies --   1025.1203              1032.3997              1066.4400
 Red. masses --      2.0651                 2.1374                 1.4468
 Frc consts  --      1.2786                 1.3423                 0.9695
 IR Inten    --      2.9726                 6.7667                 0.2928
  Atom  AN      X      Y      Z        X      Y      Z        X      Y      Z
     1   8     0.00  -0.01   0.00    -0.01  -0.02   0.01    -0.00  -0.02   0.00
     2   6    -0.05   0.01  -0.01     0.05  -0.03  -0.02     0.01   0.00   0.04
     3   6     0.06  -0.07  -0.05     0.00   0.11   0.04     0.03   0.07  -0.04
     4   6     0.06  -0.08   0.05     0.09  -0.10   0.04    -0.09  -0.03   0.01
     5   6    -0.07   0.08  -0.03    -0.09   0.09  -0.06     0.00  -0.02   0.04
     6   6    -0.10   0.05  -0.06    -0.10   0.10  -0.01     0.00   0.01  -0.04
     7   6     0.07  -0.06   0.06     0.06  -0.11   0.02    -0.02  -0.01   0.03
     8   6     0.01   0.11   0.04    -0.03  -0.06  -0.05     0.02  -0.04  -0.00
     9   6    -0.04  -0.09  -0.03     0.00   0.02   0.01    -0.06   0.03  -0.04
    10   6     0.05   0.06   0.02     0.02  -0.02  -0.02     0.02  -0.07   0.03
    11   6    -0.04  -0.01  -0.03    -0.03   0.04   0.03     0.00   0.05  -0.02
    12   1     0.25  -0.11  -0.07    -0.25   0.16   0.06     0.27   0.44   0.03
    13   1    -0.15  -0.06   0.04     0.42  -0.14   0.05    -0.23  -0.03   0.06
    14   1     0.33  -0.13   0.03    -0.02  -0.04   0.05     0.15   0.01   0.01
    15   1    -0.24   0.11  -0.06     0.15   0.06  -0.03    -0.03   0.01  -0.02
    16   1     0.17   0.03  -0.04    -0.23   0.14  -0.05     0.27  -0.12   0.02
    17   1     0.08   0.13  -0.04    -0.20   0.02  -0.03     0.19   0.07  -0.03
    18   1    -0.24   0.02   0.03     0.10   0.12  -0.11    -0.02  -0.02   0.04
    19   1     0.25  -0.17   0.04     0.14   0.02   0.04     0.16  -0.07   0.02
    20   1     0.01  -0.03  -0.06    -0.03   0.09   0.03    -0.10   0.08  -0.09
    21   1     0.06  -0.01  -0.05     0.32  -0.15   0.09     0.03   0.03  -0.06
    22   1     0.03   0.15   0.12    -0.03  -0.04   0.01    -0.06  -0.14  -0.12
    23   1     0.16   0.09   0.03    -0.03  -0.11  -0.06     0.14   0.23   0.03
    24   1     0.02  -0.21   0.15    -0.17   0.10  -0.05    -0.31   0.04   0.07
    25   1     0.00   0.13   0.03     0.04  -0.08  -0.01     0.13   0.06  -0.04
    26   1     0.00   0.28   0.12     0.10  -0.19   0.02    -0.00  -0.17  -0.12
    27   1    -0.06   0.13   0.05    -0.01  -0.21  -0.05     0.19  -0.22  -0.02
    28   1     0.06  -0.02  -0.03    -0.12  -0.13   0.00     0.08  -0.05  -0.03
    29   1    -0.26  -0.19   0.01     0.12   0.19   0.09     0.07   0.14   0.11
                     31                     32                     33
                      A                      A                      A
 Frequencies --   1068.8025              1083.2665              1089.1515
 Red. masses --      2.3330                 1.9784                 1.5588
 Frc consts  --      1.5702                 1.3678                 1.0895
 IR Inten    --      2.9533                 1.8563                 4.6901
  Atom  AN      X      Y      Z        X      Y      Z        X      Y      Z
     1   8    -0.01  -0.00   0.01     0.01  -0.01  -0.01     0.00  -0.02  -0.00
     2   6     0.05  -0.02  -0.04    -0.05   0.03   0.06    -0.09   0.03   0.05
     3   6     0.05   0.01  -0.01    -0.05   0.04   0.01    -0.02   0.01  -0.01
     4   6     0.04  -0.09   0.04     0.03  -0.02  -0.00     0.04  -0.03   0.02
     5   6    -0.17   0.01   0.01    -0.06   0.01   0.01    -0.08  -0.00  -0.00
     6   6     0.20  -0.03   0.00     0.02   0.03  -0.03     0.04   0.03  -0.02
     7   6    -0.09   0.10  -0.05    -0.02  -0.01   0.01    -0.02  -0.01   0.00
     8   6    -0.01   0.03  -0.01    -0.07  -0.11   0.04     0.07  -0.00   0.00
     9   6    -0.02  -0.04   0.00     0.15   0.02  -0.04    -0.05   0.05   0.00
    10   6     0.04   0.03  -0.00    -0.10   0.07   0.04    -0.01  -0.09  -0.00
    11   6    -0.06   0.01   0.02     0.04  -0.07  -0.06     0.07   0.03  -0.02
    12   1    -0.05   0.11   0.02     0.05   0.23   0.05     0.10  -0.30  -0.08
    13   1     0.08  -0.10   0.06     0.12  -0.05   0.04     0.20  -0.04  -0.00
    14   1     0.10  -0.10   0.04     0.23  -0.01  -0.00     0.12  -0.07   0.01
    15   1    -0.35   0.02   0.02    -0.09   0.02  -0.02    -0.04  -0.01   0.01
    16   1    -0.35   0.01   0.01     0.00  -0.02   0.01    -0.11   0.02   0.00
    17   1     0.40  -0.04   0.00     0.15   0.04  -0.03     0.15   0.01  -0.02
    18   1     0.39  -0.05  -0.00     0.10   0.02  -0.01     0.17   0.03  -0.03
    19   1    -0.16   0.10  -0.05     0.10  -0.01   0.01     0.05   0.02   0.00
    20   1    -0.05   0.04  -0.02    -0.08   0.08  -0.05    -0.08   0.08  -0.03
    21   1    -0.17   0.11  -0.05     0.07   0.00  -0.03     0.07  -0.00  -0.01
    22   1    -0.03   0.04   0.08    -0.20  -0.29  -0.13     0.15   0.05  -0.09
    23   1     0.13   0.04  -0.01    -0.17   0.00   0.05    -0.16  -0.09  -0.01
    24   1    -0.12  -0.04   0.05     0.38  -0.05  -0.04     0.02   0.05  -0.03
    25   1     0.10  -0.02   0.01     0.38  -0.02  -0.06    -0.41   0.09   0.03
    26   1     0.07   0.06   0.10    -0.23   0.28  -0.10     0.00  -0.23  -0.12
    27   1    -0.04  -0.13  -0.02     0.07   0.26   0.05     0.03   0.16   0.04
    28   1    -0.19  -0.20  -0.02     0.07   0.01  -0.05     0.44   0.38   0.04
    29   1    -0.04   0.04   0.07     0.02  -0.08  -0.06    -0.02  -0.06  -0.03
                     34                     35                     36
                      A                      A                      A
 Frequencies --   1111.7028              1147.3293              1156.1097
 Red. masses --      2.0761                 1.8594                 2.2478
 Frc consts  --      1.5118                 1.4421                 1.7701
 IR Inten    --      4.0937                11.2551                26.9148
  Atom  AN      X      Y      Z        X      Y      Z        X      Y      Z
     1   8    -0.00  -0.01   0.01     0.01   0.02   0.00    -0.02   0.04  -0.01
     2   6     0.02  -0.03  -0.05    -0.09   0.01  -0.04     0.14  -0.02  -0.02
     3   6     0.16   0.11   0.00    -0.00  -0.09   0.01    -0.11  -0.09   0.06
     4   6    -0.14   0.02   0.04     0.00   0.07  -0.02     0.03   0.10  -0.09
     5   6    -0.01  -0.09   0.03    -0.03  -0.09   0.03    -0.04  -0.09   0.08
     6   6     0.02   0.07  -0.02     0.01   0.09  -0.03     0.02   0.09  -0.08
     7   6    -0.03  -0.04   0.01    -0.03  -0.06   0.02    -0.03  -0.05   0.05
     8   6    -0.06  -0.00  -0.04     0.04   0.05  -0.01    -0.03  -0.00   0.03
     9   6     0.04  -0.05   0.01    -0.05   0.02   0.04     0.04  -0.01  -0.01
    10   6     0.02   0.05  -0.02     0.02  -0.05  -0.06    -0.01   0.06   0.04
    11   6    -0.06   0.00  -0.00     0.07   0.03   0.09    -0.06  -0.04  -0.03
    12   1     0.36  -0.11  -0.06    -0.07  -0.04   0.02    -0.11  -0.24   0.02
    13   1    -0.00   0.04  -0.04     0.11   0.07  -0.05     0.02   0.06  -0.00
    14   1    -0.34  -0.04   0.04     0.00   0.01  -0.03     0.22   0.12  -0.09
    15   1     0.19  -0.12   0.08     0.05  -0.10   0.06    -0.01  -0.06  -0.00
    16   1     0.09  -0.05   0.04    -0.01  -0.04   0.04     0.06  -0.14   0.07
    17   1     0.09  -0.00  -0.03     0.09   0.03  -0.04     0.18   0.13  -0.07
    18   1     0.19   0.07  -0.05     0.16   0.09  -0.06     0.09   0.05  -0.01
    19   1     0.13   0.03   0.02     0.17   0.02   0.02     0.26  -0.04   0.03
    20   1    -0.15   0.16  -0.05    -0.16   0.17  -0.06    -0.18   0.16  -0.11
    21   1     0.18  -0.04  -0.00     0.21  -0.05  -0.01     0.18  -0.01  -0.06
    22   1    -0.08   0.02   0.12    -0.26  -0.26  -0.01     0.29   0.33   0.08
    23   1    -0.18  -0.39  -0.10     0.21   0.15  -0.00    -0.01   0.07   0.05
    24   1     0.20  -0.09  -0.01     0.20   0.02  -0.08    -0.26   0.03   0.05
    25   1    -0.11  -0.01   0.02     0.05  -0.10   0.01     0.04   0.03  -0.00
    26   1     0.08  -0.01   0.07    -0.06   0.41   0.17     0.08  -0.35  -0.11
    27   1    -0.16   0.23   0.03    -0.03  -0.33  -0.10     0.01   0.13   0.04
    28   1     0.09   0.07   0.01    -0.28  -0.03   0.07    -0.03  -0.11  -0.04
    29   1    -0.16  -0.07   0.03     0.04  -0.06  -0.14     0.05   0.08   0.07
                     37                     38                     39
                      A                      A                      A
 Frequencies --   1178.6412              1236.1414              1261.6203
 Red. masses --      2.0287                 1.5386                 1.4547
 Frc consts  --      1.6605                 1.3852                 1.3642
 IR Inten    --      4.7198                 8.7064                 3.5648
  Atom  AN      X      Y      Z        X      Y      Z        X      Y      Z
     1   8     0.02   0.02   0.01     0.02   0.02  -0.01    -0.02  -0.02   0.01
     2   6    -0.09  -0.01  -0.07    -0.09   0.01  -0.02     0.09  -0.01   0.03
     3   6    -0.01   0.05   0.14    -0.00  -0.02  -0.02    -0.04  -0.02   0.03
     4   6    -0.00  -0.06  -0.08    -0.00   0.02   0.06     0.00   0.01  -0.02
     5   6    -0.00   0.06   0.06    -0.02  -0.03  -0.08    -0.00  -0.02  -0.03
     6   6    -0.01  -0.05  -0.05     0.00   0.04   0.09     0.00   0.03   0.07
     7   6     0.01   0.03   0.03    -0.00  -0.03  -0.07    -0.00  -0.03  -0.05
     8   6    -0.02  -0.02  -0.10    -0.03   0.01   0.04    -0.00  -0.01  -0.08
     9   6     0.04   0.00   0.08     0.03  -0.02  -0.00    -0.00   0.00   0.08
    10   6    -0.02   0.02  -0.09    -0.02   0.03  -0.02    -0.00   0.00  -0.05
    11   6     0.04  -0.04   0.07     0.02  -0.06   0.01    -0.01   0.02   0.00
    12   1     0.33  -0.05   0.09     0.38  -0.12  -0.06    -0.08   0.38   0.12
    13   1    -0.11  -0.15   0.17    -0.09   0.09  -0.08    -0.19   0.01   0.01
    14   1     0.29   0.18  -0.05     0.19  -0.17   0.03     0.29   0.00  -0.02
    15   1    -0.12   0.15  -0.14    -0.03  -0.12   0.13    -0.15  -0.05   0.06
    16   1     0.14  -0.17   0.02     0.12   0.18  -0.05     0.19   0.06  -0.02
    17   1     0.08   0.12  -0.02     0.04  -0.22   0.05     0.13  -0.16   0.04
    18   1    -0.10  -0.11   0.11    -0.02   0.15  -0.15    -0.11   0.12  -0.10
    19   1     0.06  -0.11   0.01    -0.16   0.18  -0.03    -0.11   0.14  -0.02
    20   1     0.03  -0.07  -0.05     0.02   0.05   0.12     0.01   0.05   0.10
    21   1    -0.13   0.08  -0.07     0.13  -0.12   0.13     0.11  -0.10   0.10
    22   1     0.05   0.11   0.14     0.06   0.10   0.04    -0.04  -0.02   0.06
    23   1     0.03  -0.23  -0.13     0.04   0.09   0.05     0.20   0.05  -0.07
    24   1    -0.11   0.16  -0.11    -0.33   0.06   0.04     0.15   0.06  -0.09
    25   1    -0.02  -0.21   0.03     0.22  -0.05  -0.02    -0.11  -0.14   0.04
    26   1     0.08  -0.06   0.09     0.06  -0.17  -0.02     0.04  -0.04   0.03
    27   1    -0.18  -0.02  -0.07    -0.03  -0.01  -0.02    -0.15   0.13  -0.01
    28   1    -0.08   0.16   0.09    -0.04   0.02   0.02     0.20   0.21   0.04
    29   1     0.24   0.08  -0.16     0.34   0.21  -0.07    -0.35  -0.28   0.00
                     40                     41                     42
                      A                      A                      A
 Frequencies --   1276.2107              1287.9791              1297.3291
 Red. masses --      1.4063                 1.2927                 1.2527
 Frc consts  --      1.3495                 1.2634                 1.2422
 IR Inten    --      2.5067                 0.1689                 1.8791
  Atom  AN      X      Y      Z        X      Y      Z        X      Y      Z
     1   8    -0.01   0.01   0.01    -0.01  -0.01   0.00     0.00   0.02  -0.01
     2   6     0.05  -0.03  -0.06     0.04  -0.01   0.00     0.00   0.01   0.01
     3   6    -0.04   0.03   0.05    -0.02  -0.03  -0.04    -0.02  -0.03  -0.01
     4   6    -0.05   0.00  -0.01    -0.03   0.03   0.04    -0.04   0.02  -0.00
     5   6    -0.04   0.02  -0.02    -0.03   0.01  -0.01    -0.04   0.02  -0.01
     6   6    -0.02  -0.01   0.05    -0.03  -0.04  -0.03    -0.04  -0.03   0.01
     7   6     0.01   0.01  -0.04     0.02   0.04   0.03     0.02   0.03   0.00
     8   6     0.01  -0.04   0.01    -0.03  -0.02   0.03     0.02   0.04  -0.03
[...]
 121,-0.00007488,-0.00006507,0.00000301,0.00001615,0.00000111,-0.000009
 98,0.00001352,-0.00001460,-0.00000860,-0.00000205,0.00000091,-0.000011
 13,0.00000344,-0.00000229,-0.00000034,-0.00000994,-0.00000149,0.000005
 68,-0.00985070,0.00107739,0.01723016,0.12050370,0.00014105,0.00012783,
 0.00019869,0.00032533,-0.00016205,-0.00086540,-0.00004561,-0.00027095,
 0.00021911,-0.00061807,0.00036998,0.00102493,0.00003155,-0.00021238,-0
 .00008709,-0.00000213,0.00003678,0.00004251,0.00001191,-0.00000677,-0.
 00000484,0.00163714,-0.05203430,-0.00752790,0.01497389,-0.00229027,-0.
 02535035,0.00057438,0.00181533,-0.00118164,-0.00021021,-0.00013569,0.0
 0014425,0.00047615,0.00075115,0.00007223,0.00006153,-0.00002282,-0.000
 13226,0.00027420,0.00008359,-0.00008492,-0.00008569,0.00003105,0.00007
 746,-0.00002834,0.00006702,-0.00014681,0.00004640,-0.00003124,-0.00002
 074,0.00001852,-0.00000442,-0.00000194,0.00000072,0.00000822,-0.000013
 36,0.00000072,-0.00000185,-0.00000011,-0.00000901,-0.00000071,0.000005
 32,-0.01305615,0.00172119,0.02409162,-0.00665706,0.05358579,-0.0014996
 0,-0.00038099,0.00039611,0.00258846,0.00185984,-0.00058823,0.00960962,
 -0.00151444,-0.02350976,0.00154374,-0.00090715,0.00043126,-0.00018582,
 0.00022829,0.00005811,0.00005144,0.00001432,-0.00004149,-0.00003502,0.
 00001604,-0.00000174,0.10744334,-0.00742254,-0.23752327,0.00048762,-0.
 00002999,-0.00027272,-0.00024584,0.00032310,-0.00004106,-0.00008052,-0
 .00039611,-0.00031284,-0.00392455,-0.00040154,-0.00319337,-0.00015173,
 -0.00009815,0.00054763,-0.00097399,0.00075162,0.00064921,0.00007877,0.
 00004910,-0.00011725,-0.00005842,-0.00018509,0.00016457,-0.00005201,0.
 00004654,0.00002846,-0.00000549,0.00000876,0.00000917,-0.00000194,-0.0
 0001069,0.00001404,0.00000320,0.00001539,-0.00000221,0.00001342,0.0000
 0343,0.00000035,0.00105774,0.00053815,-0.00117229,-0.11536093,0.008449
 87,0.26161433,-0.00045506,0.00009657,0.00003864,0.00114216,-0.00007416
 ,0.00036035,-0.00089925,0.00331437,0.00168943,-0.00043825,-0.00045453,
 -0.00109378,-0.00016873,-0.00008976,0.00003548,0.00009025,0.00002494,-
 0.00002991,-0.00004848,0.00001261,0.00000651,-0.01225225,0.00044221,-0
 .01440854,-0.15249368,0.00095414,-0.12524027,-0.01246027,0.00008206,-0
 .01475632,-0.00136884,-0.00361299,0.00137047,0.00020093,0.00000108,-0.
 00019264,-0.00025095,0.00035405,0.00000029,0.00000486,-0.00002486,0.00
 005883,0.00004965,0.00001590,0.00002238,0.00001382,0.00001259,-0.00001
 624,-0.00000968,-0.00000013,0.00000587,0.00000817,-0.00000592,0.000011
 34,0.00000594,-0.00000107,-0.00000378,0.00000293,0.00003162,-0.0000048
 6,0.00001428,0.00000560,0.00000553,0.00079247,-0.00000263,0.00024894,0
 .00020295,-0.00065875,0.00026191,0.16503956,0.00000844,0.00091206,0.00
 000280,-0.00004541,-0.00236815,0.00004274,0.00284772,-0.00464651,-0.00
 184893,0.00117288,0.00072305,0.00141960,0.00014496,0.00018291,-0.00000
 609,-0.00008417,-0.00002537,0.00001740,0.00004326,-0.00001058,-0.00000
 634,0.01833145,-0.00041293,0.02354664,0.00102038,-0.04781474,0.0013792
 9,-0.01798182,0.00042039,-0.02322199,-0.00335458,-0.00466981,0.0014809
 0,-0.00041962,0.00000729,-0.00026300,0.00041602,-0.00059014,0.00004391
 ,-0.00000384,-0.00000809,-0.00008291,-0.00005533,-0.00002727,-0.000032
 90,-0.00002003,-0.00001152,0.00001126,0.00000797,0.00000118,-0.0000032
 3,-0.00001257,0.00000848,-0.00001221,-0.00000671,0.00000021,0.00000486
 ,-0.00000353,-0.00002986,0.00000349,-0.00001279,-0.00000759,-0.0000055
 3,-0.00080858,0.00084905,0.00027598,-0.00057457,0.00112297,-0.00042803
 ,-0.00103957,0.05467168,-0.00005994,0.00000681,-0.00009130,0.00027274,
 -0.00002041,0.00009864,0.00044870,0.00032704,0.00100183,-0.00005170,-0
 .00032392,0.00014365,-0.00005624,-0.00002030,-0.00001024,0.00004363,-0
 .00000554,-0.00000449,-0.00002973,0.00000274,-0.00000350,0.00241642,-0
 .00012980,0.00152708,-0.12616703,0.00130793,-0.20547108,0.00227805,0.0
 0011639,0.00129912,0.00035810,-0.00041701,0.00116458,0.00012454,-0.000
 09941,0.00047088,-0.00001190,0.00004628,0.00000639,-0.00006376,0.00008
 087,-0.00000259,0.00000662,-0.00000834,0.00000821,0.00000733,-0.000001
 94,-0.00000058,-0.00000470,0.00000167,0.00000082,-0.00000124,0.0000032
 2,0.00000089,0.00000408,-0.00000108,-0.00000335,0.00000125,0.00002001,
 -0.00000195,0.00000823,0.00000199,0.00000638,-0.00004627,0.00053381,0.
 00000495,-0.00016220,0.00038925,0.00077939,0.13831963,-0.00140140,0.21
 941442,0.00020490,-0.00000525,0.00007895,-0.00040929,-0.00002729,-0.00
 005046,0.00052171,-0.00068617,0.00140717,0.00006569,0.00018257,-0.0002
 2474,0.00003145,0.00002303,0.00007817,-0.00001580,-0.00001292,-0.00002
 053,0.00000190,-0.00000224,0.00000795,-0.01102355,0.00089017,0.0161426
 0,-0.12511856,-0.00000611,0.11170096,-0.01128218,-0.00081399,0.0166393
 8,0.00056346,0.00079101,0.00112034,-0.00015965,0.00023202,-0.00089227,
 0.00000732,0.00000977,-0.00008676,0.00018262,-0.00014089,-0.00012360,-
 0.00004684,-0.00004360,-0.00000850,0.00000675,0.00002761,-0.00005645,0
 .00001426,-0.00000918,-0.00000510,-0.00000871,0.00000806,-0.00000365,0
 .00000167,0.00000295,-0.00000665,0.00000032,-0.00000111,-0.00000110,-0
 .00000333,-0.00000275,-0.00000086,0.00083901,-0.00014928,-0.00050210,-
 0.00132249,0.00330714,-0.00009353,0.01274129,-0.00004656,-0.01741540,0
 .13468446,-0.00002467,0.00021139,-0.00000964,0.00002722,-0.00058722,-0
 .00001731,-0.00094880,0.00107595,-0.00092608,-0.00006105,-0.00016396,-
 0.00001021,-0.00001780,0.00001126,-0.00004119,-0.00000793,0.00000749,0
 .00001351,0.00001014,0.00000067,-0.00000520,0.01691091,-0.00147534,-0.
 02554713,0.00002722,-0.04820904,-0.00028051,-0.01681742,-0.00149294,0.
 02553324,0.00099985,0.00105144,0.00063081,-0.00003173,0.00007764,0.000
 75341,-0.00002855,-0.00000659,0.00011577,-0.00018654,0.00008723,0.0001
 4536,0.00004839,0.00002952,-0.00002170,0.00000103,-0.00002715,0.000060
 95,-0.00001624,0.00000992,0.00000498,0.00000515,-0.00000491,0.00000638
 ,-0.00000178,-0.00000279,0.00000905,-0.00000175,-0.00000736,0.00000211
 ,0.00000161,0.00000149,-0.00000338,-0.00078542,0.00111420,-0.00010063,
 0.00392813,-0.00461157,0.00025042,-0.00012582,-0.00041326,0.00017804,-
 0.00005450,0.05672065,0.00012397,-0.00001808,-0.00012570,-0.00022820,0
 .00001262,0.00018116,-0.00035650,0.00022131,0.00068722,-0.00009966,0.0
 0006447,0.00034908,0.00003903,-0.00001430,-0.00008440,-0.00001839,0.00
 000195,0.00002379,0.00001813,-0.00000155,-0.00000931,0.00031765,-0.000
 68279,-0.00156934,0.11232976,-0.00024196,-0.22579803,0.00012767,0.0006
 6449,-0.00144840,-0.00036460,-0.00025561,0.00086071,0.00036784,-0.0000
 2873,0.00058623,0.00004920,-0.00005952,0.00002027,-0.00013290,0.000117
 86,-0.00009110,0.00002685,0.00002741,-0.00000786,0.00000130,-0.0000084
 7,0.00005018,-0.00001099,0.00000541,0.00000509,0.00000398,-0.00000632,
 0.00000038,-0.00000326,-0.00000213,0.00001186,-0.00000329,-0.00001098,
 0.00000267,-0.00000093,-0.00000028,-0.00000494,-0.00005263,-0.00055595
 ,0.00022288,-0.00027396,-0.00046369,0.00143354,0.01400000,-0.00002912,
 -0.02167633,-0.12595467,0.00023133,0.24388680,-0.00172150,0.00167529,0
 .00074727,-0.00054030,-0.00456419,-0.00393942,-0.00013757,0.00006102,0
 .00055117,0.00020115,0.00009237,0.00015619,-0.00008873,-0.00003605,-0.
 00002294,0.00005224,0.00003348,0.00001439,-0.00002030,0.00000668,-0.00
 000203,-0.00258390,-0.00264535,0.00017219,0.01303521,-0.01791313,-0.00
 163419,-0.13232372,0.12154216,0.01334952,-0.01351313,0.01933840,-0.000
 76783,-0.00002848,-0.00003412,0.00001166,0.00003507,-0.00010751,0.0000
 4823,-0.00003328,-0.00000379,-0.00002575,0.00004988,0.00006931,0.00003
 651,0.00001027,0.00000906,-0.00000189,-0.00000152,-0.00000380,-0.00000
 304,0.00001037,-0.00001581,0.00000445,0.00000262,-0.00000006,-0.000002
 44,0.00000115,0.00001292,-0.00000126,0.00000499,0.00000343,0.00000353,
 0.00075423,-0.00116339,0.00002706,-0.00000012,-0.00004157,-0.00018806,
 0.00074666,0.00086603,-0.00007670,0.00086766,0.00080659,-0.00004305,0.
 14290825,0.00008601,0.00007315,0.00013260,-0.00051750,0.00065764,-0.00
 022198,-0.00034448,0.00068335,-0.00023242,0.00006019,0.00008291,0.0000
 8025,-0.00002515,-0.00003070,-0.00009819,-0.00001744,0.00005042,0.0000
 3855,0.00002542,-0.00000140,-0.00001047,-0.00572010,-0.00339345,0.0003
 0498,0.01632989,-0.02184461,-0.00236026,0.12036160,-0.22352732,-0.0160
 6301,-0.00056368,0.00161889,0.00003289,0.00001888,-0.00002885,0.000059
 76,0.00006369,-0.00006209,0.00003234,-0.00002192,-0.00001030,-0.000011
 25,0.00005308,0.00008634,0.00005579,-0.00000195,-0.00000026,0.00002103
 ,0.00000317,-0.00000603,-0.00000589,0.00002469,-0.00002385,0.00000685,
 -0.00000762,0.00000264,0.00000496,0.00000513,-0.00002613,0.00000422,-0
 .00000551,0.00000722,0.00000077,0.00110879,-0.00162978,-0.00001064,-0.
 00007647,0.00034346,-0.00009343,-0.00003271,0.00077991,-0.00050649,0.0
 0013748,0.00108147,0.00058020,-0.13019978,0.24278491,-0.00246535,0.001
 91314,0.00102516,-0.00154253,-0.00393377,-0.00437570,0.00016195,-0.000
 09347,0.00039889,0.00016079,0.00007674,0.00004768,-0.00006360,-0.00001
 227,0.00000910,0.00003333,0.00001729,-0.00000190,-0.00001432,0.0000055
 8,0.00000137,0.00002920,0.00011837,0.00041262,-0.00012809,0.00174691,-
 0.00087260,0.01352885,-0.01695681,-0.05127411,-0.01635842,0.02359390,-
 0.00102838,-0.00002851,-0.00001998,0.00000799,0.00001534,-0.00006623,0
 .00004564,-0.00003340,0.00001245,0.00000117,0.00002762,0.00002064,0.00
 001888,0.00000142,0.00000125,-0.00000705,-0.00000187,-0.00000071,0.000
 00010,0.00000350,-0.00000619,0.00000341,0.00000123,-0.00000006,-0.0000
 0176,0.00000176,0.00000780,-0.00000145,0.00000310,0.00000179,0.0000018
 3,0.00003592,-0.00000380,0.00055227,-0.00028212,0.00039662,0.00028586,
 0.00022434,-0.00024490,-0.00003354,-0.00049856,0.00011532,0.00025376,-
 0.01082888,0.01809463,0.05416569,-0.00010650,-0.00028673,0.00033607,0.
 00170969,-0.00072791,-0.00046176,0.00001492,0.00000928,-0.00023206,0.0
 0007583,0.00003921,0.00004654,-0.00000771,0.00001414,0.00000289,-0.000
 00865,0.00000952,0.00000430,0.00000518,-0.00000093,-0.00000032,0.00041
 680,0.00125556,-0.00032088,-0.01159600,-0.00167046,0.01821456,-0.10829
 069,-0.00278273,0.10756415,0.01039081,0.00117798,-0.02215665,-0.000130
 16,0.00000028,-0.00001676,0.00002449,-0.00003458,0.00000761,0.00000163
 ,0.00000915,0.00000402,0.00000268,0.00001261,0.00000780,-0.00000372,-0
 .00000282,-0.00000591,0.00000430,-0.00000203,-0.00000277,0.00000474,-0
 .00000329,0.00000116,-0.00000197,0.00000121,-0.00000208,0.00000238,-0.
 00000661,0.00000068,-0.00000223,0.00000182,0.00000165,-0.00000800,0.00
 009861,-0.00027989,0.00067980,-0.00046036,-0.00027067,0.00025432,0.000
 60105,-0.00016818,-0.00150418,-0.00407695,-0.00034022,-0.00929087,-0.0
 0098420,0.01652784,0.11902743,-0.00011332,0.00014730,-0.00017862,-0.00
 039837,-0.00025618,0.00077398,0.00022304,-0.00013985,-0.00012120,0.000
 03493,0.00000798,0.00003660,-0.00001099,0.00000420,0.00001865,0.000009
 49,-0.00000620,-0.00000336,-0.00000813,0.00000003,0.00000217,-0.000600
 07,0.00177971,0.00117793,-0.01466463,-0.00243029,0.02523833,-0.0022886
 7,-0.05268806,0.00904085,-0.00022718,-0.00016314,0.00016251,-0.0000501
 8,0.00009671,-0.00019033,0.00001354,-0.00002099,-0.00000377,0.00002965
 ,-0.00002505,-0.00001375,-0.00000689,-0.00000646,0.00000083,0.00000306
 ,0.00000573,-0.00001563,0.00000302,-0.00000175,-0.00000188,-0.00000276
 ,0.00000207,-0.00000126,0.00000189,0.00000058,-0.00000383,0.00000029,0
 .00000638,-0.00000110,0.00000106,-0.00000035,0.00000174,0.00006278,0.0
 0032755,-0.00038643,0.00045969,-0.00036136,-0.00062601,0.00067632,0.00
 113917,-0.00039278,-0.00337625,-0.00452193,0.00038178,0.01302268,0.001
 80514,-0.02463789,0.00729072,0.05412549,-0.00137337,0.00038575,0.00040
 421,0.00230725,-0.00175136,-0.00053928,-0.00005561,0.00037940,-0.00028
 448,0.00011224,0.00003271,-0.00006358,-0.00006147,0.00001722,0.0000068
 0,0.00003038,0.00000964,-0.00001066,-0.00001345,0.00000607,-0.00000034
 ,-0.00025682,-0.00028351,-0.00004309,0.00042665,0.00005106,0.00001960,
 0.10728173,0.00905644,-0.24249086,0.00931924,0.00164373,-0.02239243,-0
 .00002542,-0.00004842,0.00015130,0.00000234,-0.00001137,0.00001352,-0.
 00004249,0.00005314,0.00003458,0.00001245,0.00000693,0.00000430,-0.000
 00915,-0.00001136,0.00001179,-0.00000673,0.00000477,0.00000782,0.00000
 219,-0.00000186,0.00000087,-0.00000047,-0.00000233,0.00000279,-0.00000
 005,0.00000974,-0.00000175,0.00000429,0.00000031,0.00000105,-0.0001819
 3,0.00009666,0.00028906,-0.00027704,0.00061954,0.00023026,0.00026819,0
 .00041791,0.00081289,-0.00013024,-0.00028601,0.00152658,0.00146310,-0.
 00065237,-0.00183621,-0.11482210,-0.00984308,0.26605475,-0.00130988,0.
 00419674,-0.00301330,-0.01189296,-0.00076160,0.01661629,0.00009618,-0.
 00027252,-0.00078885,-0.00000855,0.00010566,-0.00044200,-0.00001200,0.
 00001787,0.00002415,0.00001623,-0.00000208,0.00000132,-0.00000956,0.00
 000386,0.00000598,-0.00014262,-0.00032291,-0.00007425,0.00153370,0.000
 42019,-0.00009862,0.01033979,-0.00229845,-0.02312877,-0.10444365,0.006
 40268,0.11267875,0.00071896,0.00023294,-0.00036549,-0.00001092,-0.0000
 4354,0.00007359,0.00004748,-0.00013571,-0.00003084,0.00000772,0.000009
 23,-0.00000973,0.00001138,0.00001852,-0.00001014,-0.00000159,-0.000000
 42,-0.00000222,-0.00000649,-0.00000068,0.00000076,0.00000394,0.0000004
 3,-0.00000282,0.00000001,0.00000665,-0.00000092,0.00000045,-0.00000121
 ,-0.00000172,-0.00001720,-0.00001751,-0.00002560,-0.00011853,0.0000539
 9,-0.00002264,0.00018392,0.00040482,0.00017365,-0.00017085,0.00002644,
 0.00044561,0.00150582,-0.00007129,0.00093384,-0.00281882,-0.00033797,-
 0.00402270,0.11583049,0.00292188,-0.00313062,0.00352358,0.01360912,0.0
 0230895,-0.02801778,-0.00141991,-0.00031998,0.00295646,0.00012297,0.00
 008707,0.00043601,-0.00000658,-0.00000207,0.00000859,0.00000670,0.0000
 0387,-0.00001369,0.00000046,0.00000061,-0.00000479,0.00049056,0.000232
 85,0.00024681,0.00051560,0.00004162,-0.00101370,-0.00130458,0.00043181
 ,0.00210872,0.00771530,-0.05339649,-0.02066633,-0.00042972,-0.00167065
 ,-0.00000461,-0.00003087,0.00008720,-0.00008590,-0.00006058,0.00009633
 ,0.00001980,-0.00001539,-0.00002272,0.00000072,-0.00000436,-0.00000431
 ,0.00000437,0.00000275,-0.00000197,0.00000218,-0.00000312,0.00000498,-
 0.00000486,-0.00000038,-0.00000111,0.00000178,-0.00000155,0.00000188,0
 .00000047,-0.00000109,-0.00000199,-0.00000056,0.00003977,-0.00000750,0
 .00001179,0.00000385,0.00009158,0.00005667,-0.00002792,-0.00000809,0.0
 0012600,-0.00020542,0.00010750,0.00001656,-0.00057665,0.00016974,0.000
 30605,0.00059802,0.00101594,0.00049541,-0.01042935,0.05069445,-0.00057
 483,-0.00056429,-0.00085590,0.00040717,0.00040459,0.00104096,0.0008562
 7,0.00008817,-0.00071427,-0.00014669,-0.00019775,0.00025376,0.00001888
 ,-0.00003766,-0.00003479,-0.00000583,-0.00000713,0.00000882,0.00000231
 ,-0.00000233,-0.00000374,-0.00046487,-0.00008311,-0.00015748,0.0015301
 8,0.00048878,0.00088999,0.01098403,-0.00159427,-0.02586428,0.10855873,
 -0.01584008,-0.23345173,-0.00037843,0.00009984,0.00061676,0.00001817,0
 .00003885,-0.00002715,-0.00006596,0.00011415,0.00003193,0.00000174,-0.
 00000021,0.00000495,-0.00000429,-0.00001573,0.00001987,-0.00000385,0.0
 0000397,0.00000222,0.00000185,0.00000042,-0.00000090,-0.00000067,-0.00
 000113,0.00000329,-0.00000147,0.00000069,0.00000037,0.00000126,0.00000
 007,-0.00000003,0.00001010,-0.00005749,0.00001199,-0.00002174,0.000180
 61,0.00014877,-0.00015518,0.00024044,0.00042596,-0.00080765,-0.0007296
 1,0.00049229,0.00039718,0.00041546,0.00145593,-0.00454853,-0.00005194,
 -0.00282525,-0.11635370,0.01669716,0.25988576,0.00194953,-0.00117352,0
 .00002921,0.01146470,0.01574352,-0.00156578,-0.00216517,0.00245616,0.0
 0024374,0.00075085,0.00079043,-0.00002872,-0.00027898,0.00017223,0.000
 03809,0.00009503,0.00007432,-0.00001650,-0.00003614,0.00002383,-0.0000
 0196,-0.00023343,0.00028180,-0.00003153,-0.00199064,0.00179243,-0.0042
 8957,-0.01240161,-0.01603450,0.00302457,-0.15901096,-0.13395782,0.0134
 7015,-0.00005506,-0.00003489,-0.00006349,0.00007760,-0.00005653,-0.000
 01276,-0.00000926,-0.00003063,0.00003796,0.00002636,0.00002730,0.00002
 680,0.00000338,-0.00000544,-0.00001529,0.00000055,-0.00000309,0.000002
 72,0.00000413,-0.00000738,-0.00000036,-0.00000016,-0.00000025,-0.00000
 223,0.00000707,0.00001348,-0.00000283,0.00000213,0.00000175,0.00000385
 ,0.00007642,-0.00009403,0.00004510,0.00007287,-0.00006167,0.00001148,-
 0.00064871,-0.00139531,-0.00014796,0.00033097,0.00039427,0.00003228,0.
 00009786,0.00031179,0.00055561,0.00115452,0.00025325,0.00004898,-0.009
 33245,-0.01150948,0.00074583,0.17004860,-0.00004885,0.00607565,-0.0004
 7753,-0.02270998,-0.02685282,0.00288171,0.00521226,-0.00306118,-0.0004
 9185,-0.00162993,-0.00088034,-0.00004646,0.00066034,-0.00027621,-0.000
 11418,-0.00025908,-0.00012335,0.00004620,0.00010715,-0.00005193,-0.000
 00515,0.00041100,0.00023924,0.00041839,0.00060925,0.00084822,0.0003751
 7,0.00215354,0.00290546,-0.00106058,-0.12912180,-0.20606078,0.01550887
 ,0.00011468,0.00047756,0.00016635,0.00002831,0.00001884,0.00009717,0.0
 0006198,-0.00011246,-0.00009288,-0.00002839,0.00000436,-0.00002796,-0.
 00000774,0.00002147,0.00002413,0.00000491,0.00000119,-0.00001370,0.000
 01290,0.00000222,0.00001316,-0.00000923,0.00000386,0.00000664,-0.00001
 027,-0.00005923,0.00000981,-0.00000926,0.00000387,-0.00000423,-0.00010
 728,0.00002127,-0.00009516,-0.00004245,-0.00000955,-0.00011740,0.00012
 677,0.00022555,0.00018638,-0.00002828,-0.00006375,0.00005408,-0.000234
 20,0.00035759,-0.00045239,-0.00007956,0.00015764,-0.00039475,0.0027952
 6,0.00319114,0.00040952,0.14202797,0.22299647,-0.00052301,0.00023690,-
 0.00125640,0.00055998,-0.00193096,-0.00054635,0.00013912,0.00049147,0.
 00114515,0.00008857,0.00001717,0.00040224,-0.00004618,-0.00003326,-0.0
 0002515,0.00001666,0.00001416,0.00000211,-0.00000761,0.00000071,-0.000
 00428,-0.00012822,0.00061641,-0.00010799,-0.00291167,0.00145614,-0.004
 09180,-0.01562812,-0.02099909,0.00240064,0.01324710,0.01583678,-0.0522
 2804,-0.00043527,-0.00031800,0.00027266,0.00003098,-0.00005484,0.00000
 217,-0.00006547,0.00007226,0.00000924,0.00001424,0.00001713,0.00001436
 ,0.00000971,0.00000193,0.00000020,0.00000066,-0.00000276,-0.00000338,0
 .00000315,-0.00000381,0.00000106,0.00000143,0.00000030,-0.00000088,0.0
 0000076,0.00000453,0.00000028,0.00000186,0.00000155,0.00000191,0.00013
 363,-0.00004933,0.00007533,0.00004950,-0.00003098,-0.00001484,-0.00102
 663,-0.00130064,0.00013287,-0.00029270,-0.00007209,0.00022091,0.000555
 02,0.00040112,0.00074534,0.00090951,-0.00036250,0.00091577,0.01744038,
 0.02279307,-0.00135807,-0.01213738,-0.01680337,0.05329496\\-0.00000280
 ,0.00000821,-0.00002879,0.00008534,0.00001602,0.00002681,-0.00001152,-
 0.00000830,-0.00001178,-0.00002259,0.00001438,0.00007980,0.00003209,0.
 00006999,0.00000174,-0.00004274,-0.00004786,-0.00002781,0.00002286,0.0
 0000754,0.00000244,0.00007306,-0.00003246,0.00001191,-0.00001113,-0.00
 000721,-0.00005104,0.00001955,0.00002116,0.00003229,-0.00006738,-0.000
 00063,-0.00007332,0.00000181,-0.00001356,-0.00000571,-0.00001142,0.000
 01910,-0.00000620,-0.00000179,-0.00001480,-0.00000411,-0.00001019,0.00
 002763,-0.00000708,-0.00000014,-0.00001485,-0.00001097,-0.00000537,-0.
 00000750,-0.00000112,-0.00000601,0.00000849,-0.00001366,-0.00000210,-0
 .00000740,-0.00001114,-0.00001221,-0.00000065,0.00000559,0.00001077,0.
 00000391,0.00000924,-0.00000162,-0.00002534,-0.00000309,-0.00002144,-0
 .00000985,0.00001931,-0.00000718,0.00000283,0.00000526,0.00000101,-0.0
 0000536,0.00000736,-0.00000424,-0.00000219,0.00000532,-0.00001784,-0.0
 0000700,0.00002075,0.00000654,0.00000748,0.00000396,0.00000668,-0.0000
 0179,0.00002400\\\@


 NEVER LOSE YOUR IGNORANCE, IT CAN'T BE REPLACED.
   -- ANDY CAPP
 Job cpu time:       0 days  0 hours  2 minutes 22.6 seconds.
 Elapsed time:       0 days  0 hours  2 minutes 26.5 seconds.
 File lengths (MBytes):  RWF=    140 Int=      0 D2E=      0 Chk=      5 Scr=      1
 Normal termination of Gaussian 16 at Thu Feb 22 10:35:12 2024.
