 Entering Gaussian System, Link 0=g16
 Input=/Volumes/SSD-PMU3/b3lyp_6-31gd_freq/POYYYXPQBFPUKS-SECBINFHSA-N_calculating/gaussianinput0.gjf
 Output=/Volumes/SSD-PMU3/b3lyp_6-31gd_freq/POYYYXPQBFPUKS-SECBINFHSA-N_calculating/gaussianinput0.log
 Initial command:
 /Applications/g16/l1.exe "/Users/macmini_m1_2022/PycharmProjects/sphere_model/sphere_model_lib/Gau-60130.inp" -scrdir="/Users/macmini_m1_2022/PycharmProjects/sphere_model/sphere_model_lib/"
 Entering Link 1 = /Applications/g16/l1.exe PID=     60131.
  
 Copyright (c) 1988,1990,1992,1993,1995,1998,2003,2009,2016,
            Gaussian, Inc.  All Rights Reserved.
  
 This is part of the Gaussian(R) 16 program.  It is based on
 the Gaussian(R) 09 system (copyright 2009, Gaussian, Inc.),
 the Gaussian(R) 03 system (copyright 2003, Gaussian, Inc.),
 the Gaussian(R) 98 system (copyright 1998, Gaussian, Inc.),
 the Gaussian(R) 94 system (copyright 1995, Gaussian, Inc.),
 the Gaussian 92(TM) system (copyright 1992, Gaussian, Inc.),
 the Gaussian 90(TM) system (copyright 1990, Gaussian, Inc.),
 the Gaussian 88(TM) system (copyright 1988, Gaussian, Inc.),
 the Gaussian 86(TM) system (copyright 1986, Carnegie Mellon
 University), and the Gaussian 82(TM) system (copyright 1983,
 Carnegie Mellon University). Gaussian is a federally registered
 trademark of Gaussian, Inc.
  
 This software contains proprietary and confidential information,
 including trade secrets, belonging to Gaussian, Inc.
  
 This software is provided under written license and may be
 used, copied, transmitted, or stored only in accord with that
 written license.
  
 The following legend is applicable only to US Government
 contracts under FAR:
  
                    RESTRICTED RIGHTS LEGEND
  
 Use, reproduction and disclosure by the US Government is
 subject to restrictions as set forth in subparagraphs (a)
 and (c) of the Commercial Computer Software - Restricted
 Rights clause in FAR 52.227-19.
  
 Gaussian, Inc.
 340 Quinnipiac St., Bldg. 40, Wallingford CT 06492
  
  
 ---------------------------------------------------------------
 Warning -- This program may not be used in any manner that
 competes with the business of Gaussian, Inc. or will provide
 assistance to any competitor of Gaussian, Inc.  The licensee
 of this program is prohibited from giving any competitor of
 Gaussian, Inc. access to this program.  By using this program,
 the user acknowledges that Gaussian, Inc. is engaged in the
 business of creating and licensing software in the field of
 computational chemistry and represents and warrants to the
 licensee that it is not a competitor of Gaussian, Inc. and that
 it will not use this program in any manner prohibited above.
 ---------------------------------------------------------------
  

 Cite this work as:
 Gaussian 16, Revision A.03,
 M. J. Frisch, G. W. Trucks, H. B. Schlegel, G. E. Scuseria, 
 M. A. Robb, J. R. Cheeseman, G. Scalmani, V. Barone, 
 G. A. Petersson, H. Nakatsuji, X. Li, M. Caricato, A. V. Marenich, 
 J. Bloino, B. G. Janesko, R. Gomperts, B. Mennucci, H. P. Hratchian, 
 J. V. Ortiz, A. F. Izmaylov, J. L. Sonnenberg, D. Williams-Young, 
 F. Ding, F. Lipparini, F. Egidi, J. Goings, B. Peng, A. Petrone, 
 T. Henderson, D. Ranasinghe, V. G. Zakrzewski, J. Gao, N. Rega, 
 G. Zheng, W. Liang, M. Hada, M. Ehara, K. Toyota, R. Fukuda, 
 J. Hasegawa, M. Ishida, T. Nakajima, Y. Honda, O. Kitao, H. Nakai, 
 T. Vreven, K. Throssell, J. A. Montgomery, Jr., J. E. Peralta, 
 F. Ogliaro, M. J. Bearpark, J. J. Heyd, E. N. Brothers, K. N. Kudin, 
 V. N. Staroverov, T. A. Keith, R. Kobayashi, J. Normand, 
 K. Raghavachari, A. P. Rendell, J. C. Burant, S. S. Iyengar, 
 J. Tomasi, M. Cossi, J. M. Millam, M. Klene, C. Adamo, R. Cammi, 
 J. W. Ochterski, R. L. Martin, K. Morokuma, O. Farkas, 
 J. B. Foresman, and D. J. Fox, Gaussian, Inc., Wallingford CT, 2016.
 
 ******************************************
 Gaussian 16:  EM64M-G16RevA.03 25-Dec-2016
                22-Feb-2024 
 ******************************************
 %nprocshared=8
 Will use up to    8 processors via shared memory.
 %mem=8GB
 %chk= 0.chk
 ---------------------
 # freq b3lyp/6-31g(d)
 ---------------------
 1/10=4,30=1,38=1/1,3;
 2/12=2,17=6,18=5,40=1/2;
 3/5=1,6=6,7=1,11=2,25=1,30=1,71=2,74=-5,140=1/1,2,3;
 4//1;
 5/5=2,38=5,98=1/2;
 8/6=4,10=90,11=11/1;
 11/6=1,8=1,9=11,15=111,16=1/1,2,10;
 10/6=1/2;
 6/7=2,8=2,9=2,10=2,28=1/1;
 7/8=1,10=1,25=1/1,2,3,16;
 1/10=4,30=1/3;
 99//99;
 ---------
 good luck
 ---------
 Symbolic Z-matrix:
 Charge =  0 Multiplicity = 1
 O                     1.2179    0.        0. 
 C                     0.        0.        0. 
 C                    -0.83495  -1.28466  -0.03095 
 C                     0.01812  -2.56012   0.00052 
 C                     0.66734  -2.84593   1.3631 
 C                     1.42949  -4.17982   1.43031 
 C                     2.66612  -4.25015   0.52605 
 C                    -1.77626  -1.22259  -1.26384 
 C                    -2.63223   0.0516   -1.28709 
 C                    -1.7613    1.31436  -1.24334 
 C                    -0.80536   1.29336  -0.03095 
 H                    -1.4812   -1.25838   0.86281 
 H                    -0.62125  -3.41126  -0.27615 
 H                     0.79118  -2.47924  -0.77232 
 H                    -0.11774  -2.85205   2.13396 
 H                     1.34899  -2.02463   1.61431 
 H                     1.74     -4.35088   2.47002 
 H                     0.74466  -5.00328   1.17929 
 H                     2.4024   -4.17171  -0.53457 
 H                     3.36547  -3.43611   0.75252 
 H                     3.19961  -5.19805   0.66253 
 H                    -1.16746  -1.27403  -2.17834 
 H                    -2.41659  -2.11345  -1.26593 
 H                    -3.26466   0.06155  -2.18359 
 H                    -3.31374   0.04764  -0.4237 
 H                    -2.38483   2.21583  -1.20828 
 H                    -1.16647   1.37947  -2.16488 
 H                    -0.10878   2.13662  -0.04531 
 H                    -1.39779   1.35598   0.89407 
 

 GradGradGradGradGradGradGradGradGradGradGradGradGradGradGradGradGradGrad
 Berny optimization.
 Initialization pass.
 Trust Radius=3.00D-01 FncErr=1.00D-07 GrdErr=1.00D-07 EigMax=2.50D+02 EigMin=1.00D-04
 Number of steps in this run=      2 maximum allowed number of steps=      2.
 GradGradGradGradGradGradGradGradGradGradGradGradGradGradGradGradGradGrad

                          Input orientation:                          
 ---------------------------------------------------------------------
 Center     Atomic      Atomic             Coordinates (Angstroms)
 Number     Number       Type             X           Y           Z
 ---------------------------------------------------------------------
      1          8           0        1.217900    0.000000    0.000000
      2          6           0        0.000000    0.000000    0.000000
      3          6           0       -0.834954   -1.284663   -0.030947
      4          6           0        0.018116   -2.560115    0.000520
      5          6           0        0.667339   -2.845925    1.363103
      6          6           0        1.429488   -4.179818    1.430309
      7          6           0        2.666116   -4.250150    0.526045
      8          6           0       -1.776257   -1.222589   -1.263840
      9          6           0       -2.632232    0.051601   -1.287092
     10          6           0       -1.761299    1.314363   -1.243335
     11          6           0       -0.805362    1.293362   -0.030947
     12          1           0       -1.481200   -1.258378    0.862811
     13          1           0       -0.621254   -3.411258   -0.276146
     14          1           0        0.791183   -2.479238   -0.772324
     15          1           0       -0.117737   -2.852049    2.133958
     16          1           0        1.348989   -2.024626    1.614306
     17          1           0        1.739995   -4.350877    2.470020
     18          1           0        0.744656   -5.003277    1.179293
     19          1           0        2.402402   -4.171708   -0.534570
     20          1           0        3.365475   -3.436108    0.752519
     21          1           0        3.199613   -5.198053    0.662533
     22          1           0       -1.167460   -1.274030   -2.178337
     23          1           0       -2.416591   -2.113451   -1.265932
     24          1           0       -3.264664    0.061546   -2.183595
     25          1           0       -3.313741    0.047643   -0.423696
     26          1           0       -2.384831    2.215826   -1.208278
     27          1           0       -1.166468    1.379473   -2.164879
     28          1           0       -0.108775    2.136621   -0.045308
     29          1           0       -1.397786    1.355984    0.894074
 ---------------------------------------------------------------------
                    Distance matrix (angstroms):
                    1          2          3          4          5
     1  O    0.000000
     2  C    1.217900   0.000000
     3  C    2.421885   1.532470   0.000000
     4  C    2.827308   2.560179   1.534763   0.000000
     5  C    3.203195   3.225319   2.576393   1.536167   0.000000
     6  C    4.422831   4.643285   3.955362   2.580640   1.537745
     7  C    4.520822   5.044668   4.621888   3.185012   2.582174
     8  C    3.472318   2.499421   1.552395   2.570478   3.937920
     9  C    4.059900   2.930514   2.567822   3.937429   5.128973
    10  C    3.485550   2.524996   3.013791   4.441292   5.477207
    11  C    2.401527   1.523926   2.578195   3.940608   4.609330
    12  H    3.100500   2.126479   1.103235   2.164720   2.717870
    13  H    3.885283   3.478346   2.151324   1.099901   2.160373
    14  H    2.631576   2.714604   2.149644   1.096112   2.170218
    15  H    3.804193   3.563962   2.767293   2.157600   1.100272
    16  H    2.592736   2.919737   2.832668   2.159231   1.096486
    17  H    5.030280   5.297047   4.720897   3.502874   2.154237
    18  H    5.162119   5.194037   4.217575   2.808275   2.166548
    19  H    4.369434   4.843599   4.366823   2.927178   2.892975
    20  H    4.121311   4.868218   4.783946   3.540858   2.828616
    21  H    5.602311   6.139725   5.663326   4.185559   3.526431
    22  H    3.472499   2.780516   2.173006   2.794105   4.287090
    23  H    4.390761   3.450967   2.171095   2.780505   4.118127
    24  H    4.986507   3.928092   3.514209   4.734988   6.040952
    25  H    4.551654   3.341058   2.841421   4.252250   5.235875
    26  H    4.398806   3.472354   4.005203   5.481328   6.445856
    27  H    3.503549   2.819627   3.429459   4.648930   5.802025
    28  H    2.515406   2.139868   3.497531   4.698673   5.235622
    29  H    3.078940   2.142864   2.854025   4.258996   4.705398
                    6          7          8          9         10
     6  C    0.000000
     7  C    1.533587   0.000000
     8  C    5.126445   5.666083   0.000000
     9  C    6.464267   7.061517   1.535185   0.000000
    10  C    6.893150   7.327791   2.537079   1.534603   0.000000
    11  C    6.089788   6.564444   2.965244   2.541127   1.544066
    12  H    4.162808   5.124875   2.147320   2.768213   3.336660
    13  H    2.776367   3.486266   2.664553   4.130065   4.956476
    14  H    2.854995   2.887432   2.900431   4.288345   4.596567
    15  H    2.156849   3.505697   4.117142   5.143681   5.609491
    16  H    2.164529   2.805725   4.323673   5.345928   5.384130
    17  H    1.098487   2.155663   6.007655   7.253556   7.625156
    18  H    1.100040   2.164704   5.159215   6.560352   7.215366
    19  H    2.192573   1.095720   5.166268   6.614391   6.923563
    20  H    2.181868   1.096840   5.950023   7.231640   7.268715
    21  H    2.181656   1.096252   6.653909   8.085191   8.405626
    22  H    5.311315   5.555833   1.099811   2.167296   2.815431
    23  H    5.131463   5.797463   1.097118   2.175867   3.489961
    24  H    7.285913   7.817098   2.170324   1.097172   2.171116
    25  H    6.618684   7.425074   2.164068   1.099965   2.164824
    26  H    7.900344   8.386226   3.492298   2.179745   1.096657
    27  H    7.111264   7.322734   2.820362   2.163843   1.098775
    28  H    6.666416   6.986938   3.943299   3.501024   2.200503
    29  H    6.239081   6.933937   3.383618   2.825377   2.168500
                   11         12         13         14         15
    11  C    0.000000
    12  H    2.786923   0.000000
    13  H    4.714602   2.582948   0.000000
    14  H    4.163065   3.054159   1.763472   0.000000
    15  H    4.726952   2.452475   2.524846   3.067833   0.000000
    16  H    4.284522   3.026855   3.062420   2.492754   1.762371
    17  H    6.677658   4.745816   3.741632   3.862133   2.410517
    18  H    6.596582   4.367936   2.553143   3.190885   2.506569
    19  H    6.356916   5.051983   3.128508   2.348831   3.900467
    20  H    6.354336   5.314596   4.117375   3.141294   3.792396
    21  H    7.658930   6.121369   4.321201   3.905292   4.321300
    22  H    3.366586   3.057329   2.912802   2.695493   4.710409
    23  H    3.965807   2.477429   2.426358   3.266078   4.170073
    24  H    3.492768   3.768757   4.763019   4.989706   6.085511
    25  H    2.828079   2.592103   4.385801   4.832915   5.016398
    26  H    2.175263   4.144400   5.970188   5.685134   6.480248
    27  H    2.165982   4.027930   5.178385   4.545466   6.122550
    28  H    1.093858   3.772830   5.576279   4.758638   5.443906
    29  H    1.100251   2.615879   4.969810   4.719894   4.569834
                   16         17         18         19         20
    16  H    0.000000
    17  H    2.509298   0.000000
    18  H    3.070312   1.755649   0.000000
    19  H    3.215168   3.081955   2.525263   0.000000
    20  H    2.607906   2.535507   3.083318   1.767828   0.000000
    21  H    3.794907   2.472893   2.516305   1.766914   1.772021
    22  H    4.613031   6.287090   5.370023   4.882870   5.814808
    23  H    4.741651   6.020018   4.931907   5.290936   6.265449
    24  H    6.329452   8.134631   7.282588   7.263289   8.050658
    25  H    5.494434   7.298001   6.674725   7.105597   7.624430
    26  H    6.315839   8.582870   8.222508   8.010747   8.297897
    27  H    5.674298   7.922545   7.454890   6.797820   7.227692
    28  H    4.711196   7.199476   7.294254   6.807378   6.615304
    29  H    4.414978   6.700563   6.716518   6.858413   6.758168
                   21         22         23         24         25
    21  H    0.000000
    22  H    6.522256   0.000000
    23  H    6.691449   1.759954   0.000000
    24  H    8.806288   2.486374   2.508375   0.000000
    25  H    8.433327   3.071174   2.486879   1.760638   0.000000
    26  H    9.468450   3.821270   4.329777   2.523147   2.485852
    27  H    8.385748   2.653537   3.817254   2.477843   3.068594
    28  H    8.077370   4.159708   4.987890   4.340258   3.844322
    29  H    8.009063   4.050893   4.211955   3.825291   2.668175
                   26         27         28         29
    26  H    0.000000
    27  H    1.760392   0.000000
    28  H    2.557187   2.486879   0.000000
    29  H    2.476584   3.067777   1.775776   0.000000
 Stoichiometry    C10H18O
 Framework group  C1[X(C10H18O)]
 Deg. of freedom    81
 Full point group                 C1      NOp   1
 Largest Abelian subgroup         C1      NOp   1
 Largest concise Abelian subgroup C1      NOp   1
                         Standard orientation:                         
 ---------------------------------------------------------------------
 Center     Atomic      Atomic             Coordinates (Angstroms)
 Number     Number       Type             X           Y           Z
 ---------------------------------------------------------------------
      1          8           0       -0.197164    1.825846   -0.437411
      2          6           0       -0.895339    0.962888    0.063723
      3          6           0       -0.410620   -0.472021    0.297278
      4          6           0        1.054307   -0.687704   -0.106412
      5          6           0        2.068814   -0.038524    0.847083
      6          6           0        3.537054   -0.346772    0.509573
      7          6           0        4.016623    0.234966   -0.825898
      8          6           0       -1.382570   -1.437861   -0.432378
      9          6           0       -2.845639   -1.222797   -0.020104
     10          6           0       -3.289140    0.226899   -0.258213
     11          6           0       -2.346320    1.224155    0.449397
     12          1           0       -0.521668   -0.666949    1.377464
     13          1           0        1.245991   -1.769931   -0.149112
     14          1           0        1.194678   -0.300015   -1.122017
     15          1           0        1.864316   -0.386695    1.870585
     16          1           0        1.916013    1.047263    0.847333
     17          1           0        4.169564    0.048141    1.316202
     18          1           0        3.689725   -1.436166    0.510665
     19          1           0        3.474555   -0.192725   -1.676688
     20          1           0        3.871743    1.321781   -0.855880
     21          1           0        5.083080    0.034583   -0.981733
     22          1           0       -1.280418   -1.291521   -1.517613
     23          1           0       -1.075540   -2.471038   -0.227573
     24          1           0       -3.495907   -1.911105   -0.574333
     25          1           0       -2.963484   -1.470716    1.045059
     26          1           0       -4.318422    0.380506    0.087678
     27          1           0       -3.285476    0.437140   -1.336680
     28          1           0       -2.590189    2.261732    0.203453
     29          1           0       -2.444266    1.099577    1.538176
 ---------------------------------------------------------------------
 Rotational constants (GHZ):           2.3283467           0.5321238           0.4752412
 Standard basis: 6-31G(d) (6D, 7F)
 There are   201 symmetry adapted cartesian basis functions of A   symmetry.
 There are   201 symmetry adapted basis functions of A   symmetry.
   201 basis functions,   380 primitive gaussians,   201 cartesian basis functions
    43 alpha electrons       43 beta electrons
       nuclear repulsion energy       639.5543785410 Hartrees.
 NAtoms=   29 NActive=   29 NUniq=   29 SFac= 1.00D+00 NAtFMM=   60 NAOKFM=F Big=F
 Integral buffers will be    131072 words long.
 Raffenetti 2 integral format.
 Two-electron integral symmetry is turned on.
 One-electron integrals computed using PRISM.
 NBasis=   201 RedAO= T EigKep=  2.49D-03  NBF=   201
 NBsUse=   201 1.00D-06 EigRej= -1.00D+00 NBFU=   201
 ExpMin= 1.61D-01 ExpMax= 5.48D+03 ExpMxC= 8.25D+02 IAcc=3 IRadAn=         5 AccDes= 0.00D+00
 Harris functional with IExCor=  402 and IRadAn=       5 diagonalized for initial guess.
 HarFok:  IExCor=  402 AccDes= 0.00D+00 IRadAn=         5 IDoV= 1 UseB2=F ITyADJ=14
 ICtDFT=  3500011 ScaDFX=  1.000000  1.000000  1.000000  1.000000
 FoFCou: FMM=F IPFlag=           0 FMFlag=      100000 FMFlg1=           0
         NFxFlg=           0 DoJE=T BraDBF=F KetDBF=T FulRan=T
         wScrn=  0.000000 ICntrl=       500 IOpCl=  0 I1Cent=   200000004 NGrid=           0
         NMat0=    1 NMatS0=      1 NMatT0=    0 NMatD0=    1 NMtDS0=    0 NMtDT0=    0
 Petite list used in FoFCou.
 Requested convergence on RMS density matrix=1.00D-08 within 128 cycles.
 Requested convergence on MAX density matrix=1.00D-06.
 Requested convergence on             energy=1.00D-06.
 No special actions if energy rises.
 Integral accuracy reduced to 1.0D-05 until final iterations.
 Initial convergence to 1.0D-05 achieved.  Increase integral accuracy.
 SCF Done:  E(RB3LYP) =  -467.146062806     A.U. after   13 cycles
            NFock= 13  Conv=0.45D-08     -V/T= 2.0099
 DoSCS=F DFT=T ScalE2(SS,OS)=  1.000000  1.000000
 Range of M.O.s used for correlation:     1   201
 NBasis=   201 NAE=    43 NBE=    43 NFC=     0 NFV=     0
 NROrb=    201 NOA=    43 NOB=    43 NVA=   158 NVB=   158
 Symmetrizing basis deriv contribution to polar:
 IMax=3 JMax=2 DiffMx= 0.00D+00
 G2DrvN: will do    30 centers at a time, making    1 passes.
 Calling FoFCou, ICntrl=  3107 FMM=F I1Cent=   0 AccDes= 0.00D+00.
 End of G2Drv F.D. properties file   721 does not exist.
 End of G2Drv F.D. properties file   722 does not exist.
 End of G2Drv F.D. properties file   788 does not exist.
          IDoAtm=11111111111111111111111111111
          Differentiating once with respect to electric field.
                with respect to dipole field.
          Differentiating once with respect to nuclear coordinates.
 Keep R1 ints in memory in canonical form, NReq=214321589.
          There are    90 degrees of freedom in the 1st order CPHF.  IDoFFX=6 NUNeed=     3.
     87 vectors produced by pass  0 Test12= 7.55D-15 1.11D-09 XBig12= 6.89D+01 2.28D+00.
 AX will form    87 AO Fock derivatives at one time.
     87 vectors produced by pass  1 Test12= 7.55D-15 1.11D-09 XBig12= 6.56D+00 6.87D-01.
     87 vectors produced by pass  2 Test12= 7.55D-15 1.11D-09 XBig12= 3.01D-02 2.63D-02.
     87 vectors produced by pass  3 Test12= 7.55D-15 1.11D-09 XBig12= 6.95D-05 1.00D-03.
     87 vectors produced by pass  4 Test12= 7.55D-15 1.11D-09 XBig12= 7.28D-08 2.65D-05.
     38 vectors produced by pass  5 Test12= 7.55D-15 1.11D-09 XBig12= 4.55D-11 6.18D-07.
      3 vectors produced by pass  6 Test12= 7.55D-15 1.11D-09 XBig12= 2.50D-14 1.71D-08.
 InvSVY:  IOpt=1 It=  1 EMax= 8.88D-15
 Solved reduced A of dimension   476 with    90 vectors.
 Isotropic polarizability for W=    0.000000      104.53 Bohr**3.
 End of Minotr F.D. properties file   721 does not exist.
 End of Minotr F.D. properties file   722 does not exist.
 End of Minotr F.D. properties file   788 does not exist.

 **********************************************************************

            Population analysis using the SCF density.

 **********************************************************************

 Orbital symmetries:
       Occupied  (A) (A) (A) (A) (A) (A) (A) (A) (A) (A) (A) (A)
                 (A) (A) (A) (A) (A) (A) (A) (A) (A) (A) (A) (A)
                 (A) (A) (A) (A) (A) (A) (A) (A) (A) (A) (A) (A)
                 (A) (A) (A) (A) (A) (A) (A)
       Virtual   (A) (A) (A) (A) (A) (A) (A) (A) (A) (A) (A) (A)
                 (A) (A) (A) (A) (A) (A) (A) (A) (A) (A) (A) (A)
                 (A) (A) (A) (A) (A) (A) (A) (A) (A) (A) (A) (A)
                 (A) (A) (A) (A) (A) (A) (A) (A) (A) (A) (A) (A)
                 (A) (A) (A) (A) (A) (A) (A) (A) (A) (A) (A) (A)
                 (A) (A) (A) (A) (A) (A) (A) (A) (A) (A) (A) (A)
                 (A) (A) (A) (A) (A) (A) (A) (A) (A) (A) (A) (A)
                 (A) (A) (A) (A) (A) (A) (A) (A) (A) (A) (A) (A)
                 (A) (A) (A) (A) (A) (A) (A) (A) (A) (A) (A) (A)
                 (A) (A) (A) (A) (A) (A) (A) (A) (A) (A) (A) (A)
                 (A) (A) (A) (A) (A) (A) (A) (A) (A) (A) (A) (A)
                 (A) (A) (A) (A) (A) (A) (A) (A) (A) (A) (A) (A)
                 (A) (A) (A) (A) (A) (A) (A) (A) (A) (A) (A) (A)
                 (A) (A)
 The electronic state is 1-A.
 Alpha  occ. eigenvalues --  -19.13428 -10.26708 -10.19436 -10.19400 -10.19210
 Alpha  occ. eigenvalues --  -10.19044 -10.18994 -10.17495 -10.17311 -10.16965
 Alpha  occ. eigenvalues --  -10.16444  -1.03252  -0.83475  -0.79295  -0.75913
 Alpha  occ. eigenvalues --   -0.73066  -0.69494  -0.63914  -0.60608  -0.58939
 Alpha  occ. eigenvalues --   -0.55776  -0.52685  -0.47657  -0.46971  -0.44747
 Alpha  occ. eigenvalues --   -0.44219  -0.43555  -0.42696  -0.41418  -0.40052
 Alpha  occ. eigenvalues --   -0.39398  -0.37934  -0.37452  -0.35987  -0.35103
 Alpha  occ. eigenvalues --   -0.34646  -0.33564  -0.33185  -0.32412  -0.31485
 Alpha  occ. eigenvalues --   -0.31276  -0.30027  -0.23457
 Alpha virt. eigenvalues --   -0.01260   0.09104   0.09580   0.10478   0.12129
 Alpha virt. eigenvalues --    0.13206   0.13931   0.14191   0.15425   0.16059
 Alpha virt. eigenvalues --    0.16327   0.16900   0.17290   0.17667   0.18396
 Alpha virt. eigenvalues --    0.18844   0.19261   0.20496   0.20568   0.21626
 Alpha virt. eigenvalues --    0.22643   0.23878   0.25334   0.26230   0.26986
 Alpha virt. eigenvalues --    0.27366   0.28932   0.30421   0.33049   0.37378
 Alpha virt. eigenvalues --    0.49738   0.50624   0.51454   0.52669   0.53890
 Alpha virt. eigenvalues --    0.54049   0.55693   0.56563   0.58238   0.59560
 Alpha virt. eigenvalues --    0.60930   0.62324   0.64179   0.65944   0.66498
 Alpha virt. eigenvalues --    0.67226   0.68762   0.69552   0.70770   0.73127
 Alpha virt. eigenvalues --    0.75161   0.76547   0.79185   0.80038   0.82126
 Alpha virt. eigenvalues --    0.83772   0.84990   0.85295   0.86022   0.87216
 Alpha virt. eigenvalues --    0.87507   0.88822   0.89881   0.90252   0.91697
 Alpha virt. eigenvalues --    0.92283   0.92934   0.93194   0.93741   0.94709
 Alpha virt. eigenvalues --    0.95232   0.96117   0.97280   0.97991   1.00566
 Alpha virt. eigenvalues --    1.02398   1.04371   1.09323   1.10650   1.15185
 Alpha virt. eigenvalues --    1.15947   1.18877   1.20263   1.25677   1.32630
 Alpha virt. eigenvalues --    1.35990   1.40432   1.45902   1.46269   1.49197
 Alpha virt. eigenvalues --    1.51032   1.54711   1.59558   1.63993   1.65471
 Alpha virt. eigenvalues --    1.68334   1.69191   1.71174   1.76255   1.77365
 Alpha virt. eigenvalues --    1.80146   1.80784   1.81580   1.86964   1.88275
 Alpha virt. eigenvalues --    1.89108   1.91070   1.93572   1.94118   1.95299
 Alpha virt. eigenvalues --    1.97222   1.98362   1.99282   2.00570   2.01648
 Alpha virt. eigenvalues --    2.04609   2.06265   2.08157   2.09582   2.14392
 Alpha virt. eigenvalues --    2.15502   2.19632   2.22715   2.27317   2.30738
 Alpha virt. eigenvalues --    2.33390   2.33926   2.34643   2.37688   2.39740
 Alpha virt. eigenvalues --    2.40177   2.42087   2.42892   2.47021   2.50309
 Alpha virt. eigenvalues --    2.58053   2.59584   2.61299   2.62015   2.64354
 Alpha virt. eigenvalues --    2.68342   2.73113   2.75886   2.79557   2.87840
 Alpha virt. eigenvalues --    2.99432   3.03895   4.02182   4.11438   4.16320
 Alpha virt. eigenvalues --    4.25134   4.26051   4.33813   4.44584   4.52122
 Alpha virt. eigenvalues --    4.54229   4.57979   4.65315
          Condensed to atoms (all electrons):
               1          2          3          4          5          6
     1  O    8.013521   0.575059  -0.090728   0.004320  -0.005841   0.000064
     2  C    0.575059   4.529911   0.291875  -0.029374  -0.002230   0.000060
     3  C   -0.090728   0.291875   5.263673   0.351377  -0.025548   0.003233
     4  C    0.004320  -0.029374   0.351377   5.016824   0.375901  -0.039399
     5  C   -0.005841  -0.002230  -0.025548   0.375901   5.008838   0.377625
     6  C    0.000064   0.000060   0.003233  -0.039399   0.377625   4.955212
     7  C    0.000006  -0.000025   0.000188  -0.004442  -0.046337   0.379456
     8  C   -0.000028  -0.024261   0.353329  -0.037110   0.003245  -0.000100
     9  C    0.000140  -0.013207  -0.035859   0.003579  -0.000122   0.000001
    10  C    0.000579  -0.027375  -0.004275   0.000042   0.000003   0.000000
    11  C   -0.073926   0.343558  -0.129821   0.005803  -0.000220   0.000001
    12  H    0.001881  -0.037341   0.350030  -0.043025  -0.004719   0.000016
    13  H    0.000326   0.004839  -0.040468   0.365195  -0.042935  -0.003164
    14  H    0.008601  -0.008050  -0.038270   0.368577  -0.033679  -0.003960
    15  H    0.000195  -0.000344  -0.005519  -0.044710   0.366106  -0.033931
    16  H    0.009318   0.004218  -0.007302  -0.036557   0.370777  -0.034371
    17  H   -0.000001  -0.000000  -0.000114   0.004635  -0.033732   0.373613
    18  H   -0.000003  -0.000001  -0.000011  -0.006603  -0.040305   0.374074
    19  H   -0.000022  -0.000005  -0.000042   0.003193  -0.005053  -0.034628
    20  H    0.000024   0.000001  -0.000026  -0.000602  -0.003948  -0.035391
    21  H    0.000000   0.000000  -0.000002   0.000086   0.004443  -0.028900
    22  H    0.000670  -0.004930  -0.042945  -0.002964   0.000031   0.000002
    23  H   -0.000072   0.003487  -0.032572  -0.003966  -0.000003  -0.000007
    24  H    0.000001   0.000309   0.004180  -0.000121   0.000001  -0.000000
    25  H   -0.000007  -0.001895  -0.004477   0.000047   0.000001   0.000000
    26  H   -0.000064   0.003479  -0.000237   0.000008  -0.000000   0.000000
    27  H    0.000622  -0.003101   0.000051  -0.000028   0.000000  -0.000000
    28  H    0.005498  -0.023733   0.006585  -0.000147   0.000002  -0.000000
    29  H    0.001629  -0.030773   0.003452  -0.000103   0.000023  -0.000000
               7          8          9         10         11         12
     1  O    0.000006  -0.000028   0.000140   0.000579  -0.073926   0.001881
     2  C   -0.000025  -0.024261  -0.013207  -0.027375   0.343558  -0.037341
     3  C    0.000188   0.353329  -0.035859  -0.004275  -0.129821   0.350030
     4  C   -0.004442  -0.037110   0.003579   0.000042   0.005803  -0.043025
     5  C   -0.046337   0.003245  -0.000122   0.000003  -0.000220  -0.004719
     6  C    0.379456  -0.000100   0.000001   0.000000   0.000001   0.000016
     7  C    5.062956   0.000002   0.000000  -0.000000  -0.000000   0.000004
     8  C    0.000002   5.046577   0.366587  -0.044957  -0.007571  -0.042776
     9  C    0.000000   0.366587   5.011649   0.379477  -0.046301  -0.002292
    10  C   -0.000000  -0.044957   0.379477   5.013835   0.344276  -0.001737
    11  C   -0.000000  -0.007571  -0.046301   0.344276   5.278456   0.002189
    12  H    0.000004  -0.042776  -0.002292  -0.001737   0.002189   0.624733
    13  H   -0.000607  -0.004367   0.000197  -0.000005  -0.000136  -0.001650
    14  H    0.002944  -0.002808  -0.000046  -0.000060   0.000510   0.006094
    15  H    0.005119   0.000079  -0.000001  -0.000000   0.000010   0.007006
    16  H   -0.005953   0.000108   0.000003  -0.000002   0.000179  -0.000425
    17  H   -0.039567   0.000001  -0.000000  -0.000000  -0.000000  -0.000010
    18  H   -0.041264  -0.000004   0.000000  -0.000000  -0.000000   0.000008
    19  H    0.378668   0.000005  -0.000000   0.000000  -0.000000  -0.000002
    20  H    0.378948   0.000000  -0.000000  -0.000000   0.000000   0.000001
    21  H    0.371706  -0.000000   0.000000  -0.000000   0.000000   0.000000
    22  H   -0.000001   0.370722  -0.039026  -0.005176   0.000228   0.006472
    23  H    0.000000   0.367862  -0.029950   0.004797  -0.000273  -0.006358
    24  H    0.000000  -0.029995   0.366369  -0.031660   0.004691  -0.000010
    25  H   -0.000000  -0.041018   0.373480  -0.042323  -0.003126   0.005196
    26  H    0.000000   0.004799  -0.030586   0.369283  -0.029540  -0.000025
    27  H   -0.000000  -0.004588  -0.039414   0.376209  -0.043029   0.000113
    28  H   -0.000000  -0.000080   0.004210  -0.025118   0.342786  -0.000148
    29  H   -0.000000  -0.001007  -0.003391  -0.035644   0.348997   0.001835
              13         14         15         16         17         18
     1  O    0.000326   0.008601   0.000195   0.009318  -0.000001  -0.000003
     2  C    0.004839  -0.008050  -0.000344   0.004218  -0.000000  -0.000001
     3  C   -0.040468  -0.038270  -0.005519  -0.007302  -0.000114  -0.000011
     4  C    0.365195   0.368577  -0.044710  -0.036557   0.004635  -0.006603
     5  C   -0.042935  -0.033679   0.366106   0.370777  -0.033732  -0.040305
     6  C   -0.003164  -0.003960  -0.033931  -0.034371   0.373613   0.374074
     7  C   -0.000607   0.002944   0.005119  -0.005953  -0.039567  -0.041264
     8  C   -0.004367  -0.002808   0.000079   0.000108   0.000001  -0.000004
     9  C    0.000197  -0.000046  -0.000001   0.000003  -0.000000   0.000000
    10  C   -0.000005  -0.000060  -0.000000  -0.000002  -0.000000  -0.000000
    11  C   -0.000136   0.000510   0.000010   0.000179  -0.000000  -0.000000
    12  H   -0.001650   0.006094   0.007006  -0.000425  -0.000010   0.000008
    13  H    0.627711  -0.038143  -0.004534   0.005727   0.000018   0.005872
    14  H   -0.038143   0.581943   0.005766  -0.005261  -0.000040  -0.000216
    15  H   -0.004534   0.005766   0.632117  -0.036702  -0.004092  -0.003015
    16  H    0.005727  -0.005261  -0.036702   0.572848  -0.002706   0.005466
    17  H    0.000018  -0.000040  -0.004092  -0.002706   0.614091  -0.038827
    18  H    0.005872  -0.000216  -0.003015   0.005466  -0.038827   0.622120
    19  H    0.000364   0.001990  -0.000036  -0.000125   0.005194  -0.004505
    20  H    0.000081   0.000321   0.000016   0.004969  -0.003949   0.005311
    21  H   -0.000028  -0.000090  -0.000166  -0.000004  -0.003661  -0.002459
    22  H   -0.000183   0.004065   0.000009  -0.000001  -0.000000   0.000000
    23  H    0.005118  -0.000439   0.000002  -0.000006   0.000000  -0.000001
    24  H   -0.000007   0.000003   0.000000   0.000000   0.000000  -0.000000
    25  H   -0.000004   0.000003  -0.000003  -0.000000   0.000000   0.000000
    26  H   -0.000000   0.000000  -0.000000   0.000000  -0.000000   0.000000
    27  H   -0.000000  -0.000010  -0.000000  -0.000000   0.000000   0.000000
    28  H    0.000002  -0.000007   0.000000   0.000001   0.000000   0.000000
    29  H   -0.000001  -0.000007  -0.000012  -0.000035   0.000000   0.000000
              19         20         21         22         23         24
     1  O   -0.000022   0.000024   0.000000   0.000670  -0.000072   0.000001
     2  C   -0.000005   0.000001   0.000000  -0.004930   0.003487   0.000309
     3  C   -0.000042  -0.000026  -0.000002  -0.042945  -0.032572   0.004180
     4  C    0.003193  -0.000602   0.000086  -0.002964  -0.003966  -0.000121
     5  C   -0.005053  -0.003948   0.004443   0.000031  -0.000003   0.000001
     6  C   -0.034628  -0.035391  -0.028900   0.000002  -0.000007  -0.000000
     7  C    0.378668   0.378948   0.371706  -0.000001   0.000000   0.000000
     8  C    0.000005   0.000000  -0.000000   0.370722   0.367862  -0.029995
     9  C   -0.000000  -0.000000   0.000000  -0.039026  -0.029950   0.366369
    10  C    0.000000  -0.000000  -0.000000  -0.005176   0.004797  -0.031660
    11  C   -0.000000   0.000000   0.000000   0.000228  -0.000273   0.004691
    12  H   -0.000002   0.000001   0.000000   0.006472  -0.006358  -0.000010
    13  H    0.000364   0.000081  -0.000028  -0.000183   0.005118  -0.000007
    14  H    0.001990   0.000321  -0.000090   0.004065  -0.000439   0.000003
    15  H   -0.000036   0.000016  -0.000166   0.000009   0.000002   0.000000
    16  H   -0.000125   0.004969  -0.000004  -0.000001  -0.000006   0.000000
    17  H    0.005194  -0.003949  -0.003661  -0.000000   0.000000   0.000000
    18  H   -0.004505   0.005311  -0.002459   0.000000  -0.000001  -0.000000
    19  H    0.574195  -0.032161  -0.031795  -0.000002   0.000001   0.000000
    20  H   -0.032161   0.568455  -0.031105   0.000000  -0.000000   0.000000
    21  H   -0.031795  -0.031105   0.584126   0.000000  -0.000000  -0.000000
    22  H   -0.000002   0.000000   0.000000   0.601629  -0.036713  -0.003947
    23  H    0.000001  -0.000000  -0.000000  -0.036713   0.593741  -0.002340
    24  H    0.000000   0.000000  -0.000000  -0.003947  -0.002340   0.595004
    25  H   -0.000000   0.000000   0.000000   0.005777  -0.004106  -0.036127
    26  H   -0.000000   0.000000  -0.000000  -0.000021  -0.000181  -0.002074
    27  H    0.000000  -0.000000  -0.000000   0.004466  -0.000009  -0.004348
    28  H    0.000000  -0.000000  -0.000000  -0.000043   0.000017  -0.000143
    29  H    0.000000   0.000000  -0.000000   0.000111  -0.000010  -0.000043
              25         26         27         28         29
     1  O   -0.000007  -0.000064   0.000622   0.005498   0.001629
     2  C   -0.001895   0.003479  -0.003101  -0.023733  -0.030773
     3  C   -0.004477  -0.000237   0.000051   0.006585   0.003452
     4  C    0.000047   0.000008  -0.000028  -0.000147  -0.000103
     5  C    0.000001  -0.000000   0.000000   0.000002   0.000023
     6  C    0.000000   0.000000  -0.000000  -0.000000  -0.000000
     7  C   -0.000000   0.000000  -0.000000  -0.000000  -0.000000
     8  C   -0.041018   0.004799  -0.004588  -0.000080  -0.001007
     9  C    0.373480  -0.030586  -0.039414   0.004210  -0.003391
    10  C   -0.042323   0.369283   0.376209  -0.025118  -0.035644
    11  C   -0.003126  -0.029540  -0.043029   0.342786   0.348997
    12  H    0.005196  -0.000025   0.000113  -0.000148   0.001835
    13  H   -0.000004  -0.000000  -0.000000   0.000002  -0.000001
    14  H    0.000003   0.000000  -0.000010  -0.000007  -0.000007
    15  H   -0.000003  -0.000000  -0.000000   0.000000  -0.000012
    16  H   -0.000000   0.000000  -0.000000   0.000001  -0.000035
    17  H    0.000000  -0.000000   0.000000   0.000000   0.000000
    18  H    0.000000   0.000000   0.000000   0.000000   0.000000
    19  H   -0.000000  -0.000000   0.000000   0.000000   0.000000
    20  H    0.000000   0.000000  -0.000000  -0.000000   0.000000
    21  H    0.000000  -0.000000  -0.000000  -0.000000  -0.000000
    22  H    0.005777  -0.000021   0.004466  -0.000043   0.000111
    23  H   -0.004106  -0.000181  -0.000009   0.000017  -0.000010
    24  H   -0.036127  -0.002074  -0.004348  -0.000143  -0.000043
    25  H    0.609762  -0.004313   0.005802  -0.000038   0.004555
    26  H   -0.004313   0.591499  -0.036531  -0.002577  -0.006277
    27  H    0.005802  -0.036531   0.595078  -0.003301   0.005804
    28  H   -0.000038  -0.002577  -0.003301   0.561991  -0.027303
    29  H    0.004555  -0.006277   0.005804  -0.027303   0.588009
 Mulliken charges:
               1
     1  O   -0.451761
     2  C    0.449849
     3  C   -0.169753
     4  C   -0.250435
     5  C   -0.262323
     6  C   -0.249506
     7  C   -0.441800
     8  C   -0.272646
     9  C   -0.265496
    10  C   -0.270170
    11  C   -0.337741
    12  H    0.134941
    13  H    0.120784
    14  H    0.150268
    15  H    0.116643
    16  H    0.155834
    17  H    0.129148
    18  H    0.124364
    19  H    0.144766
    20  H    0.149056
    21  H    0.137850
    22  H    0.141768
    23  H    0.141982
    24  H    0.140256
    25  H    0.132815
    26  H    0.143358
    27  H    0.146212
    28  H    0.161546
    29  H    0.150191
 Sum of Mulliken charges =  -0.00000
 Mulliken charges with hydrogens summed into heavy atoms:
               1
     1  O   -0.451761
     2  C    0.449849
     3  C   -0.034812
     4  C    0.020617
     5  C    0.010154
     6  C    0.004005
     7  C   -0.010129
     8  C    0.011104
     9  C    0.007575
    10  C    0.019400
    11  C   -0.026003
 APT charges:
               1
     1  O   -0.630437
     2  C    0.691966
     3  C   -0.042404
     4  C    0.081121
     5  C    0.100527
     6  C    0.162474
     7  C    0.066670
     8  C    0.123745
     9  C    0.106064
    10  C    0.148138
    11  C   -0.062494
    12  H   -0.037434
    13  H   -0.054801
    14  H   -0.014982
    15  H   -0.067923
    16  H   -0.012742
    17  H   -0.076441
    18  H   -0.064251
    19  H   -0.021415
    20  H   -0.019776
    21  H   -0.041576
    22  H   -0.038453
    23  H   -0.049163
    24  H   -0.058274
    25  H   -0.049298
    26  H   -0.054525
    27  H   -0.040482
    28  H   -0.029261
    29  H   -0.014571
 Sum of APT charges =  -0.00000
 APT charges with hydrogens summed into heavy atoms:
               1
     1  O   -0.630437
     2  C    0.691966
     3  C   -0.079838
     4  C    0.011337
     5  C    0.019862
     6  C    0.021782
     7  C   -0.016097
     8  C    0.036128
     9  C   -0.001508
    10  C    0.053132
    11  C   -0.106325
 Electronic spatial extent (au):  <R**2>=           2520.4473
 Charge=             -0.0000 electrons
 Dipole moment (field-independent basis, Debye):
    X=             -1.7832    Y=             -1.9743    Z=              0.9135  Tot=              2.8129
 Quadrupole moment (field-independent basis, Debye-Ang):
   XX=            -65.8161   YY=            -73.5197   ZZ=            -68.8840
   XY=             -0.6081   XZ=             -0.0830   YZ=              1.9024
 Traceless Quadrupole moment (field-independent basis, Debye-Ang):
   XX=              3.5905   YY=             -4.1131   ZZ=              0.5226
   XY=             -0.6081   XZ=             -0.0830   YZ=              1.9024
 Octapole moment (field-independent basis, Debye-Ang**2):
  XXX=            -13.9908  YYY=             -2.9429  ZZZ=             -1.2513  XYY=             -2.6986
  XXY=              6.0147  XXZ=              0.3155  XZZ=             -3.7880  YZZ=              1.8709
  YYZ=              2.9676  XYZ=             -0.2482
 Hexadecapole moment (field-independent basis, Debye-Ang**3):
 XXXX=          -2649.3377 YYYY=           -531.1119 ZZZZ=           -240.6319 XXXY=             -4.2583
 XXXZ=              3.5149 YYYX=             -2.1308 YYYZ=              3.0522 ZZZX=              1.3448
 ZZZY=             -2.4093 XXYY=           -526.3767 XXZZ=           -487.8618 YYZZ=           -129.6650
 XXYZ=              4.2267 YYXZ=              1.1356 ZZXY=             -0.4387
 N-N= 6.395543785410D+02 E-N=-2.362126043816D+03  KE= 4.625774052117D+02
  Exact polarizability: 124.865   2.245  99.616  -1.708  -1.037  89.112
 Approx polarizability: 146.406   7.340 148.026  -4.951  -6.432 137.703
 Calling FoFJK, ICntrl=    100127 FMM=F ISym2X=0 I1Cent= 0 IOpClX= 0 NMat=1 NMatS=1 NMatT=0.
 Full mass-weighted force constant matrix:
 Low frequencies ---   -7.2772   -3.7133    0.0005    0.0010    0.0010    6.3173
 Low frequencies ---   38.5298   62.8180   79.3550
 Diagonal vibrational polarizability:
       10.3980099       7.7768477      12.1229795
 Harmonic frequencies (cm**-1), IR intensities (KM/Mole), Raman scattering
 activities (A**4/AMU), depolarization ratios for plane and unpolarized
 incident light, reduced masses (AMU), force constants (mDyne/A),
 and normal coordinates:
                      1                      2                      3
                      A                      A                      A
 Frequencies --     38.4781                62.8095                79.3527
 Red. masses --      2.8965                 3.5985                 2.7706
 Frc consts  --      0.0025                 0.0084                 0.0103
 IR Inten    --      0.3731                 1.1401                 0.5236
  Atom  AN      X      Y      Z        X      Y      Z        X      Y      Z
     1   8     0.08  -0.08  -0.07     0.09   0.01   0.22     0.01  -0.11  -0.12
     2   6     0.05  -0.03  -0.04     0.02  -0.01   0.09     0.04  -0.06   0.02
     3   6    -0.01  -0.04   0.02    -0.01  -0.01   0.10     0.00  -0.07   0.01
     4   6    -0.02  -0.09   0.03    -0.01  -0.04   0.12     0.01  -0.09   0.07
     5   6    -0.01  -0.15   0.05     0.03   0.03   0.03    -0.04   0.05   0.03
     6   6    -0.00  -0.01  -0.06     0.01   0.06  -0.07    -0.01   0.14   0.06
     7   6    -0.08   0.27   0.04    -0.15  -0.03  -0.17    -0.09  -0.01  -0.04
     8   6    -0.05  -0.03   0.06     0.02  -0.03   0.08    -0.01   0.02  -0.10
     9   6    -0.04   0.04   0.05    -0.01   0.01  -0.08    -0.01   0.04  -0.10
    10   6     0.02   0.05  -0.02     0.04   0.01  -0.19     0.03   0.09   0.06
    11   6     0.05   0.04  -0.06    -0.03   0.00  -0.09     0.09  -0.01   0.14
    12   1    -0.02   0.01   0.03    -0.03   0.00   0.10    -0.06  -0.12  -0.01
    13   1    -0.05  -0.10   0.01    -0.01  -0.04   0.18     0.04  -0.09   0.19
    14   1     0.00  -0.08   0.04    -0.03  -0.11   0.09     0.03  -0.20   0.03
    15   1     0.06  -0.28   0.02     0.11   0.05   0.06    -0.02   0.12   0.06
    16   1    -0.07  -0.15   0.18    -0.01   0.02   0.01    -0.11   0.04  -0.06
    17   1     0.01  -0.14  -0.01     0.07   0.17  -0.17    -0.04   0.33  -0.01
    18   1     0.05  -0.01  -0.27     0.06   0.07   0.01     0.10   0.16   0.22
    19   1    -0.10   0.42  -0.03    -0.18  -0.16  -0.09    -0.03  -0.23   0.03
    20   1    -0.13   0.27   0.26    -0.24  -0.05  -0.27    -0.25  -0.04  -0.22
    21   1    -0.08   0.34  -0.04    -0.14   0.04  -0.24    -0.06   0.12  -0.00
    22   1    -0.04  -0.09   0.05     0.13  -0.09   0.08     0.01   0.12  -0.08
    23   1    -0.09  -0.04   0.11    -0.01  -0.03   0.16    -0.06  -0.01  -0.19
    24   1    -0.06   0.04   0.08     0.04  -0.00  -0.13    -0.03   0.13  -0.19
    25   1    -0.05   0.10   0.06    -0.14   0.06  -0.09    -0.04  -0.07  -0.13
    26   1     0.02   0.11  -0.03    -0.00   0.04  -0.34     0.05   0.09   0.10
    27   1     0.03   0.00  -0.03     0.20  -0.03  -0.20     0.02   0.20   0.08
    28   1     0.10   0.04  -0.10     0.01   0.00  -0.12     0.11   0.02   0.24
    29   1     0.04   0.10  -0.05    -0.16   0.01  -0.10     0.12  -0.13   0.13
                      4                      5                      6
                      A                      A                      A
 Frequencies --    127.7438               131.5980               175.6451
 Red. masses --      2.3729                 2.7384                 1.7752
 Frc consts  --      0.0228                 0.0279                 0.0323
 IR Inten    --      1.1027                 1.0031                 0.1119
  Atom  AN      X      Y      Z        X      Y      Z        X      Y      Z
     1   8     0.12   0.04   0.11     0.08  -0.05   0.12     0.04   0.00   0.01
     2   6     0.04   0.00  -0.06     0.02  -0.05   0.02     0.01   0.01  -0.02
     3   6     0.00  -0.02  -0.11    -0.03  -0.08  -0.02    -0.02   0.01   0.02
     4   6     0.01  -0.01  -0.08    -0.03  -0.10  -0.03     0.00  -0.04   0.13
     5   6    -0.06  -0.04   0.01    -0.05   0.13  -0.16     0.02   0.05   0.04
     6   6    -0.02   0.08   0.07    -0.03   0.07  -0.01    -0.01  -0.04  -0.03
     7   6    -0.08  -0.02   0.01     0.17   0.06   0.05    -0.04   0.01  -0.02
     8   6    -0.03  -0.00  -0.07    -0.08  -0.05   0.01     0.02   0.07  -0.11
     9   6     0.02  -0.02   0.10    -0.07   0.02   0.03     0.04  -0.04  -0.01
    10   6    -0.03  -0.04   0.08    -0.01   0.03  -0.01    -0.05  -0.05   0.08
    11   6     0.03   0.03  -0.11     0.02   0.00  -0.02    -0.01   0.02  -0.07
    12   1     0.01  -0.02  -0.11    -0.01  -0.07  -0.02    -0.12  -0.01  -0.00
    13   1     0.01  -0.01  -0.13    -0.00  -0.11   0.18    -0.02  -0.05   0.29
    14   1     0.05   0.04  -0.05    -0.07  -0.30  -0.11     0.04  -0.20   0.07
    15   1    -0.09  -0.13  -0.02    -0.08   0.36  -0.09     0.06   0.16   0.08
    16   1    -0.12  -0.05   0.08    -0.06   0.12  -0.42     0.05   0.06  -0.06
    17   1    -0.09   0.25   0.04    -0.10   0.04   0.06     0.07  -0.14  -0.04
    18   1     0.11   0.10   0.20    -0.07   0.06   0.01    -0.11  -0.05  -0.11
    19   1     0.09  -0.31   0.04     0.16   0.19  -0.01    -0.26   0.26  -0.01
    20   1    -0.35  -0.07  -0.19     0.35   0.08   0.10     0.24   0.05   0.14
    21   1    -0.02   0.22   0.11     0.15  -0.11   0.12    -0.11  -0.25  -0.19
    22   1    -0.14   0.04  -0.08    -0.10  -0.08   0.01    -0.02   0.23  -0.09
    23   1     0.01  -0.01  -0.14    -0.13  -0.06   0.03     0.07   0.05  -0.27
    24   1    -0.04  -0.06   0.22    -0.11   0.03   0.05     0.04  -0.04  -0.01
    25   1     0.16   0.02   0.13    -0.07   0.06   0.03     0.13  -0.11  -0.02
    26   1     0.01  -0.04   0.20    -0.01   0.08  -0.02    -0.01  -0.10   0.24
    27   1    -0.17  -0.12   0.07     0.01   0.01  -0.01    -0.23  -0.05   0.08
    28   1     0.03   0.00  -0.22     0.07   0.01  -0.03    -0.02  -0.01  -0.18
    29   1     0.07   0.19  -0.08     0.00   0.02  -0.01     0.02   0.16  -0.05
                      7                      8                      9
                      A                      A                      A
 Frequencies --    223.4396               270.4413               285.8191
 Red. masses --      1.9026                 1.9882                 2.2462
 Frc consts  --      0.0560                 0.0857                 0.1081
 IR Inten    --      0.3526                 0.7972                 3.2096
  Atom  AN      X      Y      Z        X      Y      Z        X      Y      Z
     1   8    -0.05   0.01  -0.00    -0.01   0.12  -0.00    -0.07   0.16   0.01
     2   6    -0.04   0.01   0.01     0.03   0.07  -0.04     0.00   0.06  -0.07
     3   6    -0.02   0.02   0.05     0.01   0.05  -0.04     0.01   0.03  -0.08
     4   6    -0.00  -0.07   0.08    -0.02  -0.08   0.03     0.03  -0.15   0.01
     5   6     0.08  -0.06  -0.00    -0.05   0.04  -0.06     0.01  -0.11   0.01
     6   6     0.10  -0.01  -0.04    -0.09  -0.10  -0.02     0.07   0.09   0.04
     7   6     0.13   0.03  -0.02    -0.08   0.02   0.04     0.02  -0.01  -0.02
     8   6    -0.02   0.06  -0.02     0.05  -0.02   0.02    -0.02  -0.02   0.02
     9   6    -0.04   0.01  -0.02     0.05  -0.03  -0.00    -0.03   0.00   0.01
    10   6    -0.09  -0.00   0.01     0.08  -0.03   0.00    -0.01   0.00  -0.01
    11   6    -0.06   0.01  -0.04     0.04  -0.02   0.05    -0.00  -0.04   0.03
    12   1    -0.06   0.01   0.04    -0.02   0.11  -0.03    -0.01   0.12  -0.07
    13   1    -0.08  -0.09   0.17    -0.08  -0.10   0.27    -0.08  -0.18   0.17
    14   1     0.02  -0.18   0.04     0.04  -0.31  -0.05     0.13  -0.31  -0.03
    15   1     0.15  -0.05   0.01    -0.10   0.23  -0.00     0.05  -0.16   0.00
    16   1     0.07  -0.06  -0.00     0.02   0.05  -0.26    -0.11  -0.13   0.05
    17   1     0.06   0.03  -0.02    -0.05  -0.24   0.02    -0.00   0.28   0.01
    18   1     0.17   0.00  -0.03    -0.19  -0.12  -0.13     0.24   0.11   0.17
    19   1     0.46  -0.28  -0.08     0.15  -0.13  -0.03    -0.25   0.17   0.06
    20   1    -0.27  -0.03  -0.17    -0.40  -0.02   0.04     0.34   0.03   0.03
    21   1     0.24   0.41   0.21     0.00   0.34   0.17    -0.07  -0.33  -0.20
    22   1    -0.01   0.14  -0.01     0.06  -0.10   0.01    -0.04  -0.13   0.00
    23   1    -0.02   0.05  -0.09     0.09   0.01   0.10    -0.02   0.00   0.11
    24   1    -0.01  -0.00  -0.05     0.06  -0.02  -0.02    -0.02  -0.01   0.03
    25   1    -0.04  -0.03  -0.03     0.04  -0.04  -0.00    -0.03   0.03   0.02
    26   1    -0.07  -0.03   0.08     0.06  -0.03  -0.04    -0.01   0.02  -0.04
    27   1    -0.16   0.00   0.01     0.12  -0.02   0.00     0.03   0.01  -0.01
    28   1    -0.05   0.00  -0.09    -0.04  -0.02   0.14    -0.05  -0.02   0.16
    29   1    -0.07   0.07  -0.03     0.09  -0.12   0.04     0.06  -0.17   0.02
                     10                     11                     12
                      A                      A                      A
 Frequencies --    305.3695               363.1793               389.6780
 Red. masses --      1.8021                 2.8279                 2.5879
 Frc consts  --      0.0990                 0.2198                 0.2315
 IR Inten    --      0.3375                 1.1291                 0.2062
  Atom  AN      X      Y      Z        X      Y      Z        X      Y      Z
     1   8    -0.07  -0.03  -0.01     0.02  -0.01  -0.04     0.06   0.02  -0.00
     2   6    -0.02  -0.02   0.06     0.01   0.06   0.09    -0.00   0.03  -0.06
     3   6     0.01  -0.03  -0.00    -0.03   0.05   0.13    -0.10   0.01  -0.07
     4   6     0.01  -0.03   0.01    -0.13  -0.07  -0.05    -0.06   0.07   0.12
     5   6     0.00  -0.00  -0.00    -0.13  -0.12  -0.08    -0.06   0.02   0.15
     6   6     0.00  -0.01   0.00    -0.09   0.07  -0.03    -0.08   0.05  -0.10
     7   6    -0.01   0.00   0.00     0.06  -0.01  -0.01     0.13  -0.01  -0.08
     8   6    -0.02   0.07  -0.10     0.10   0.07   0.03    -0.05  -0.08  -0.06
     9   6     0.06   0.05   0.14     0.10  -0.06  -0.03    -0.01  -0.05   0.03
    10   6     0.06  -0.00  -0.11     0.09  -0.05   0.02     0.08  -0.02   0.00
    11   6    -0.03  -0.01   0.02    -0.01   0.08  -0.00     0.04  -0.01   0.05
    12   1    -0.02  -0.13  -0.03     0.01   0.01   0.13    -0.21   0.05  -0.07
    13   1     0.00  -0.04   0.05    -0.21  -0.08  -0.09    -0.02   0.08   0.10
    14   1     0.02  -0.07  -0.00    -0.22  -0.04  -0.05     0.04   0.10   0.14
    15   1    -0.00   0.03   0.01    -0.08  -0.24  -0.12     0.12  -0.21   0.11
    16   1    -0.00  -0.01  -0.04    -0.25  -0.14   0.04    -0.11   0.01   0.38
    17   1     0.00  -0.01   0.00    -0.22   0.21   0.01    -0.01  -0.07  -0.10
    18   1     0.00  -0.01  -0.00     0.06   0.09   0.08    -0.17   0.04  -0.16
    19   1    -0.01   0.00   0.00     0.08   0.03  -0.04     0.31  -0.05  -0.18
    20   1    -0.02   0.00   0.01     0.22   0.01  -0.06     0.21  -0.00  -0.20
    21   1    -0.01   0.01  -0.01     0.05  -0.16   0.11     0.16  -0.08   0.20
    22   1    -0.17   0.29  -0.08     0.16   0.21   0.06    -0.10  -0.13  -0.07
    23   1     0.03   0.04  -0.33     0.19   0.08  -0.07     0.00  -0.05  -0.01
    24   1    -0.03  -0.09   0.42     0.15  -0.02  -0.14    -0.10  -0.02   0.09
    25   1     0.28   0.29   0.22     0.05  -0.17  -0.07     0.05  -0.01   0.04
    26   1    -0.00   0.06  -0.34     0.07  -0.10  -0.01     0.05   0.03  -0.10
    27   1     0.31  -0.12  -0.13     0.10  -0.06   0.02     0.19  -0.04  -0.00
    28   1     0.01   0.00   0.03    -0.04   0.03  -0.19    -0.06  -0.00   0.16
    29   1    -0.14  -0.06   0.00    -0.09   0.24   0.01     0.12  -0.12   0.04
                     13                     14                     15
                      A                      A                      A
 Frequencies --    426.0644               470.9445               511.0391
 Red. masses --      2.8684                 2.4801                 2.5445
 Frc consts  --      0.3068                 0.3241                 0.3915
 IR Inten    --      0.7542                 1.8893                 9.8013
  Atom  AN      X      Y      Z        X      Y      Z        X      Y      Z
     1   8    -0.13  -0.01   0.04     0.04   0.01  -0.03     0.15  -0.11   0.01
     2   6    -0.10  -0.03   0.04    -0.01   0.08   0.03    -0.08   0.04  -0.06
     3   6    -0.03  -0.08  -0.08    -0.11   0.02  -0.02    -0.10   0.08  -0.03
     4   6     0.02  -0.03   0.02    -0.05   0.04   0.00    -0.09   0.03   0.01
     5   6     0.01  -0.00   0.02     0.09   0.00  -0.05     0.03  -0.03  -0.06
     6   6     0.01  -0.00  -0.00     0.14  -0.03   0.06     0.07  -0.02   0.03
     7   6     0.01   0.00  -0.01    -0.03   0.01   0.02    -0.01   0.01   0.01
     8   6     0.08  -0.18  -0.06    -0.10  -0.05  -0.05     0.07  -0.02  -0.02
     9   6     0.13   0.06  -0.04    -0.09  -0.14   0.01     0.11   0.05  -0.01
    10   6     0.06   0.08   0.06     0.13  -0.06   0.04    -0.06   0.01  -0.03
    11   6    -0.05   0.19   0.01     0.00   0.09   0.05    -0.11   0.01   0.07
    12   1    -0.07  -0.13  -0.10    -0.14  -0.00  -0.02    -0.16   0.11  -0.03
    13   1     0.03  -0.03   0.08    -0.08   0.04  -0.04    -0.20   0.01   0.07
    14   1     0.07  -0.09   0.00    -0.10   0.05   0.00    -0.09  -0.05  -0.02
    15   1     0.02   0.01   0.02     0.03   0.14  -0.01     0.01   0.04  -0.04
    16   1     0.00  -0.00   0.01     0.20   0.02  -0.16     0.10  -0.02  -0.09
    17   1     0.02  -0.01  -0.01     0.08   0.09   0.04    -0.01   0.12   0.03
    18   1     0.00  -0.01  -0.01     0.23  -0.02   0.12     0.19   0.00   0.10
    19   1     0.01   0.00  -0.01    -0.16   0.02   0.11    -0.09   0.02   0.06
    20   1     0.00   0.00  -0.01    -0.11  -0.00   0.10    -0.05   0.00   0.06
    21   1     0.01   0.00  -0.01    -0.04   0.09  -0.18    -0.02   0.04  -0.10
    22   1     0.17  -0.42  -0.09    -0.19   0.04  -0.04     0.15  -0.19  -0.04
    23   1    -0.02  -0.16   0.21     0.03  -0.03  -0.14     0.06   0.02   0.18
    24   1    -0.01   0.12   0.05    -0.13   0.03  -0.16     0.05  -0.07   0.21
    25   1     0.21   0.07  -0.02    -0.17  -0.29  -0.04     0.27   0.22   0.05
    26   1     0.04  -0.08   0.08     0.06   0.06  -0.23    -0.07  -0.16   0.04
    27   1     0.01   0.13   0.07     0.39  -0.13   0.02    -0.14   0.08  -0.01
    28   1     0.09   0.14  -0.31    -0.09   0.02  -0.15    -0.25   0.05   0.40
    29   1    -0.17   0.49   0.03    -0.03   0.26   0.06     0.02  -0.33   0.05
                     16                     17                     18
                      A                      A                      A
 Frequencies --    592.1279               671.5564               726.1303
 Red. masses --      2.4961                 3.1885                 2.0526
 Frc consts  --      0.5156                 0.8472                 0.6377
 IR Inten    --      0.7101                 1.0742                 6.4125
  Atom  AN      X      Y      Z        X      Y      Z        X      Y      Z
     1   8    -0.08   0.09   0.02     0.07   0.10  -0.12    -0.05  -0.05  -0.00
     2   6     0.02  -0.05  -0.07     0.16   0.18   0.22     0.05  -0.04   0.14
     3   6    -0.09  -0.07   0.13     0.02  -0.07   0.06    -0.03   0.13  -0.07
     4   6    -0.14   0.03   0.06     0.03  -0.04   0.00    -0.07   0.08  -0.02
     5   6     0.01  -0.02  -0.05    -0.00   0.00   0.01     0.01   0.02  -0.02
     6   6     0.05  -0.02   0.01    -0.01   0.01  -0.00     0.03  -0.00   0.01
     7   6     0.01   0.01   0.01    -0.00   0.00  -0.00     0.00  -0.00   0.01
     8   6     0.00  -0.06  -0.04    -0.05  -0.11  -0.08    -0.03   0.05  -0.03
     9   6     0.04   0.04  -0.01    -0.04  -0.03  -0.04    -0.02   0.00  -0.03
    10   6     0.05   0.03  -0.01    -0.09  -0.04  -0.07     0.02  -0.03  -0.01
    11   6     0.15  -0.07  -0.09    -0.04   0.03   0.03     0.11  -0.09  -0.03
    12   1    -0.22  -0.02   0.12     0.00  -0.31   0.01    -0.03  -0.03  -0.10
    13   1    -0.06   0.06  -0.26     0.12  -0.01  -0.18    -0.21   0.04   0.39
    14   1    -0.35   0.30   0.13    -0.04   0.15   0.07     0.02  -0.31  -0.15
    15   1     0.03   0.14   0.01     0.00   0.08   0.04    -0.00  -0.22  -0.10
    16   1     0.08  -0.01  -0.17    -0.02   0.00  -0.08     0.06   0.03   0.25
    17   1    -0.03   0.11   0.01     0.01  -0.02  -0.01    -0.00  -0.00   0.03
    18   1     0.16  -0.00   0.10    -0.04   0.00  -0.02     0.02  -0.00   0.01
    19   1    -0.04   0.02   0.03     0.02  -0.00  -0.01    -0.05  -0.02   0.05
    20   1    -0.04   0.00   0.06     0.01   0.00  -0.01    -0.03  -0.01   0.01
    21   1     0.00   0.05  -0.07     0.00  -0.01   0.02    -0.00   0.02  -0.06
    22   1     0.10   0.02  -0.02     0.05  -0.27  -0.09     0.03  -0.27  -0.06
    23   1    -0.04  -0.08  -0.07    -0.09  -0.09   0.12     0.02   0.14   0.32
    24   1    -0.07  -0.00   0.17    -0.17  -0.18   0.29    -0.06  -0.09   0.12
    25   1     0.18   0.17   0.04     0.19   0.23   0.05     0.10   0.12   0.01
    26   1     0.13   0.04   0.24    -0.01  -0.10   0.19     0.10   0.06   0.17
    27   1    -0.19   0.06   0.00    -0.34   0.02  -0.05    -0.13   0.02  -0.00
    28   1     0.18  -0.03   0.06    -0.16   0.01   0.05     0.22  -0.12  -0.23
    29   1     0.24  -0.19  -0.09    -0.28  -0.05  -0.00    -0.10   0.09  -0.03
                     19                     20                     21
                      A                      A                      A
 Frequencies --    758.2192               795.2809               838.4072
 Red. masses --      1.3035                 1.3249                 1.6573
 Frc consts  --      0.4415                 0.4937                 0.6864
 IR Inten    --      2.5658                 1.8479                 5.9081
  Atom  AN      X      Y      Z        X      Y      Z        X      Y      Z
     1   8     0.00   0.02  -0.00    -0.00   0.01  -0.00    -0.03  -0.04   0.00
     2   6    -0.02   0.02  -0.02    -0.01   0.02  -0.00    -0.05   0.04   0.08
     3   6    -0.01  -0.05   0.06     0.02  -0.03   0.03    -0.03   0.01  -0.07
     4   6    -0.01   0.00  -0.05     0.03   0.07   0.00     0.00  -0.01  -0.03
     5   6     0.02   0.05  -0.04     0.03   0.01  -0.04    -0.04  -0.01   0.07
     6   6     0.05   0.05   0.03    -0.05  -0.04  -0.05     0.02  -0.02   0.03
     7   6     0.00   0.00   0.03    -0.03  -0.04   0.02     0.02   0.02  -0.05
     8   6     0.00  -0.05   0.01     0.01  -0.07  -0.00    -0.03  -0.01   0.06
     9   6     0.01  -0.01   0.00    -0.01  -0.03   0.01     0.04  -0.01   0.04
    10   6     0.01   0.02  -0.01    -0.00   0.03  -0.02     0.10   0.01  -0.05
    11   6    -0.00   0.03  -0.02     0.00   0.04  -0.02     0.02   0.05  -0.07
    12   1     0.05  -0.02   0.07     0.10  -0.03   0.04     0.09  -0.07  -0.07
    13   1     0.03   0.00   0.20     0.06   0.06   0.30    -0.08  -0.03  -0.03
    14   1    -0.13  -0.24  -0.16     0.03  -0.21  -0.10     0.16   0.00   0.00
    15   1     0.02  -0.33  -0.17     0.06  -0.22  -0.12    -0.12   0.19   0.12
    16   1    -0.08   0.03   0.34     0.13   0.03   0.23    -0.01  -0.01  -0.15
    17   1     0.11  -0.33   0.17    -0.15   0.36  -0.17     0.07  -0.03  -0.01
    18   1    -0.23   0.01  -0.26     0.14  -0.01   0.34     0.04  -0.02  -0.01
    19   1    -0.15  -0.21   0.23     0.10   0.22  -0.19     0.02   0.02  -0.05
    20   1    -0.05  -0.01  -0.20    -0.03  -0.03   0.33     0.03   0.02  -0.05
    21   1    -0.03  -0.04  -0.14     0.01   0.07   0.14     0.02   0.02  -0.05
    22   1    -0.01   0.14   0.03    -0.05   0.12   0.02    -0.24   0.12   0.05
    23   1     0.00  -0.09  -0.18     0.04  -0.10  -0.20     0.08  -0.01  -0.13
    24   1    -0.03   0.02   0.01    -0.04   0.01  -0.00     0.09   0.12  -0.17
    25   1    -0.01   0.01   0.00    -0.07  -0.01   0.01    -0.22  -0.07  -0.01
    26   1     0.03  -0.02   0.06     0.02   0.02   0.06     0.23  -0.08   0.39
    27   1    -0.07   0.01  -0.01    -0.09   0.01  -0.02    -0.38  -0.06  -0.06
    28   1    -0.06   0.06   0.13    -0.02   0.07   0.12    -0.05   0.10   0.25
    29   1     0.05  -0.11  -0.03     0.02  -0.11  -0.03    -0.09  -0.35  -0.13
                     22                     23                     24
                      A                      A                      A
 Frequencies --    860.1463               881.1481               902.6956
 Red. masses --      2.4349                 2.3821                 1.5691
 Frc consts  --      1.0614                 1.0897                 0.7533
 IR Inten    --      0.1625                 0.4043                 4.1262
  Atom  AN      X      Y      Z        X      Y      Z        X      Y      Z
     1   8     0.03   0.03  -0.02    -0.01  -0.04   0.01     0.01  -0.01   0.02
     2   6     0.01   0.04  -0.01    -0.06   0.02   0.01    -0.05   0.00  -0.05
     3   6    -0.02  -0.08   0.01     0.00   0.07   0.01     0.00   0.05   0.04
     4   6    -0.00  -0.01  -0.01     0.08   0.00   0.04     0.04  -0.02  -0.05
     5   6     0.01   0.05  -0.01     0.15  -0.07  -0.09    -0.02   0.00   0.04
     6   6     0.00  -0.01  -0.01    -0.10   0.10  -0.08     0.00  -0.01   0.02
     7   6    -0.00  -0.02   0.01    -0.10  -0.01   0.14     0.01   0.00  -0.03
     8   6    -0.11   0.06   0.01    -0.03  -0.01  -0.03    -0.05  -0.03   0.04
     9   6     0.09   0.19  -0.02    -0.03   0.01  -0.01    -0.04  -0.01  -0.11
    10   6     0.12  -0.10   0.08     0.09  -0.01   0.01     0.10  -0.03  -0.01
    11   6    -0.10  -0.11  -0.04    -0.00  -0.01  -0.04    -0.01  -0.03   0.06
    12   1    -0.05  -0.14  -0.00    -0.05   0.06   0.01     0.14   0.27   0.10
    13   1     0.13   0.01   0.03    -0.02  -0.01  -0.10     0.01  -0.02  -0.01
    14   1    -0.09  -0.04  -0.03     0.09   0.10   0.08     0.10  -0.03  -0.04
    15   1     0.06  -0.14  -0.06     0.31   0.03  -0.02    -0.10   0.05   0.04
    16   1     0.00   0.04   0.18     0.13  -0.08  -0.17    -0.03   0.00  -0.04
    17   1     0.01   0.07  -0.06    -0.13  -0.01  -0.00     0.06  -0.00  -0.03
    18   1    -0.03  -0.01   0.12     0.00   0.11  -0.29    -0.02  -0.02   0.04
    19   1     0.01   0.08  -0.05     0.04  -0.20   0.15     0.04   0.06  -0.08
    20   1    -0.05  -0.02   0.16     0.15   0.01  -0.20     0.01   0.01   0.02
    21   1     0.01   0.07  -0.01    -0.12  -0.33   0.45     0.02   0.03  -0.01
    22   1    -0.08  -0.11  -0.00    -0.03  -0.06  -0.04     0.05   0.23   0.08
    23   1    -0.41   0.00   0.16    -0.01   0.01   0.04    -0.03  -0.06  -0.18
    24   1     0.09   0.35  -0.22    -0.14   0.08   0.03    -0.23  -0.16   0.30
    25   1    -0.03  -0.02  -0.08     0.00   0.04   0.00     0.13   0.43   0.02
    26   1     0.09  -0.25   0.06     0.14   0.01   0.17     0.15  -0.16   0.20
    27   1     0.10  -0.12   0.07    -0.08  -0.01   0.01    -0.09   0.30   0.05
    28   1    -0.36  -0.19  -0.14    -0.11  -0.02   0.04    -0.13  -0.12  -0.22
    29   1    -0.08  -0.03  -0.03    -0.00  -0.12  -0.05     0.01   0.23   0.09
                     25                     26                     27
                      A                      A                      A
 Frequencies --    929.5471               939.2377               972.2304
 Red. masses --      2.0170                 1.9187                 1.5377
 Frc consts  --      1.0268                 0.9973                 0.8563
 IR Inten    --      1.8794                 1.0636                 4.7706
  Atom  AN      X      Y      Z        X      Y      Z        X      Y      Z
     1   8     0.01   0.03  -0.01    -0.03  -0.03   0.02    -0.01   0.01   0.00
     2   6     0.07  -0.04  -0.02    -0.05   0.00  -0.01    -0.00  -0.00  -0.02
     3   6    -0.05  -0.05  -0.11    -0.07  -0.01   0.01    -0.01  -0.06   0.04
     4   6    -0.06  -0.00   0.03     0.05  -0.11  -0.05    -0.01   0.05  -0.06
     5   6     0.05   0.02  -0.02     0.04   0.08   0.01     0.02  -0.03   0.06
     6   6     0.00   0.03  -0.05     0.01   0.03  -0.03    -0.01  -0.02   0.03
     7   6    -0.03  -0.02   0.06    -0.01  -0.06   0.02    -0.04   0.05  -0.02
     8   6    -0.04   0.01   0.11    -0.05   0.12   0.01    -0.07   0.04   0.02
     9   6     0.09   0.00  -0.01     0.01  -0.08  -0.04     0.04  -0.00  -0.04
    10   6    -0.05  -0.03  -0.10     0.01  -0.04  -0.02    -0.04  -0.06  -0.00
    11   6     0.02   0.02   0.12     0.06   0.10  -0.01     0.05   0.07   0.01
    12   1    -0.12   0.12  -0.08    -0.14  -0.05  -0.00     0.14  -0.15   0.04
    13   1     0.01   0.01  -0.06     0.16  -0.08  -0.23    -0.04   0.03   0.21
    14   1    -0.10   0.06   0.05    -0.05   0.09   0.01     0.04  -0.20  -0.15
    15   1     0.21  -0.04  -0.01     0.19  -0.13  -0.03    -0.23   0.13   0.06
    16   1     0.07   0.02   0.07    -0.22   0.04   0.15     0.31   0.01  -0.06
    17   1    -0.02   0.03  -0.03     0.17   0.01  -0.14     0.04   0.03  -0.03
    18   1     0.01   0.03  -0.05    -0.24  -0.01   0.15     0.25   0.01  -0.13
    19   1    -0.02  -0.05   0.07     0.02   0.14  -0.09     0.13  -0.06  -0.08
    20   1    -0.01  -0.02   0.03    -0.11  -0.06   0.32     0.20   0.07  -0.25
    21   1    -0.03  -0.05   0.10     0.02   0.13   0.02    -0.05  -0.20   0.27
    22   1    -0.31   0.20   0.10     0.10  -0.15  -0.01     0.05  -0.03   0.02
    23   1     0.01  -0.03  -0.18    -0.06   0.18   0.30    -0.27   0.00   0.10
    24   1     0.34  -0.16  -0.10     0.05  -0.22   0.10     0.11  -0.12   0.03
    25   1    -0.20   0.14  -0.01     0.20  -0.02   0.00     0.17  -0.01  -0.03
    26   1    -0.03  -0.32   0.08     0.03  -0.01   0.03    -0.09  -0.14  -0.14
    27   1    -0.21   0.17  -0.06    -0.04  -0.07  -0.03     0.08  -0.09  -0.01
    28   1     0.24   0.01  -0.14     0.06   0.15   0.19     0.06   0.11   0.12
    29   1    -0.19   0.26   0.12     0.18  -0.10  -0.02     0.25  -0.00   0.02
                     28                     29                     30
                      A                      A                      A
 Frequencies --    994.5656              1036.1261              1061.4510
 Red. masses --      1.9946                 1.7148                 1.6586
 Frc consts  --      1.1624                 1.0846                 1.1010
 IR Inten    --      1.0012                 4.0390                 5.8081
  Atom  AN      X      Y      Z        X      Y      Z        X      Y      Z
     1   8     0.01   0.01  -0.01    -0.01  -0.01   0.01     0.00   0.01   0.00
     2   6     0.01   0.02   0.02     0.03  -0.04   0.01     0.04  -0.05  -0.03
     3   6    -0.04  -0.01  -0.01     0.07   0.13   0.05    -0.05   0.04   0.05
     4   6    -0.11  -0.07  -0.12    -0.03  -0.01  -0.01     0.07  -0.03  -0.02
     5   6     0.06   0.06   0.11     0.00   0.00   0.02     0.06   0.01  -0.03
     6   6     0.06   0.04  -0.02     0.02   0.04  -0.01    -0.04  -0.04   0.12
     7   6    -0.08  -0.04   0.03    -0.00  -0.03   0.01    -0.03   0.05  -0.09
     8   6     0.08  -0.03   0.00    -0.07  -0.10  -0.06    -0.01   0.00  -0.04
     9   6    -0.01   0.01   0.02     0.04   0.06  -0.00     0.01  -0.01   0.04
    10   6    -0.01   0.06   0.03    -0.05  -0.06  -0.00     0.02   0.03  -0.03
    11   6    -0.03  -0.08  -0.03     0.03   0.04   0.01    -0.03  -0.01   0.04
    12   1     0.06  -0.02  -0.01     0.16   0.34   0.10    -0.41   0.27   0.05
    13   1    -0.21  -0.08  -0.09    -0.28  -0.05  -0.06     0.22  -0.00  -0.05
    14   1    -0.15  -0.11  -0.15     0.02   0.02   0.01    -0.22  -0.03  -0.06
    15   1     0.00   0.10   0.11     0.06   0.03   0.04    -0.22  -0.12  -0.12
    16   1     0.03   0.06   0.04    -0.20  -0.03  -0.07     0.15   0.02   0.10
    17   1     0.45  -0.01  -0.30     0.15  -0.05  -0.07     0.03  -0.05   0.07
    18   1    -0.01   0.03  -0.08    -0.16   0.01   0.02    -0.07  -0.04   0.10
    19   1     0.19   0.09  -0.20     0.01   0.07  -0.05     0.16   0.06  -0.22
    20   1     0.11  -0.01   0.14    -0.05  -0.03   0.16     0.16   0.07  -0.16
    21   1    -0.03  -0.10   0.43     0.02   0.07   0.01    -0.01  -0.07   0.18
    22   1     0.10   0.09   0.02    -0.03   0.02  -0.04    -0.00  -0.07  -0.04
    23   1     0.18  -0.02  -0.09    -0.20  -0.15  -0.14     0.10   0.06   0.08
    24   1    -0.04   0.06  -0.01    -0.14   0.27  -0.06    -0.04   0.13  -0.06
    25   1    -0.03  -0.03   0.01     0.07  -0.13  -0.04    -0.01  -0.15   0.01
    26   1    -0.01   0.20  -0.03    -0.13  -0.31  -0.14     0.05  -0.03   0.09
    27   1     0.07   0.07   0.03     0.00  -0.29  -0.05    -0.14  -0.10  -0.05
    28   1    -0.07  -0.11  -0.11     0.30   0.13   0.12     0.16   0.03  -0.01
    29   1    -0.08   0.01  -0.02    -0.03  -0.06  -0.00    -0.38  -0.03   0.00
                     31                     32                     33
                      A                      A                      A
 Frequencies --   1079.0353              1085.9844              1096.5900
 Red. masses --      2.1708                 1.7871                 1.9274
 Frc consts  --      1.4892                 1.2418                 1.3656
 IR Inten    --      5.5101                 5.9095                 2.9518
  Atom  AN      X      Y      Z        X      Y      Z        X      Y      Z
     1   8     0.01  -0.01  -0.01    -0.00  -0.01  -0.00    -0.01   0.01   0.00
     2   6    -0.05   0.07   0.06    -0.05   0.05   0.04     0.03  -0.03  -0.01
     3   6    -0.06   0.06   0.02    -0.05   0.01  -0.00     0.04  -0.05  -0.06
     4   6     0.05  -0.01  -0.02     0.02  -0.02  -0.01    -0.12  -0.03  -0.04
     5   6     0.08  -0.02  -0.01     0.06  -0.01  -0.02     0.15   0.01   0.05
     6   6    -0.07   0.02   0.07    -0.04   0.01   0.07    -0.13  -0.00   0.06
     7   6     0.01   0.01  -0.06    -0.01   0.01  -0.05     0.05   0.03  -0.05
     8   6    -0.09  -0.07   0.02     0.10  -0.03  -0.01     0.02   0.03   0.02
     9   6     0.14  -0.03  -0.02    -0.06   0.10   0.02    -0.04  -0.01  -0.02
    10   6    -0.07   0.09   0.02    -0.05  -0.11  -0.02     0.03  -0.01   0.02
    11   6     0.03  -0.10  -0.05     0.08   0.00   0.01    -0.03   0.04  -0.00
    12   1    -0.01   0.02   0.02    -0.16  -0.27  -0.07     0.29   0.02  -0.02
    13   1    -0.09  -0.03  -0.05    -0.02  -0.02  -0.05    -0.25  -0.06  -0.09
    14   1     0.13  -0.00  -0.01    -0.02  -0.01  -0.01    -0.08  -0.03  -0.03
    15   1     0.12  -0.00   0.00     0.03  -0.03  -0.03     0.42   0.08   0.13
    16   1    -0.00  -0.04  -0.05     0.00  -0.02  -0.01     0.31   0.03   0.08
    17   1    -0.07  -0.06   0.11     0.01  -0.06   0.06    -0.30   0.01   0.20
    18   1    -0.28  -0.01   0.15    -0.18  -0.01   0.09    -0.24  -0.02   0.23
    19   1     0.02   0.08  -0.09     0.06   0.07  -0.12    -0.07   0.01   0.03
    20   1    -0.01   0.01   0.01     0.04   0.02  -0.01    -0.04   0.02  -0.10
    21   1     0.02   0.07  -0.07     0.01   0.02   0.03     0.03   0.07  -0.20
    22   1    -0.27   0.04   0.02    -0.08   0.01  -0.02     0.21   0.07   0.04
    23   1    -0.21  -0.14  -0.14     0.28   0.02  -0.06    -0.03   0.01   0.01
    24   1     0.38  -0.22  -0.07    -0.09   0.17  -0.04    -0.14   0.01   0.07
    25   1     0.15  -0.11  -0.03    -0.40   0.30   0.03     0.11  -0.01  -0.00
    26   1    -0.09   0.28  -0.13    -0.10  -0.31  -0.10     0.03   0.02   0.02
    27   1     0.19   0.28   0.06     0.04  -0.00   0.00    -0.02  -0.12  -0.00
    28   1    -0.02  -0.12  -0.12     0.03  -0.02  -0.03    -0.05   0.05   0.07
    29   1     0.23   0.06  -0.02     0.47   0.14   0.06    -0.14  -0.08  -0.03
                     34                     35                     36
                      A                      A                      A
 Frequencies --   1108.9320              1146.9888              1159.2150
 Red. masses --      1.7385                 1.6306                 2.4046
 Frc consts  --      1.2596                 1.2639                 1.9038
 IR Inten    --      2.2245                12.2166                12.9973
  Atom  AN      X      Y      Z        X      Y      Z        X      Y      Z
     1   8    -0.00   0.00   0.01    -0.01   0.00  -0.00     0.03   0.02   0.00
     2   6     0.01  -0.05  -0.07     0.07  -0.04   0.02    -0.10   0.04  -0.09
     3   6     0.16   0.02   0.05    -0.03   0.06   0.04    -0.02   0.01   0.13
     4   6    -0.06   0.02   0.04     0.02  -0.05  -0.07     0.03  -0.01  -0.12
     5   6     0.02  -0.01  -0.01    -0.01   0.04   0.07     0.01  -0.01   0.10
     6   6     0.01   0.02   0.04    -0.03  -0.04  -0.07    -0.06   0.01  -0.08
     7   6    -0.02  -0.01  -0.03     0.04   0.02   0.04     0.06  -0.01   0.05
     8   6    -0.04   0.03  -0.06    -0.05  -0.02   0.00     0.02   0.00  -0.09
     9   6     0.01  -0.06   0.03     0.05  -0.03  -0.02     0.01   0.02   0.10
    10   6     0.05   0.04  -0.03    -0.00   0.06   0.04    -0.01  -0.01  -0.10
    11   6    -0.06   0.03   0.01    -0.06  -0.01  -0.06     0.05  -0.05   0.11
    12   1     0.08  -0.38  -0.04    -0.13  -0.04   0.01    -0.03  -0.20   0.09
    13   1    -0.27  -0.01   0.00     0.14  -0.03  -0.05    -0.06  -0.03   0.05
    14   1    -0.21  -0.01   0.00    -0.02  -0.03  -0.06     0.08  -0.14  -0.16
    15   1    -0.03  -0.01  -0.02     0.04   0.04   0.07     0.06   0.16   0.16
    16   1    -0.10  -0.03  -0.03     0.18   0.07   0.09     0.14   0.01  -0.06
    17   1     0.13  -0.07  -0.01    -0.18   0.12  -0.02    -0.14   0.09  -0.05
    18   1    -0.14  -0.00   0.03     0.20  -0.00   0.00     0.06   0.03  -0.01
    19   1     0.07   0.07  -0.12    -0.11  -0.10   0.19    -0.16  -0.06   0.21
    20   1     0.04   0.00   0.05    -0.06  -0.00  -0.09    -0.15  -0.04   0.03
    21   1     0.01   0.02   0.10    -0.00  -0.02  -0.15     0.03   0.06  -0.25
    22   1    -0.40  -0.30  -0.13    -0.21  -0.04  -0.01     0.01  -0.19  -0.12
    23   1     0.07   0.10   0.16     0.43   0.14   0.06    -0.11  -0.00   0.10
    24   1     0.12  -0.13  -0.03    -0.19   0.15   0.03     0.15   0.08  -0.15
    25   1    -0.21   0.07   0.03    -0.03   0.07   0.00    -0.16  -0.17   0.03
    26   1     0.05  -0.15   0.08    -0.13  -0.41  -0.15     0.11   0.16   0.18
    27   1    -0.05   0.32   0.03     0.13   0.24   0.07    -0.23  -0.08  -0.11
    28   1    -0.14   0.01   0.01     0.08   0.06   0.09     0.17  -0.09  -0.21
    29   1     0.14   0.05   0.03     0.19  -0.06  -0.04    -0.15   0.20   0.11
                     37                     38                     39
                      A                      A                      A
 Frequencies --   1167.8791              1224.3526              1253.3161
 Red. masses --      1.9951                 1.4192                 1.5123
 Frc consts  --      1.6033                 1.2535                 1.3996
 IR Inten    --      7.2443                 5.8255                14.7086
  Atom  AN      X      Y      Z        X      Y      Z        X      Y      Z
     1   8    -0.01  -0.04   0.01     0.03   0.01  -0.01     0.02  -0.01  -0.01
     2   6    -0.08   0.07   0.03    -0.07   0.05  -0.03    -0.08   0.08   0.01
     3   6     0.13   0.06  -0.03    -0.02  -0.02   0.00     0.06  -0.02  -0.05
     4   6    -0.06  -0.12   0.03    -0.02  -0.01   0.03    -0.02  -0.01   0.04
     5   6    -0.02   0.11   0.01    -0.02   0.04  -0.05     0.01  -0.06   0.01
     6   6     0.01  -0.10  -0.02     0.04  -0.05   0.03    -0.03   0.09   0.01
     7   6    -0.01   0.06   0.01    -0.04   0.04  -0.01     0.03  -0.07  -0.01
     8   6     0.01  -0.03  -0.03    -0.04   0.02   0.02    -0.01   0.02   0.04
     9   6    -0.00   0.02   0.01     0.03  -0.03   0.01     0.01  -0.03  -0.02
    10   6    -0.02  -0.03  -0.02     0.00   0.04  -0.03     0.00   0.02   0.01
    11   6     0.04   0.00  -0.00    -0.01  -0.06   0.02    -0.01  -0.04  -0.01
    12   1     0.09   0.25  -0.00     0.39  -0.30  -0.01     0.05  -0.02  -0.04
    13   1     0.20  -0.06  -0.21    -0.00  -0.01  -0.04     0.33   0.05   0.04
    14   1    -0.41   0.12   0.07     0.27   0.11   0.12    -0.39  -0.03  -0.03
    15   1    -0.00  -0.12  -0.06     0.24  -0.08  -0.03    -0.30   0.06  -0.01
    16   1     0.14   0.13   0.29    -0.17   0.02   0.08     0.36  -0.01  -0.02
    17   1    -0.11   0.13  -0.03    -0.02  -0.00   0.05     0.03  -0.08   0.04
    18   1     0.30  -0.06   0.06     0.03  -0.06   0.09    -0.00   0.10  -0.24
    19   1     0.02  -0.13   0.08     0.09  -0.04  -0.06    -0.06   0.13  -0.05
    20   1     0.09   0.06  -0.24     0.11   0.05  -0.12    -0.10  -0.07   0.23
    21   1    -0.04  -0.14   0.06    -0.04  -0.09   0.11     0.06   0.15  -0.04
    22   1    -0.13  -0.07  -0.06     0.10   0.03   0.03    -0.08   0.00   0.02
    23   1    -0.22  -0.11  -0.08     0.14   0.08   0.07     0.02   0.02  -0.00
    24   1     0.12  -0.07  -0.03    -0.26   0.24   0.01    -0.21   0.12   0.05
    25   1    -0.06   0.02  -0.00     0.15  -0.18  -0.01     0.13  -0.04  -0.01
    26   1     0.04   0.19   0.04    -0.02  -0.18  -0.00    -0.02  -0.09  -0.02
    27   1    -0.01  -0.01  -0.01    -0.06   0.01  -0.04     0.02  -0.00   0.01
    28   1    -0.06  -0.03  -0.03     0.40   0.01  -0.09     0.40   0.05  -0.01
    29   1     0.17   0.05   0.02    -0.02   0.07   0.03    -0.02  -0.01  -0.01
                     40                     41                     42
                      A                      A                      A
 Frequencies --   1267.1417              1289.6567              1299.2212
 Red. masses --      1.3706                 1.2847                 1.2636
 Frc consts  --      1.2966                 1.2589                 1.2567
 IR Inten    --      0.9101                 0.2357                 0.6992
  Atom  AN      X      Y      Z        X      Y      Z        X      Y      Z
     1   8    -0.02  -0.01   0.00    -0.01  -0.01   0.01    -0.01  -0.01   0.00
     2   6     0.04  -0.01   0.04     0.02  -0.03  -0.03     0.01  -0.00   0.01
     3   6    -0.03  -0.03  -0.02    -0.00   0.02   0.02     0.03  -0.01  -0.04
     4   6    -0.03  -0.00   0.01    -0.02  -0.02   0.00     0.04   0.02   0.03
     5   6    -0.01  -0.02  -0.01    -0.02  -0.00  -0.01     0.05  -0.01   0.02
     6   6     0.01   0.03   0.02     0.01   0.03   0.02    -0.03  -0.02  -0.03
     7   6    -0.01  -0.03  -0.01    -0.01  -0.03  -0.02     0.03   0.04   0.03
     8   6    -0.02   0.02  -0.06    -0.05  -0.03   0.02    -0.02  -0.00   0.06
[...]
 52,0.00015619,-0.00006114,0.00030160,0.00001181,0.00000192,0.00000539,
 0.00000323,0.00006774,-0.00001807,-0.00001358,-0.00001436,0.00000797,0
 .00002630,0.00000676,0.00001431,0.00000113,0.00000639,0.00000085,-0.01
 105875,-0.01491449,0.00035755,0.14985630,-0.00013266,0.00031517,-0.000
 11752,0.00105781,0.00027054,-0.00008362,0.00050809,0.00045469,0.000109
 45,0.00077532,0.00066904,0.00034544,0.00002993,0.00030220,-0.00004142,
 -0.00001225,-0.00002411,-0.00005103,-0.00000168,0.00000275,-0.00000731
 ,-0.12336888,-0.21694135,0.00184123,-0.01687024,-0.02203233,0.00052788
 ,0.00571093,-0.00348950,0.00002980,0.00017467,0.00068841,0.00030131,0.
 00005150,0.00012841,-0.00043768,-0.00007610,0.00049203,0.00020529,0.00
 012049,-0.00004598,0.00004213,0.00000217,-0.00001883,-0.00003562,0.000
 11768,-0.00001471,0.00007466,-0.00001587,0.00002003,-0.00000675,0.0000
 0476,0.00001649,0.00000104,0.00000118,-0.00000665,-0.00000029,0.000007
 21,0.00000258,0.00000438,-0.00000412,0.00000403,-0.00000011,0.00085487
 ,0.00162047,0.00052729,0.13232629,0.23702308,-0.00258974,-0.00192499,0
 .00120260,-0.00103773,0.00443547,-0.00498655,-0.01935142,-0.02324112,-
 0.00397672,0.00080207,-0.00133640,0.00055638,0.00016709,-0.00012065,-0
 .00005512,0.00004443,0.00004577,0.00005425,-0.00000941,-0.00001123,-0.
 00000153,0.00425730,0.00232193,-0.04856070,0.00069213,-0.00047112,-0.0
 0084757,-0.00022282,-0.00004550,0.00036373,0.00032472,0.00013854,0.000
 60138,0.00089843,-0.00020787,0.00155225,0.00008569,0.00065558,0.000284
 18,0.00003177,0.00010535,0.00003390,0.00000746,-0.00001743,-0.00006140
 ,0.00009943,-0.00001964,0.00014116,0.00000554,-0.00001917,-0.00000264,
 -0.00001107,0.00003469,-0.00000026,0.00000213,0.00000401,-0.00000341,0
 .00001165,0.00000037,-0.00000015,0.00000574,0.00000243,-0.00000185,0.0
 1623870,0.02307854,0.00005585,-0.00007186,-0.00305154,0.05252529,-0.00
 048537,0.00006484,0.00003400,0.00113247,-0.00007955,0.00038257,-0.0011
 2226,0.00323841,0.00147248,-0.00027268,-0.00036965,-0.00113354,-0.0002
 1435,0.00035115,0.00023495,-0.00001655,-0.00007312,-0.00015369,0.00001
 061,0.00002056,-0.00001572,-0.01123368,0.00030939,-0.01548808,-0.13222
 286,0.00133501,-0.11922770,-0.01134031,0.00010782,-0.01567314,-0.00148
 204,-0.00352589,0.00110185,0.00022659,0.00000543,-0.00019560,0.0000501
 0,0.00003837,-0.00000457,-0.00004715,-0.00003774,0.00002530,0.00002458
 ,0.00000281,-0.00000869,0.00000595,-0.00002195,0.00001071,-0.00004787,
 0.00006583,-0.00001925,0.00000557,0.00001593,0.00001296,0.00000953,-0.
 00001469,-0.00000281,0.00000445,-0.00000710,0.00000307,-0.00002080,0.0
 0001829,0.00000204,0.00021542,-0.00069435,0.00022214,0.00073473,-0.000
 00641,0.00029643,0.14272038,0.00000227,0.00092623,0.00000050,-0.000019
 30,-0.00241367,0.00006604,0.00306255,-0.00454866,-0.00149742,0.0009613
 2,0.00063526,0.00154123,0.00025954,-0.00054570,-0.00031620,0.00005104,
 0.00008367,0.00022455,-0.00002517,-0.00003027,0.00001074,0.01630843,-0
 .00024005,0.02486736,0.00138593,-0.04782148,0.00199520,-0.01607148,0.0
 0050956,-0.02456962,-0.00342807,-0.00462479,0.00109213,-0.00040500,-0.
 00000582,-0.00033290,-0.00009394,0.00004188,0.00000804,0.00008429,-0.0
 0006905,-0.00006066,-0.00002971,0.00000507,0.00000558,0.00002960,0.000
 01920,0.00002527,0.00006028,-0.00009110,0.00002654,-0.00000816,-0.0000
 0426,-0.00001407,-0.00001069,0.00001474,0.00000563,0.00000594,0.000009
 08,0.00000139,0.00002386,-0.00001345,-0.00000203,-0.00055790,0.0011416
 0,-0.00047233,-0.00084805,0.00078501,0.00017873,-0.00134006,0.05450634
 ,-0.00008978,0.00001675,-0.00008350,0.00033904,-0.00003245,0.00015584,
 0.00035428,0.00059294,0.00112586,-0.00015384,-0.00034175,0.00006209,-0
 .00000529,0.00004196,0.00009181,0.00000457,-0.00004438,-0.00003205,0.0
 0000581,0.00001581,-0.00000027,0.00139653,-0.00004815,0.00049688,-0.12
 015713,0.00187420,-0.22585800,0.00115365,0.00012959,0.00006543,0.00017
 284,-0.00073637,0.00130016,0.00009236,-0.00008825,0.00048045,0.0000158
 0,0.00000966,-0.00000954,-0.00007288,0.00010291,-0.00000402,0.00000013
 ,-0.00000661,-0.00000947,-0.00000269,-0.00000309,-0.00000576,-0.000018
 90,0.00002158,-0.00001171,0.00000271,0.00000866,0.00000805,0.00000679,
 -0.00001107,-0.00000890,0.00000329,-0.00000450,0.00000128,-0.00001498,
 0.00001424,-0.00000308,-0.00020909,0.00033972,0.00079254,-0.00001060,0
 .00051174,0.00001562,0.13201711,-0.00206732,0.24187871,0.00021979,0.00
 000102,0.00007579,-0.00035629,-0.00005210,-0.00007074,0.00040116,-0.00
 065943,0.00141873,0.00016634,0.00018103,-0.00033145,-0.00000872,-0.000
 00883,0.00000502,0.00000447,0.00000684,-0.00001872,0.00000392,-0.00001
 130,0.00001387,-0.01244582,0.00091330,0.01530652,-0.14424714,-0.000650
 80,0.11856394,-0.01248649,-0.00098282,0.01567508,0.00046976,0.00075743
 ,0.00108998,-0.00010215,0.00018338,-0.00096093,-0.00000916,-0.00006097
 ,0.00003677,0.00019362,-0.00014574,-0.00004658,0.00000830,0.00002249,-
 0.00006031,-0.00000919,0.00000092,-0.00001155,-0.00000338,0.00000452,-
 0.00000318,0.00000115,-0.00000251,0.00000338,-0.00000073,-0.00000068,-
 0.00000542,0.00000084,0.00000081,0.00000033,0.00000417,-0.00000059,-0.
 00000287,-0.00129393,0.00334310,-0.00033123,0.00090110,-0.00007460,-0.
 00046880,0.01279376,0.00006072,-0.01457457,0.15608988,-0.00003413,0.00
 020768,-0.00001083,0.00001566,-0.00061297,-0.00001489,-0.00080833,0.00
 105064,-0.00102262,-0.00012453,-0.00011867,0.00010933,-0.00006402,0.00
 001456,0.00001567,-0.00000190,0.00001232,0.00000816,-0.00000544,-0.000
 00396,-0.00001677,0.01909449,-0.00148322,-0.02403344,-0.00070197,-0.04
 809277,0.00068629,-0.01886017,-0.00171675,0.02415774,0.00091699,0.0010
 3284,0.00068718,-0.00010998,0.00010218,0.00075546,0.00001447,0.0000193
 4,-0.00006107,-0.00019366,0.00006080,0.00006260,0.00001084,-0.00001145
 ,0.00005076,0.00000985,-0.00000040,0.00002083,0.00000704,-0.00000756,0
 .00000583,0.00000044,-0.00000139,-0.00000676,-0.00000300,0.00000288,0.
 00000838,0.00000076,0.00000221,0.00000305,0.00000400,-0.00000338,0.000
 00321,0.00392470,-0.00459128,0.00058005,-0.00078187,0.00109246,-0.0001
 5247,-0.00018303,-0.00041640,0.00022159,0.00065005,0.05684983,0.000141
 69,-0.00001953,-0.00010771,-0.00031290,0.00001988,0.00015541,-0.000373
 27,0.00021130,0.00080953,-0.00013854,0.00002130,0.00033418,0.00006653,
 -0.00005509,-0.00005932,0.00000442,0.00001707,0.00003091,-0.00000355,-
 0.00000447,-0.00000331,-0.00051183,-0.00059019,-0.00044252,0.11918570,
 0.00068641,-0.20699677,-0.00091345,0.00059844,-0.00000564,-0.00032978,
 -0.00019205,0.00091854,0.00030845,0.00000276,0.00053046,0.00000959,0.0
 0000019,-0.00002205,-0.00007239,0.00011364,-0.00008286,-0.00000492,-0.
 00000747,0.00001422,-0.00000511,0.00000563,-0.00000208,0.00001388,-0.0
 0001616,0.00001155,-0.00000229,-0.00000758,-0.00000724,-0.00000286,0.0
 0000571,0.00000629,-0.00000392,0.00000191,-0.00000139,0.00000592,-0.00
 000700,0.00000085,-0.00048773,-0.00020262,0.00139576,-0.00000193,-0.00
 057945,0.00020080,0.01684563,0.00009929,-0.02170204,-0.13328494,-0.000
 81233,0.22268325,-0.00148165,0.00145361,0.00066934,-0.00023896,-0.0041
 6281,-0.00371408,-0.00013591,0.00003920,0.00054923,0.00013456,0.000026
 21,0.00021907,0.00001219,-0.00004365,-0.00000274,0.00002192,-0.0000153
 2,0.00001850,-0.00000758,0.00000432,-0.00000284,-0.00259051,-0.0026059
 0,-0.00014265,0.01305685,-0.01789422,-0.00073071,-0.13481322,0.1229511
 0,0.00856475,-0.01235446,0.01741384,-0.00152160,-0.00002710,-0.0000279
 9,0.00000364,-0.00000130,0.00015640,-0.00001491,-0.00000538,-0.0000597
 3,-0.00004409,0.00000649,0.00000777,-0.00001008,0.00003987,-0.00001007
 ,0.00005964,-0.00000658,0.00000313,-0.00000971,-0.00000022,0.00001928,
 0.00000288,0.00000208,-0.00001154,-0.00000714,0.00001351,-0.00000289,0
 .00000771,-0.00000674,0.00001537,-0.00000270,0.00003498,-0.00007521,-0
 .00020035,0.00075854,-0.00115933,0.00007049,0.00070551,0.00088011,-0.0
 0001266,0.00092049,0.00078249,0.00000929,0.14512004,0.00004727,0.00009
 413,0.00013703,-0.00041646,0.00060442,-0.00019408,-0.00027919,0.000640
 89,-0.00020526,0.00004830,0.00005998,0.00012655,0.00003637,-0.00003042
 ,-0.00008601,-0.00000520,0.00003199,0.00003345,-0.00000765,-0.00001551
 ,-0.00000464,-0.00573160,-0.00336784,-0.00020623,0.01653637,-0.0218544
 8,-0.00131495,0.12164744,-0.22256851,-0.00888357,-0.00050325,0.0014672
 8,-0.00003945,0.00001413,-0.00002966,0.00005431,-0.00002942,0.00010121
 ,-0.00000615,0.00000685,-0.00001054,-0.00000030,-0.00000573,-0.0000056
 1,0.00001053,0.00002200,0.00000655,0.00001936,0.00002363,-0.00002548,0
 .00001827,0.00000015,0.00000039,-0.00001010,-0.00000838,0.00000942,0.0
 0001211,0.00000044,0.00000754,0.00000024,0.00001484,-0.00001428,0.0000
 0214,-0.00006308,0.00033221,-0.00010426,0.00113371,-0.00163594,0.00008
 594,0.00000037,0.00076386,-0.00049617,0.00010448,0.00109294,0.00059963
 ,-0.13161980,0.24172367,-0.00258100,0.00194079,0.00114432,-0.00125567,
 -0.00418561,-0.00494818,0.00017761,-0.00009794,0.00052124,0.00016457,0
 .00003931,0.00013160,-0.00001554,-0.00003354,0.00001134,0.00001975,-0.
 00000906,0.00000988,-0.00000754,0.00000217,-0.00000713,-0.00026922,-0.
 00000262,0.00038451,0.00106818,0.00022857,-0.00093241,0.00868391,-0.00
 958919,-0.04977843,-0.01739256,0.02479088,-0.00226975,-0.00003556,-0.0
 0003083,-0.00000402,0.00000107,0.00009878,0.00000169,-0.00003121,-0.00
 004595,-0.00003198,0.00000940,0.00000591,-0.00000412,0.00002767,-0.000
 01071,0.00004792,-0.00000633,0.00000327,-0.00000570,-0.00000114,0.0000
 1397,0.00000218,0.00000316,-0.00000594,-0.00000270,0.00000950,-0.00000
 202,0.00000479,-0.00000378,0.00000939,-0.00000045,-0.00029894,0.000393
 69,0.00023377,0.00007009,-0.00009553,0.00057300,0.00027894,-0.00016359
 ,-0.00002880,-0.00045391,0.00018670,0.00023352,-0.00558957,0.01031669,
 0.05309544,-0.00001125,-0.00034948,0.00035536,0.00162599,-0.00059261,-
 0.00049096,0.00003380,-0.00000880,-0.00020346,0.00006270,0.00003632,0.
 00005895,0.00000785,-0.00003061,-0.00001970,-0.00000205,0.00000981,0.0
 0001572,-0.00000093,-0.00000397,0.00000096,0.00042430,0.00120919,-0.00
 027614,-0.01282629,-0.00183805,0.01703300,-0.12503195,-0.00489601,0.11
 654608,0.01099453,0.00135647,-0.01966208,-0.00013231,0.00000321,-0.000
 03182,-0.00000906,0.00002326,0.00000685,0.00001115,0.00000786,0.000006
 89,-0.00000509,-0.00000663,0.00000144,0.00000683,0.00000141,-0.0000056
 5,0.00000739,-0.00000971,0.00000439,-0.00000022,0.00000150,-0.00000134
 ,-0.00000247,0.00000356,0.00000263,-0.00000019,0.00000239,-0.00000125,
 0.00000407,-0.00000480,0.00000095,0.00070633,-0.00051260,-0.00022638,0
 .00003089,0.00007676,-0.00028596,0.00025438,0.00056751,-0.00019897,-0.
 00140926,-0.00403795,-0.00058678,-0.01059666,-0.00114888,0.01594594,0.
 13697950,-0.00008033,0.00014442,-0.00020834,-0.00049868,-0.00028625,0.
 00082096,0.00021277,-0.00014922,-0.00009189,0.00002724,-0.00000207,0.0
 0003512,0.00000546,-0.00001714,0.00000221,0.00000712,-0.00000883,0.000
 00196,0.00000042,0.00000298,0.00000466,-0.00064892,0.00180011,0.001105
 67,-0.01655394,-0.00260142,0.02408156,-0.00445101,-0.05302008,0.011041
 32,-0.00027797,-0.00020036,0.00026150,-0.00003623,0.00009282,-0.000200
 24,0.00000531,0.00000941,0.00000472,0.00003043,-0.00003213,-0.00000893
 ,0.00000195,0.00000569,-0.00001264,0.00000710,-0.00000455,0.00001479,-
 0.00000369,0.00000338,-0.00000544,-0.00000006,0.00000525,0.00000290,0.
 00000116,-0.00000444,-0.00000515,0.00000326,-0.00000167,0.00000139,-0.
 00000328,0.00000552,-0.00000186,0.00050230,-0.00041027,-0.00055531,0.0
 0009621,0.00032160,-0.00039316,0.00070538,0.00116427,-0.00032943,-0.00
 337191,-0.00454299,0.00006354,0.01474300,0.00211326,-0.02352346,0.0095
 9377,0.05443217,-0.00147194,0.00033832,0.00047923,0.00263635,-0.001800
 57,-0.00056866,-0.00003524,0.00036732,-0.00029028,0.00010561,0.0000267
 6,-0.00002560,-0.00001310,0.00000655,0.00001208,0.00001141,-0.00001367
 ,-0.00000521,-0.00000126,0.00001045,-0.00001110,-0.00023459,-0.0001518
 5,-0.00008760,-0.00075683,-0.00014520,0.00162965,0.11623517,0.01102155
 ,-0.22574607,0.01164527,0.00206815,-0.02325239,-0.00005286,-0.00005413
 ,0.00014471,-0.00001462,0.00004725,0.00001074,-0.00005111,0.00003009,0
 .00001043,-0.00001013,-0.00000871,0.00001745,0.00001956,-0.00000736,0.
 00000545,-0.00000759,0.00000507,0.00000005,-0.00000311,0.00000838,0.00
 000337,0.00000523,0.00000004,0.00000493,0.00000046,-0.00000332,-0.0000
 0295,-0.00000772,0.00000507,0.00000327,-0.00023155,0.00057264,0.000151
 69,-0.00019406,0.00010789,0.00023685,0.00022079,0.00045737,0.00083740,
 -0.00040596,-0.00065313,0.00147742,0.00094422,-0.00067913,-0.00077040,
 -0.12442438,-0.01170254,0.24816181,0.00198331,-0.00127603,-0.00004798,
 0.01154021,0.01595980,-0.00051145,-0.00215463,0.00247406,0.00009461,0.
 00075175,0.00072437,0.00007564,0.00004332,-0.00002861,0.00008367,-0.00
 000492,0.00000395,-0.00001405,0.00000502,0.00000067,-0.00000104,-0.000
 25409,0.00024764,-0.00006504,-0.00145472,0.00170915,-0.00409023,-0.011
 48732,-0.01469393,0.00182078,-0.15921963,-0.13466586,0.00530955,-0.000
 01290,0.00000892,-0.00009940,-0.00013315,0.00034728,-0.00001217,0.0000
 3173,-0.00006408,0.00001441,0.00000190,0.00000435,-0.00001397,-0.00000
 487,-0.00001212,-0.00001908,-0.00000809,0.00000121,-0.00000248,-0.0000
 0347,-0.00000913,0.00000019,0.00000309,0.00000068,0.00000016,-0.000003
 82,0.00000055,-0.00000247,-0.00000141,-0.00000218,-0.00000046,0.000067
 25,-0.00005920,0.00001952,0.00006514,-0.00008485,0.00004682,-0.0005597
 7,-0.00129562,-0.00020725,0.00034419,0.00039355,0.00005028,0.00003583,
 0.00027567,0.00052669,0.00109443,0.00028462,0.00007939,0.16975021,-0.0
 0002057,0.00610268,-0.00025762,-0.02280987,-0.02664654,0.00130208,0.00
 524348,-0.00319263,-0.00002991,-0.00163147,-0.00085080,-0.00026334,-0.
 00009045,-0.00003763,-0.00024925,0.00001945,0.00005364,0.00008291,-0.0
 0002774,-0.00003428,-0.00000580,0.00044597,0.00027998,0.00046627,0.000
 58551,0.00081484,0.00045026,0.00230926,0.00304029,-0.00084903,-0.12969
 091,-0.20764928,0.00497934,0.00010846,0.00045293,0.00015259,0.00034639
 ,-0.00058778,-0.00002081,0.00005462,-0.00002447,-0.00006345,0.00000824
 ,0.00000709,0.00001971,0.00005571,0.00002105,0.00009429,0.00004897,-0.
 00004439,0.00003001,0.00000288,0.00002959,-0.00001513,-0.00001887,0.00
 000942,0.00001738,0.00001722,0.00001209,0.00000892,0.00002507,-0.00001
 098,0.00000211,-0.00003850,-0.00000611,-0.00012350,-0.00008828,-0.0000
 0178,-0.00009561,0.00010023,0.00023592,0.00019090,-0.00003492,-0.00006
 621,0.00004872,-0.00020792,0.00036270,-0.00046815,-0.00005190,0.000165
 37,-0.00040200,0.14275629,0.22461535,-0.00024738,0.00014557,-0.0012882
 0,0.00090804,-0.00074258,-0.00059074,0.00002685,0.00065091,0.00120061,
 0.00005563,0.00001096,0.00039984,0.00004948,-0.00001276,0.00000616,-0.
 00000127,-0.00001161,0.00001009,0.00000130,0.00000711,0.00000146,-0.00
 015038,0.00067109,-0.00014026,-0.00269142,0.00154933,-0.00454710,-0.01
 657962,-0.02210441,0.00109140,0.00526191,0.00514859,-0.05082035,-0.000
 47197,-0.00030569,0.00023199,-0.00002966,0.00008449,-0.00001598,-0.000
 04642,0.00005577,0.00000648,-0.00000063,-0.00000696,0.00000033,0.00000
 266,-0.00000986,0.00001275,-0.00000237,0.00000305,-0.00000584,0.000000
 82,0.00000101,0.00000072,-0.00000062,-0.00000429,-0.00000576,0.0000008
 8,-0.00000115,0.00000298,-0.00000380,0.00000381,-0.00000183,0.00005300
 ,-0.00003577,-0.00001077,0.00013594,-0.00006057,0.00009399,-0.00105899
 ,-0.00138146,0.00002337,-0.00028608,-0.00004987,0.00019437,0.00050489,
 0.00041678,0.00083105,0.00090617,-0.00035462,0.00099165,-0.00292276,-0
 .00565425,0.05213483,-0.00149657,0.00459477,-0.00272170,-0.01284055,-0
 .00139642,0.01570277,0.00000580,-0.00034922,-0.00076294,0.00002166,0.0
 0003465,-0.00039323,-0.00008380,0.00001710,-0.00001632,0.00002795,0.00
 001316,-0.00001844,-0.00000798,-0.00001408,-0.00000089,-0.00009772,-0.
 00031713,-0.00006137,0.00141212,0.00035122,-0.00002864,0.01111265,-0.0
 0188754,-0.02053112,-0.12106283,0.00563050,0.12126585,0.00080763,0.000
 20357,-0.00037596,0.00001948,0.00001011,-0.00002132,0.00003303,-0.0001
 7060,-0.00005351,0.00005354,0.00005497,-0.00003303,0.00002085,-0.00002
 033,0.00014045,-0.00000772,0.00001170,-0.00001013,-0.00000062,0.000006
 96,-0.00000180,-0.00000048,-0.00000642,-0.00000781,0.00001081,-0.00000
 059,0.00001029,0.00000446,0.00000848,-0.00000290,-0.00011849,0.0000416
 5,-0.00004709,-0.00002279,-0.00001265,-0.00003921,0.00017165,0.0003897
 5,0.00016371,-0.00015068,0.00008465,0.00039482,0.00140340,-0.00009339,
 0.00095549,-0.00221640,-0.00030149,-0.00398743,-0.01041462,0.00258363,
 0.01658581,0.13341622,0.00331282,-0.00346282,0.00346125,0.01486703,0.0
 0325488,-0.02683675,-0.00146436,-0.00034753,0.00262925,0.00010539,0.00
 015613,0.00040908,0.00009509,0.00001429,0.00004850,-0.00003219,-0.0000
 1607,0.00000089,0.00001685,0.00001295,0.00000503,0.00045620,0.00020176
 ,0.00026318,0.00056250,0.00007152,-0.00094781,-0.00154281,0.00042074,0
 .00219301,0.00684446,-0.05360161,-0.01702242,-0.00040642,-0.00172586,-
 0.00001596,-0.00005793,0.00005080,0.00001026,-0.00000666,0.00013352,0.
 00006162,-0.00005546,-0.00004658,0.00002408,-0.00004873,0.00003764,-0.
 00015759,-0.00000043,-0.00000004,-0.00000035,0.00000032,-0.00002032,0.
 00000183,0.00000258,0.00000396,0.00000008,-0.00001630,-0.00000125,-0.0
 0000875,-0.00000570,-0.00000763,0.00000148,0.00000175,0.00009240,0.000
 06641,0.00003975,0.00000218,0.00002053,-0.00002626,-0.00001698,0.00011
 730,-0.00017289,0.00012871,-0.00000148,-0.00059946,0.00014584,0.000234
 01,0.00059896,0.00101518,0.00054872,-0.01300113,0.00294996,0.02198735,
 -0.00946701,0.05055424,-0.00057594,-0.00032851,-0.00103135,-0.00039396
 ,0.00065133,0.00175330,0.00087797,0.00010992,-0.00063057,-0.00016466,-
 0.00020405,0.00016866,0.00007208,0.00002405,0.00001425,-0.00001522,-0.
 00001204,-0.00000534,0.00000224,0.00001123,0.00000027,-0.00048195,-0.0
 0009937,-0.00019623,0.00154632,0.00046980,0.00099330,0.01362438,-0.001
 40060,-0.02637890,0.11739344,-0.01296185,-0.21850531,-0.00040826,0.000
 10663,0.00058808,0.00001602,-0.00003022,0.00000160,-0.00006716,0.00011
 929,0.00002520,-0.00000605,-0.00000778,0.00002043,-0.00003284,-0.00001
 890,-0.00000354,-0.00000178,0.00000427,0.00000144,0.00000029,-0.000003
 95,0.00000049,0.00000144,0.00000057,-0.00000005,-0.00000436,-0.0000018
 0,-0.00000309,-0.00000485,-0.00000028,0.00000014,-0.00003065,0.0001823
 8,0.00014606,0.00000934,-0.00006109,0.00000667,-0.00017918,0.00027199,
 0.00042163,-0.00087217,-0.00072863,0.00043588,0.00038219,0.00039727,0.
 00155782,-0.00447047,-0.00004928,-0.00341792,-0.00011186,0.00065236,0.
 00019274,-0.12610434,0.01290725,0.24384433\\0.00005123,-0.00001590,-0.
 00001022,0.00000344,-0.00000754,-0.00000424,-0.00005757,-0.00001733,0.
 00004394,0.00000148,0.00001090,-0.00000749,-0.00000845,0.00000573,-0.0
 0000140,-0.00004019,-0.00000294,0.00000290,0.00000233,-0.00000678,-0.0
 0001491,0.00000816,-0.00001775,-0.00002127,-0.00002533,0.00001880,0.00
 000870,0.00002992,-0.00000728,-0.00000041,-0.00000876,0.00001848,-0.00
 000676,0.00000364,-0.00001175,-0.00001709,0.00002812,-0.00001329,-0.00
 000815,-0.00000511,0.00003555,0.00001409,-0.00000589,0.00002833,-0.000
 00066,0.00001607,-0.00002067,-0.00000813,0.00001184,0.00001355,-0.0000
 0530,0.00000113,-0.00000524,0.00001177,0.00000840,-0.00000088,0.000005
 55,-0.00000264,0.00000644,0.00000957,0.00000113,-0.00000307,-0.0000029
 9,-0.00000113,0.00000070,-0.00000300,-0.00000373,0.00000183,0.00000380
 ,0.00000224,0.00000081,0.00000235,0.00000448,0.00000381,0.00000178,-0.
 00000386,-0.00000637,-0.00000047,-0.00001131,-0.00000297,0.00000399,-0
 .00000066,0.00000378,0.00000365,0.00000102,-0.00000892,0.00000040\\\@


 ONE THORN OF EXPERIENCE IS WORTH A WHOLE WILDERNESS OF
 WARNING....  LOWELL - AMONG MY BOOKS
 Job cpu time:       0 days  0 hours  2 minutes 27.4 seconds.
 Elapsed time:       0 days  0 hours  2 minutes 31.5 seconds.
 File lengths (MBytes):  RWF=    140 Int=      0 D2E=      0 Chk=      5 Scr=      1
 Normal termination of Gaussian 16 at Thu Feb 22 10:32:42 2024.
