 Entering Gaussian System, Link 0=g16
 Input=/Volumes/SSD-PMU3/b3lyp_6-31gd_freq/GSBCCXHQCYSTTQ-SEGRVHHLSA-N_calculating/gaussianinput0.gjf
 Output=/Volumes/SSD-PMU3/b3lyp_6-31gd_freq/GSBCCXHQCYSTTQ-SEGRVHHLSA-N_calculating/gaussianinput0.log
 Initial command:
 /Applications/g16/l1.exe "/Users/macmini_m1_2022/PycharmProjects/sphere_model/sphere_model_lib/Gau-61950.inp" -scrdir="/Users/macmini_m1_2022/PycharmProjects/sphere_model/sphere_model_lib/"
 Entering Link 1 = /Applications/g16/l1.exe PID=     61951.
  
 Copyright (c) 1988,1990,1992,1993,1995,1998,2003,2009,2016,
            Gaussian, Inc.  All Rights Reserved.
  
 This is part of the Gaussian(R) 16 program.  It is based on
 the Gaussian(R) 09 system (copyright 2009, Gaussian, Inc.),
 the Gaussian(R) 03 system (copyright 2003, Gaussian, Inc.),
 the Gaussian(R) 98 system (copyright 1998, Gaussian, Inc.),
 the Gaussian(R) 94 system (copyright 1995, Gaussian, Inc.),
 the Gaussian 92(TM) system (copyright 1992, Gaussian, Inc.),
 the Gaussian 90(TM) system (copyright 1990, Gaussian, Inc.),
 the Gaussian 88(TM) system (copyright 1988, Gaussian, Inc.),
 the Gaussian 86(TM) system (copyright 1986, Carnegie Mellon
 University), and the Gaussian 82(TM) system (copyright 1983,
 Carnegie Mellon University). Gaussian is a federally registered
 trademark of Gaussian, Inc.
  
 This software contains proprietary and confidential information,
 including trade secrets, belonging to Gaussian, Inc.
  
 This software is provided under written license and may be
 used, copied, transmitted, or stored only in accord with that
 written license.
  
 The following legend is applicable only to US Government
 contracts under FAR:
  
                    RESTRICTED RIGHTS LEGEND
  
 Use, reproduction and disclosure by the US Government is
 subject to restrictions as set forth in subparagraphs (a)
 and (c) of the Commercial Computer Software - Restricted
 Rights clause in FAR 52.227-19.
  
 Gaussian, Inc.
 340 Quinnipiac St., Bldg. 40, Wallingford CT 06492
  
  
 ---------------------------------------------------------------
 Warning -- This program may not be used in any manner that
 competes with the business of Gaussian, Inc. or will provide
 assistance to any competitor of Gaussian, Inc.  The licensee
 of this program is prohibited from giving any competitor of
 Gaussian, Inc. access to this program.  By using this program,
 the user acknowledges that Gaussian, Inc. is engaged in the
 business of creating and licensing software in the field of
 computational chemistry and represents and warrants to the
 licensee that it is not a competitor of Gaussian, Inc. and that
 it will not use this program in any manner prohibited above.
 ---------------------------------------------------------------
  

 Cite this work as:
 Gaussian 16, Revision A.03,
 M. J. Frisch, G. W. Trucks, H. B. Schlegel, G. E. Scuseria, 
 M. A. Robb, J. R. Cheeseman, G. Scalmani, V. Barone, 
 G. A. Petersson, H. Nakatsuji, X. Li, M. Caricato, A. V. Marenich, 
 J. Bloino, B. G. Janesko, R. Gomperts, B. Mennucci, H. P. Hratchian, 
 J. V. Ortiz, A. F. Izmaylov, J. L. Sonnenberg, D. Williams-Young, 
 F. Ding, F. Lipparini, F. Egidi, J. Goings, B. Peng, A. Petrone, 
 T. Henderson, D. Ranasinghe, V. G. Zakrzewski, J. Gao, N. Rega, 
 G. Zheng, W. Liang, M. Hada, M. Ehara, K. Toyota, R. Fukuda, 
 J. Hasegawa, M. Ishida, T. Nakajima, Y. Honda, O. Kitao, H. Nakai, 
 T. Vreven, K. Throssell, J. A. Montgomery, Jr., J. E. Peralta, 
 F. Ogliaro, M. J. Bearpark, J. J. Heyd, E. N. Brothers, K. N. Kudin, 
 V. N. Staroverov, T. A. Keith, R. Kobayashi, J. Normand, 
 K. Raghavachari, A. P. Rendell, J. C. Burant, S. S. Iyengar, 
 J. Tomasi, M. Cossi, J. M. Millam, M. Klene, C. Adamo, R. Cammi, 
 J. W. Ochterski, R. L. Martin, K. Morokuma, O. Farkas, 
 J. B. Foresman, and D. J. Fox, Gaussian, Inc., Wallingford CT, 2016.
 
 ******************************************
 Gaussian 16:  EM64M-G16RevA.03 25-Dec-2016
                22-Feb-2024 
 ******************************************
 %nprocshared=8
 Will use up to    8 processors via shared memory.
 %mem=8GB
 %chk= 0.chk
 ---------------------
 # freq b3lyp/6-31g(d)
 ---------------------
 1/10=4,30=1,38=1/1,3;
 2/12=2,17=6,18=5,40=1/2;
 3/5=1,6=6,7=1,11=2,25=1,30=1,71=2,74=-5,140=1/1,2,3;
 4//1;
 5/5=2,38=5,98=1/2;
 8/6=4,10=90,11=11/1;
 11/6=1,8=1,9=11,15=111,16=1/1,2,10;
 10/6=1/2;
 6/7=2,8=2,9=2,10=2,28=1/1;
 7/8=1,10=1,25=1/1,2,3,16;
 1/10=4,30=1/3;
 99//99;
 ---------
 good luck
 ---------
 Symbolic Z-matrix:
 Charge =  0 Multiplicity = 1
 O                     1.21634   0.        0. 
 C                     0.        0.        0. 
 C                    -0.84878  -1.26817  -0.00093 
 C                    -1.74706  -1.25474   1.26082 
 C                    -1.74076  -1.2578   -1.26791 
 C                    -2.63253  0.        -1.26355 
 C                    -1.74076   1.2578   -1.26791 
 C                    -0.84878   1.26817  -0.00093 
 C                    -1.74706   1.25474   1.26082 
 C                    -2.65404  0.         1.28112 
 C                    -3.54023  0.         2.53201 
 C                    -3.51943  0.        -0.00229 
 H                    -0.17875  -2.13397   0.0038 
 H                    -2.36488  -2.16376   1.27533 
 H                    -1.12418  -1.28015   2.16548 
 H                    -2.35892  -2.16579  -1.28428 
 H                    -1.11503  -1.27985  -2.16977 
 H                    -3.26774  0.        -2.15884 
 H                    -2.35892   2.16579  -1.28428 
 H                    -1.11503   1.27985  -2.16977 
 H                    -0.17875   2.13397   0.0038 
 H                    -2.36488   2.16376   1.27533 
 H                    -1.12418   1.28015   2.16548 
 H                    -4.18658   0.88609   2.55836 
 H                    -4.18658  -0.88609   2.55836 
 H                    -2.93446   0.        3.44681 
 H                    -4.17562   0.88209  -0.00433 
 H                    -4.17562  -0.88209  -0.00433 
 

 GradGradGradGradGradGradGradGradGradGradGradGradGradGradGradGradGradGrad
 Berny optimization.
 Initialization pass.
 Trust Radius=3.00D-01 FncErr=1.00D-07 GrdErr=1.00D-07 EigMax=2.50D+02 EigMin=1.00D-04
 Number of steps in this run=      2 maximum allowed number of steps=      2.
 GradGradGradGradGradGradGradGradGradGradGradGradGradGradGradGradGradGrad

                          Input orientation:                          
 ---------------------------------------------------------------------
 Center     Atomic      Atomic             Coordinates (Angstroms)
 Number     Number       Type             X           Y           Z
 ---------------------------------------------------------------------
      1          8           0        1.216339    0.000000    0.000000
      2          6           0        0.000000    0.000000    0.000000
      3          6           0       -0.848777   -1.268165   -0.000930
      4          6           0       -1.747063   -1.254741    1.260818
      5          6           0       -1.740755   -1.257800   -1.267906
      6          6           0       -2.632527   -0.000001   -1.263551
      7          6           0       -1.740756    1.257799   -1.267906
      8          6           0       -0.848778    1.268165   -0.000930
      9          6           0       -1.747063    1.254741    1.260818
     10          6           0       -2.654041   -0.000001    1.281118
     11          6           0       -3.540228   -0.000001    2.532007
     12          6           0       -3.519431   -0.000001   -0.002292
     13          1           0       -0.178747   -2.133971    0.003802
     14          1           0       -2.364876   -2.163757    1.275328
     15          1           0       -1.124177   -1.280149    2.165477
     16          1           0       -2.358918   -2.165786   -1.284282
     17          1           0       -1.115026   -1.279848   -2.169771
     18          1           0       -3.267740   -0.000001   -2.158836
     19          1           0       -2.358919    2.165785   -1.284282
     20          1           0       -1.115027    1.279847   -2.169771
     21          1           0       -0.178748    2.133971    0.003802
     22          1           0       -2.364877    2.163756    1.275328
     23          1           0       -1.124178    1.280148    2.165477
     24          1           0       -4.186576    0.886093    2.558360
     25          1           0       -4.186575   -0.886094    2.558360
     26          1           0       -2.934461    0.000000    3.446807
     27          1           0       -4.175618    0.882085   -0.004325
     28          1           0       -4.175617   -0.882087   -0.004325
 ---------------------------------------------------------------------
                    Distance matrix (angstroms):
                    1          2          3          4          5
     1  O    0.000000
     2  C    1.216339   0.000000
     3  C    2.423416   1.525997   0.000000
     4  C    3.456268   2.493244   1.548905   0.000000
     5  C    3.454570   2.493968   1.549503   2.528734   0.000000
     6  C    4.050967   2.920062   2.526701   2.954802   1.541861
     7  C    3.454570   2.493968   2.963334   3.564736   2.515599
     8  C    2.423417   1.525997   2.536330   2.960402   2.963334
     9  C    3.456268   2.493244   2.960402   2.509482   3.564737
    10  C    4.076899   2.947066   2.551640   1.548352   2.985577
    11  C    5.388505   4.352502   3.907418   2.530955   4.388565
    12  C    4.735771   3.519432   2.956456   2.512192   2.519430
    13  H    2.549532   2.141447   1.094798   2.193798   2.196540
    14  H    4.374175   3.449775   2.174736   1.099188   2.770979
    15  H    3.435999   2.755330   2.183875   1.098654   3.488379
    16  H    4.372925   3.450290   2.175601   2.771625   1.098559
    17  H    3.432372   2.754850   2.185154   3.488415   1.097900
    18  H    4.976699   3.916465   3.480830   3.947260   2.169677
    19  H    4.372925   3.450290   3.964787   4.307192   3.478984
    20  H    3.432373   2.754850   3.356654   4.311908   2.764878
    21  H    2.549532   2.141448   3.467491   3.939933   3.944771
    22  H    4.374175   3.449775   3.963013   3.473907   4.308667
    23  H    3.435999   2.755330   3.356049   2.762618   4.313869
    24  H    6.043332   4.985758   4.725642   3.495427   5.021815
    25  H    6.043331   4.985758   4.223368   2.787604   4.556371
    26  H    5.395333   4.526758   4.224359   2.786187   5.023496
    27  H    5.463634   4.267772   3.961244   3.473398   3.479124
    28  H    5.463633   4.267771   3.349169   2.763572   2.768817
                    6          7          8          9         10
     6  C    0.000000
     7  C    1.541861   0.000000
     8  C    2.526701   1.549503   0.000000
     9  C    2.954803   2.528734   1.548904   0.000000
    10  C    2.544760   2.985578   2.551640   1.548354   0.000000
    11  C    3.902587   4.388565   3.907418   2.530956   1.532988
    12  C    1.541873   2.519429   2.956456   2.512193   1.547915
    13  H    3.490136   3.944771   3.467491   3.939933   3.508909
    14  H    3.346548   4.308667   3.963014   3.473907   2.183000
    15  H    3.958804   4.313869   3.356049   2.762619   2.182053
    16  H    2.183098   3.478984   3.964787   4.307192   3.370311
    17  H    2.182213   2.764878   3.356655   4.311908   3.989387
    18  H    1.097739   2.169677   3.480830   3.947261   3.494268
    19  H    2.183099   1.098559   2.175601   2.771625   3.370312
    20  H    2.182213   1.097900   2.185154   3.488415   3.989387
    21  H    3.490136   2.196540   1.094798   2.193797   3.508910
    22  H    3.346549   2.770979   2.174735   1.099187   2.183001
    23  H    3.958804   3.488379   2.183875   1.098653   2.182052
    24  H    4.219862   4.556371   4.223368   2.787605   2.182928
    25  H    4.219861   5.021814   4.725641   3.495427   2.182927
    26  H    4.720025   5.023496   4.224359   2.786187   2.183768
    27  H    2.178269   2.768818   3.349169   2.763574   2.178448
    28  H    2.178268   3.479123   3.961244   3.473398   2.178447
                   11         12         13         14         15
    11  C    0.000000
    12  C    2.534384   0.000000
    13  H    4.716482   3.964093   0.000000
    14  H    2.764513   2.765348   2.529195   0.000000
    15  H    2.758700   3.474945   2.509121   1.764217   0.000000
    16  H    4.544247   2.771446   2.532453   2.559618   3.769586
    17  H    5.443007   3.480968   2.516061   3.769898   4.335258
    18  H    4.698751   2.171182   4.332748   4.158183   4.993328
    19  H    4.544247   2.771446   4.990011   5.029570   5.029899
    20  H    5.443007   3.480967   4.153937   5.028841   5.034684
    21  H    4.716482   3.964093   4.267942   4.986622   4.150047
    22  H    2.764514   2.765348   4.986622   4.327513   3.767251
    23  H    2.758700   3.474945   4.150047   3.767251   2.560297
    24  H    1.097097   2.790553   5.631096   3.777082   3.771637
    25  H    1.097096   2.790552   4.913822   2.568498   3.112542
    26  H    1.097184   3.498353   4.899191   3.117947   2.560804
    27  H    2.759488   1.099391   5.007159   3.767420   4.323724
    28  H    2.759488   1.099391   4.188347   2.561049   3.765339
                   16         17         18         19         20
    16  H    0.000000
    17  H    1.765289   0.000000
    18  H    2.506277   2.504457   0.000000
    19  H    4.331571   3.768786   2.506278   0.000000
    20  H    3.768785   2.559695   2.504457   1.765289   0.000000
    21  H    4.990011   4.153937   4.332749   2.532453   2.516062
    22  H    5.029570   5.028841   4.158183   2.559618   3.769898
    23  H    5.029899   5.034684   4.993328   3.769586   4.335258
    24  H    5.236430   6.039946   4.886856   4.443404   5.651962
    25  H    4.443404   5.651962   4.886855   5.236429   6.039945
    26  H    5.234986   6.041051   5.615542   5.234986   6.041051
    27  H    3.772029   4.327856   2.498847   2.566432   3.770224
    28  H    2.566431   3.770224   2.498847   3.772029   4.327855
                   21         22         23         24         25
    21  H    0.000000
    22  H    2.529195   0.000000
    23  H    2.509121   1.764217   0.000000
    24  H    4.913822   2.568498   3.112542   0.000000
    25  H    5.631095   3.777081   3.771636   1.772187   0.000000
    26  H    4.899191   3.117946   2.560803   1.772651   1.772651
    27  H    4.188347   2.561050   3.765339   2.562712   3.113508
    28  H    5.007158   3.767420   4.323723   3.113508   2.562712
                   26         27         28
    26  H    0.000000
    27  H    3.772116   0.000000
    28  H    3.772116   1.764172   0.000000
 Stoichiometry    C11H16O
 Framework group  C1[X(C11H16O)]
 Deg. of freedom    78
 Full point group                 C1      NOp   1
 Largest Abelian subgroup         C1      NOp   1
 Largest concise Abelian subgroup C1      NOp   1
                         Standard orientation:                         
 ---------------------------------------------------------------------
 Center     Atomic      Atomic             Coordinates (Angstroms)
 Number     Number       Type             X           Y           Z
 ---------------------------------------------------------------------
      1          8           0        2.568121   -1.416284   -0.000000
      2          6           0        1.554565   -0.743836   -0.000000
      3          6           0        0.847807   -0.273819   -1.268165
      4          6           0       -0.598271   -0.828600   -1.254741
      5          6           0        0.804978    1.275058   -1.257799
      6          6           0        0.059471    1.764440    0.000000
      7          6           0        0.804977    1.275057    1.257800
      8          6           0        0.847807   -0.273819    1.268165
      9          6           0       -0.598271   -0.828601    1.254741
     10          6           0       -1.365264   -0.344098   -0.000001
     11          6           0       -2.795258   -0.896520   -0.000001
     12          6           0       -1.376853    1.203774    0.000000
     13          1           0        1.403516   -0.648184   -2.133971
     14          1           0       -1.121107   -0.499136   -2.163757
     15          1           0       -0.579367   -1.926797   -1.280149
     16          1           0        0.298926    1.630452   -2.165785
     17          1           0        1.824979    1.680636   -1.279847
     18          1           0        0.025112    2.861641    0.000001
     19          1           0        0.298925    1.630451    2.165786
     20          1           0        1.824979    1.680636    1.279848
     21          1           0        1.403516   -0.648186    2.133971
     22          1           0       -1.121107   -0.499137    2.163756
     23          1           0       -0.579367   -1.926798    1.280148
     24          1           0       -3.348418   -0.561149    0.886094
     25          1           0       -3.348418   -0.561149   -0.886093
     26          1           0       -2.796224   -1.993703   -0.000000
     27          1           0       -1.922519    1.568237    0.882086
     28          1           0       -1.922518    1.568237   -0.882086
 ---------------------------------------------------------------------
 Rotational constants (GHZ):           1.4403990           0.9732942           0.8932917
 Standard basis: 6-31G(d) (6D, 7F)
 There are   212 symmetry adapted cartesian basis functions of A   symmetry.
 There are   212 symmetry adapted basis functions of A   symmetry.
   212 basis functions,   400 primitive gaussians,   212 cartesian basis functions
    45 alpha electrons       45 beta electrons
       nuclear repulsion energy       777.2045234505 Hartrees.
 NAtoms=   28 NActive=   28 NUniq=   28 SFac= 1.00D+00 NAtFMM=   60 NAOKFM=F Big=F
 Integral buffers will be    131072 words long.
 Raffenetti 2 integral format.
 Two-electron integral symmetry is turned on.
 One-electron integrals computed using PRISM.
 NBasis=   212 RedAO= T EigKep=  2.29D-03  NBF=   212
 NBsUse=   212 1.00D-06 EigRej= -1.00D+00 NBFU=   212
 ExpMin= 1.61D-01 ExpMax= 5.48D+03 ExpMxC= 8.25D+02 IAcc=3 IRadAn=         5 AccDes= 0.00D+00
 Harris functional with IExCor=  402 and IRadAn=       5 diagonalized for initial guess.
 HarFok:  IExCor=  402 AccDes= 0.00D+00 IRadAn=         5 IDoV= 1 UseB2=F ITyADJ=14
 ICtDFT=  3500011 ScaDFX=  1.000000  1.000000  1.000000  1.000000
 FoFCou: FMM=F IPFlag=           0 FMFlag=      100000 FMFlg1=           0
         NFxFlg=           0 DoJE=T BraDBF=F KetDBF=T FulRan=T
         wScrn=  0.000000 ICntrl=       500 IOpCl=  0 I1Cent=   200000004 NGrid=           0
         NMat0=    1 NMatS0=      1 NMatT0=    0 NMatD0=    1 NMtDS0=    0 NMtDT0=    0
 Petite list used in FoFCou.
 Requested convergence on RMS density matrix=1.00D-08 within 128 cycles.
 Requested convergence on MAX density matrix=1.00D-06.
 Requested convergence on             energy=1.00D-06.
 No special actions if energy rises.
 Integral accuracy reduced to 1.0D-05 until final iterations.
 Initial convergence to 1.0D-05 achieved.  Increase integral accuracy.
 SCF Done:  E(RB3LYP) =  -504.052684623     A.U. after   13 cycles
            NFock= 13  Conv=0.98D-08     -V/T= 2.0096
 DoSCS=F DFT=T ScalE2(SS,OS)=  1.000000  1.000000
 Range of M.O.s used for correlation:     1   212
 NBasis=   212 NAE=    45 NBE=    45 NFC=     0 NFV=     0
 NROrb=    212 NOA=    45 NOB=    45 NVA=   167 NVB=   167
 Symmetrizing basis deriv contribution to polar:
 IMax=3 JMax=2 DiffMx= 0.00D+00
 G2DrvN: will do    29 centers at a time, making    1 passes.
 Calling FoFCou, ICntrl=  3107 FMM=F I1Cent=   0 AccDes= 0.00D+00.
 End of G2Drv F.D. properties file   721 does not exist.
 End of G2Drv F.D. properties file   722 does not exist.
 End of G2Drv F.D. properties file   788 does not exist.
          IDoAtm=1111111111111111111111111111
          Differentiating once with respect to electric field.
                with respect to dipole field.
          Differentiating once with respect to nuclear coordinates.
 Keep R1 ints in memory in canonical form, NReq=263237184.
          There are    87 degrees of freedom in the 1st order CPHF.  IDoFFX=6 NUNeed=     3.
     84 vectors produced by pass  0 Test12= 8.64D-15 1.15D-09 XBig12= 7.89D+01 2.60D+00.
 AX will form    84 AO Fock derivatives at one time.
     84 vectors produced by pass  1 Test12= 8.64D-15 1.15D-09 XBig12= 1.00D+01 8.63D-01.
     84 vectors produced by pass  2 Test12= 8.64D-15 1.15D-09 XBig12= 8.67D-02 3.76D-02.
     84 vectors produced by pass  3 Test12= 8.64D-15 1.15D-09 XBig12= 4.44D-04 5.94D-03.
     84 vectors produced by pass  4 Test12= 8.64D-15 1.15D-09 XBig12= 5.51D-07 1.03D-04.
     45 vectors produced by pass  5 Test12= 8.64D-15 1.15D-09 XBig12= 4.35D-10 2.69D-06.
      5 vectors produced by pass  6 Test12= 8.64D-15 1.15D-09 XBig12= 3.62D-13 6.50D-08.
      1 vectors produced by pass  7 Test12= 8.64D-15 1.15D-09 XBig12= 3.53D-16 2.56D-09.
 InvSVY:  IOpt=1 It=  1 EMax= 7.11D-15
 Solved reduced A of dimension   471 with    87 vectors.
 Isotropic polarizability for W=    0.000000      106.12 Bohr**3.
 End of Minotr F.D. properties file   721 does not exist.
 End of Minotr F.D. properties file   722 does not exist.
 End of Minotr F.D. properties file   788 does not exist.

 **********************************************************************

            Population analysis using the SCF density.

 **********************************************************************

 Orbital symmetries:
       Occupied  (A) (A) (A) (A) (A) (A) (A) (A) (A) (A) (A) (A)
                 (A) (A) (A) (A) (A) (A) (A) (A) (A) (A) (A) (A)
                 (A) (A) (A) (A) (A) (A) (A) (A) (A) (A) (A) (A)
                 (A) (A) (A) (A) (A) (A) (A) (A) (A)
       Virtual   (A) (A) (A) (A) (A) (A) (A) (A) (A) (A) (A) (A)
                 (A) (A) (A) (A) (A) (A) (A) (A) (A) (A) (A) (A)
                 (A) (A) (A) (A) (A) (A) (A) (A) (A) (A) (A) (A)
                 (A) (A) (A) (A) (A) (A) (A) (A) (A) (A) (A) (A)
                 (A) (A) (A) (A) (A) (A) (A) (A) (A) (A) (A) (A)
                 (A) (A) (A) (A) (A) (A) (A) (A) (A) (A) (A) (A)
                 (A) (A) (A) (A) (A) (A) (A) (A) (A) (A) (A) (A)
                 (A) (A) (A) (A) (A) (A) (A) (A) (A) (A) (A) (A)
                 (A) (A) (A) (A) (A) (A) (A) (A) (A) (A) (A) (A)
                 (A) (A) (A) (A) (A) (A) (A) (A) (A) (A) (A) (A)
                 (A) (A) (A) (A) (A) (A) (A) (A) (A) (A) (A) (A)
                 (A) (A) (A) (A) (A) (A) (A) (A) (A) (A) (A) (A)
                 (A) (A) (A) (A) (A) (A) (A) (A) (A) (A) (A) (A)
                 (A) (A) (A) (A) (A) (A) (A) (A) (A) (A) (A)
 The electronic state is 1-A.
 Alpha  occ. eigenvalues --  -19.12945 -10.26046 -10.20043 -10.19370 -10.19122
 Alpha  occ. eigenvalues --  -10.19121 -10.18959 -10.18957 -10.18849 -10.18848
 Alpha  occ. eigenvalues --  -10.18350 -10.17805  -1.02764  -0.87458  -0.79130
 Alpha  occ. eigenvalues --   -0.77782  -0.76178  -0.68408  -0.67545  -0.64356
 Alpha  occ. eigenvalues --   -0.60161  -0.57851  -0.56248  -0.50047  -0.46051
 Alpha  occ. eigenvalues --   -0.45866  -0.45068  -0.44461  -0.44170  -0.42886
 Alpha  occ. eigenvalues --   -0.42292  -0.40141  -0.40013  -0.38308  -0.37953
 Alpha  occ. eigenvalues --   -0.37322  -0.36238  -0.35699  -0.33713  -0.33066
 Alpha  occ. eigenvalues --   -0.33046  -0.29918  -0.29515  -0.29160  -0.22696
 Alpha virt. eigenvalues --   -0.00696   0.06567   0.10738   0.11311   0.11851
 Alpha virt. eigenvalues --    0.12841   0.13512   0.14257   0.14466   0.16118
 Alpha virt. eigenvalues --    0.16499   0.16788   0.17117   0.18870   0.18997
 Alpha virt. eigenvalues --    0.19783   0.19833   0.19971   0.21062   0.21984
 Alpha virt. eigenvalues --    0.22510   0.24414   0.25493   0.26368   0.27318
 Alpha virt. eigenvalues --    0.27655   0.28476   0.29135   0.29710   0.34198
 Alpha virt. eigenvalues --    0.37178   0.50481   0.50888   0.51433   0.51672
 Alpha virt. eigenvalues --    0.53854   0.54974   0.55283   0.59202   0.60937
 Alpha virt. eigenvalues --    0.62003   0.62577   0.64292   0.66289   0.66603
 Alpha virt. eigenvalues --    0.66843   0.67191   0.70920   0.71186   0.73392
 Alpha virt. eigenvalues --    0.74130   0.74296   0.76838   0.77378   0.78816
 Alpha virt. eigenvalues --    0.78911   0.82803   0.84065   0.85195   0.86333
 Alpha virt. eigenvalues --    0.86352   0.86611   0.87971   0.88619   0.89217
 Alpha virt. eigenvalues --    0.90646   0.92431   0.92984   0.94088   0.94326
 Alpha virt. eigenvalues --    0.95076   0.95078   0.96248   0.97782   0.98266
 Alpha virt. eigenvalues --    1.00558   1.02112   1.09109   1.11342   1.16818
 Alpha virt. eigenvalues --    1.17919   1.18803   1.19384   1.23206   1.24235
 Alpha virt. eigenvalues --    1.30128   1.32141   1.41087   1.42150   1.44113
 Alpha virt. eigenvalues --    1.49982   1.51156   1.56711   1.61229   1.63494
 Alpha virt. eigenvalues --    1.66058   1.67370   1.69850   1.71244   1.73468
 Alpha virt. eigenvalues --    1.73687   1.77028   1.77375   1.78265   1.81529
 Alpha virt. eigenvalues --    1.82857   1.84108   1.84752   1.87729   1.90105
 Alpha virt. eigenvalues --    1.91120   1.92196   1.94374   1.96258   2.01159
 Alpha virt. eigenvalues --    2.05826   2.07284   2.08798   2.08802   2.12230
 Alpha virt. eigenvalues --    2.12741   2.13679   2.15674   2.19370   2.22246
 Alpha virt. eigenvalues --    2.22490   2.23210   2.24312   2.27943   2.28164
 Alpha virt. eigenvalues --    2.32105   2.35036   2.35452   2.39873   2.40020
 Alpha virt. eigenvalues --    2.42699   2.44553   2.46792   2.48230   2.49279
 Alpha virt. eigenvalues --    2.56864   2.58045   2.66840   2.68440   2.69841
 Alpha virt. eigenvalues --    2.71181   2.71385   2.73420   2.74915   2.75989
 Alpha virt. eigenvalues --    2.80503   2.80984   2.85330   3.01556   3.03681
 Alpha virt. eigenvalues --    4.09704   4.12955   4.24030   4.28792   4.30206
 Alpha virt. eigenvalues --    4.34285   4.49582   4.56476   4.70651   4.79398
 Alpha virt. eigenvalues --    4.82732   4.83069
          Condensed to atoms (all electrons):
               1          2          3          4          5          6
     1  O    8.014744   0.579029  -0.073990   0.000950   0.001003   0.000050
     2  C    0.579029   4.517052   0.331962  -0.028948  -0.028936  -0.020760
     3  C   -0.073990   0.331962   5.219029   0.331376   0.338734  -0.027170
     4  C    0.000950  -0.028948   0.331376   5.141683  -0.039271  -0.014288
     5  C    0.001003  -0.028936   0.338734  -0.039271   5.099455   0.375361
     6  C    0.000050  -0.020760  -0.027170  -0.014288   0.375361   4.926566
     7  C    0.001003  -0.028937  -0.008668  -0.002859  -0.049000   0.375361
     8  C   -0.073990   0.331962  -0.123858  -0.006517  -0.008668  -0.027170
     9  C    0.000950  -0.028948  -0.006517  -0.057811  -0.002859  -0.014288
    10  C    0.000100  -0.021084  -0.019482   0.384273  -0.017682  -0.021012
    11  C   -0.000000   0.000477   0.003986  -0.052122   0.000304   0.004256
    12  C   -0.000032  -0.003096  -0.012597  -0.056777  -0.046618   0.370963
    13  H    0.004236  -0.032018   0.344234  -0.030548  -0.031774   0.004190
    14  H   -0.000082   0.003547  -0.030402   0.356003  -0.006191  -0.000829
    15  H    0.000727  -0.001231  -0.038451   0.362801   0.005146  -0.000009
    16  H   -0.000083   0.003544  -0.031142  -0.006056   0.360318  -0.033444
    17  H    0.000731  -0.000865  -0.039557   0.005125   0.367184  -0.035142
    18  H   -0.000001   0.000287   0.004655   0.000110  -0.038373   0.368162
    19  H   -0.000083   0.003544  -0.000300   0.000115   0.005262  -0.033444
    20  H    0.000731  -0.000865  -0.000044   0.000048  -0.004290  -0.035142
    21  H    0.004236  -0.032018   0.007111  -0.000048  -0.000062   0.004190
    22  H   -0.000082   0.003547  -0.000357   0.005896   0.000114  -0.000829
    23  H    0.000727  -0.001231   0.000358  -0.006149  -0.000007  -0.000009
    24  H    0.000000  -0.000009  -0.000157   0.005325  -0.000000   0.000036
    25  H    0.000000  -0.000009   0.000048  -0.005343  -0.000022   0.000036
    26  H   -0.000000  -0.000035   0.000052  -0.005069  -0.000003  -0.000166
    27  H    0.000000   0.000146  -0.000107   0.005879   0.005205  -0.034857
    28  H    0.000000   0.000146  -0.001192  -0.005462  -0.003893  -0.034857
               7          8          9         10         11         12
     1  O    0.001003  -0.073990   0.000950   0.000100  -0.000000  -0.000032
     2  C   -0.028937   0.331962  -0.028948  -0.021084   0.000477  -0.003096
     3  C   -0.008668  -0.123858  -0.006517  -0.019482   0.003986  -0.012597
     4  C   -0.002859  -0.006517  -0.057811   0.384273  -0.052122  -0.056777
     5  C   -0.049000  -0.008668  -0.002859  -0.017682   0.000304  -0.046618
     6  C    0.375361  -0.027170  -0.014288  -0.021012   0.004256   0.370963
     7  C    5.099455   0.338734  -0.039271  -0.017682   0.000304  -0.046618
     8  C    0.338734   5.219028   0.331376  -0.019482   0.003986  -0.012597
     9  C   -0.039271   0.331376   5.141682   0.384273  -0.052122  -0.056777
    10  C   -0.017682  -0.019482   0.384273   4.771708   0.375159   0.389557
    11  C    0.000304   0.003986  -0.052122   0.375159   5.161695  -0.054617
    12  C   -0.046618  -0.012597  -0.056777   0.389557  -0.054617   5.116624
    13  H   -0.000062   0.007111  -0.000048   0.003652  -0.000131   0.000164
    14  H    0.000114  -0.000357   0.005896  -0.032940  -0.004963  -0.005288
    15  H   -0.000007   0.000358  -0.006149  -0.034282  -0.005110   0.005746
    16  H    0.005262  -0.000300   0.000115  -0.001124  -0.000094  -0.003762
    17  H   -0.004290  -0.000044   0.000048   0.000187   0.000011   0.005008
    18  H   -0.038373   0.004655   0.000110   0.004234  -0.000128  -0.038207
    19  H    0.360318  -0.031142  -0.006056  -0.001124  -0.000094  -0.003762
    20  H    0.367184  -0.039557   0.005125   0.000187   0.000011   0.005008
    21  H   -0.031774   0.344234  -0.030548   0.003652  -0.000131   0.000164
    22  H   -0.006191  -0.030402   0.356003  -0.032940  -0.004963  -0.005288
    23  H    0.005146  -0.038451   0.362801  -0.034282  -0.005110   0.005746
    24  H   -0.000022   0.000048  -0.005343  -0.027128   0.364079  -0.005041
    25  H   -0.000000  -0.000157   0.005325  -0.027128   0.364079  -0.005041
    26  H   -0.000003   0.000052  -0.005069  -0.026850   0.363216   0.005403
    27  H   -0.003893  -0.001192  -0.005462  -0.035394  -0.005087   0.359735
    28  H    0.005205  -0.000107   0.005879  -0.035395  -0.005087   0.359735
              13         14         15         16         17         18
     1  O    0.004236  -0.000082   0.000727  -0.000083   0.000731  -0.000001
     2  C   -0.032018   0.003547  -0.001231   0.003544  -0.000865   0.000287
     3  C    0.344234  -0.030402  -0.038451  -0.031142  -0.039557   0.004655
     4  C   -0.030548   0.356003   0.362801  -0.006056   0.005125   0.000110
     5  C   -0.031774  -0.006191   0.005146   0.360318   0.367184  -0.038373
     6  C    0.004190  -0.000829  -0.000009  -0.033444  -0.035142   0.368162
     7  C   -0.000062   0.000114  -0.000007   0.005262  -0.004290  -0.038373
     8  C    0.007111  -0.000357   0.000358  -0.000300  -0.000044   0.004655
     9  C   -0.000048   0.005896  -0.006149   0.000115   0.000048   0.000110
    10  C    0.003652  -0.032940  -0.034282  -0.001124   0.000187   0.004234
    11  C   -0.000131  -0.004963  -0.005110  -0.000094   0.000011  -0.000128
    12  C    0.000164  -0.005288   0.005746  -0.003762   0.005008  -0.038207
    13  H    0.603206  -0.003937  -0.002659  -0.003978  -0.002510  -0.000142
    14  H   -0.003937   0.607113  -0.035976   0.005825  -0.000053  -0.000091
    15  H   -0.002659  -0.035976   0.599916  -0.000063  -0.000162   0.000018
    16  H   -0.003978   0.005825  -0.000063   0.602589  -0.035474  -0.003212
    17  H   -0.002510  -0.000053  -0.000162  -0.035474   0.595611  -0.003378
    18  H   -0.000142  -0.000091   0.000018  -0.003212  -0.003378   0.628743
    19  H    0.000023  -0.000005   0.000001  -0.000201   0.000005  -0.003212
    20  H   -0.000085   0.000001  -0.000005   0.000005   0.004273  -0.003378
    21  H   -0.000180   0.000024  -0.000083   0.000023  -0.000085  -0.000142
    22  H    0.000024  -0.000208  -0.000020  -0.000005   0.000001  -0.000091
    23  H   -0.000083  -0.000020   0.004494   0.000001  -0.000005   0.000018
    24  H    0.000002  -0.000076  -0.000067   0.000001  -0.000000  -0.000003
    25  H   -0.000001   0.004491  -0.000236   0.000006  -0.000000  -0.000003
    26  H   -0.000001  -0.000247   0.004678   0.000001  -0.000000   0.000003
    27  H    0.000018  -0.000079  -0.000172  -0.000060  -0.000166  -0.003600
    28  H   -0.000070   0.004940  -0.000066   0.004715  -0.000037  -0.003600
              19         20         21         22         23         24
     1  O   -0.000083   0.000731   0.004236  -0.000082   0.000727   0.000000
     2  C    0.003544  -0.000865  -0.032018   0.003547  -0.001231  -0.000009
     3  C   -0.000300  -0.000044   0.007111  -0.000357   0.000358  -0.000157
     4  C    0.000115   0.000048  -0.000048   0.005896  -0.006149   0.005325
     5  C    0.005262  -0.004290  -0.000062   0.000114  -0.000007  -0.000000
     6  C   -0.033444  -0.035142   0.004190  -0.000829  -0.000009   0.000036
     7  C    0.360318   0.367184  -0.031774  -0.006191   0.005146  -0.000022
     8  C   -0.031142  -0.039557   0.344234  -0.030402  -0.038451   0.000048
     9  C   -0.006056   0.005125  -0.030548   0.356003   0.362801  -0.005343
    10  C   -0.001124   0.000187   0.003652  -0.032940  -0.034282  -0.027128
    11  C   -0.000094   0.000011  -0.000131  -0.004963  -0.005110   0.364079
    12  C   -0.003762   0.005008   0.000164  -0.005288   0.005746  -0.005041
    13  H    0.000023  -0.000085  -0.000180   0.000024  -0.000083   0.000002
    14  H   -0.000005   0.000001   0.000024  -0.000208  -0.000020  -0.000076
    15  H    0.000001  -0.000005  -0.000083  -0.000020   0.004494  -0.000067
    16  H   -0.000201   0.000005   0.000023  -0.000005   0.000001   0.000001
    17  H    0.000005   0.004273  -0.000085   0.000001  -0.000005  -0.000000
    18  H   -0.003212  -0.003378  -0.000142  -0.000091   0.000018  -0.000003
    19  H    0.602589  -0.035474  -0.003978   0.005825  -0.000063   0.000006
    20  H   -0.035474   0.595611  -0.002510  -0.000053  -0.000162  -0.000000
    21  H   -0.003978  -0.002510   0.603206  -0.003937  -0.002659  -0.000001
    22  H    0.005825  -0.000053  -0.003937   0.607113  -0.035976   0.004491
    23  H   -0.000063  -0.000162  -0.002659  -0.035976   0.599916  -0.000236
    24  H    0.000006  -0.000000  -0.000001   0.004491  -0.000236   0.579667
    25  H    0.000001  -0.000000   0.000002  -0.000076  -0.000067  -0.030503
    26  H    0.000001  -0.000000  -0.000001  -0.000247   0.004678  -0.030381
    27  H    0.004715  -0.000037  -0.000070   0.004940  -0.000066   0.004778
    28  H   -0.000060  -0.000166   0.000018  -0.000079  -0.000172  -0.000219
              25         26         27         28
     1  O    0.000000  -0.000000   0.000000   0.000000
     2  C   -0.000009  -0.000035   0.000146   0.000146
     3  C    0.000048   0.000052  -0.000107  -0.001192
     4  C   -0.005343  -0.005069   0.005879  -0.005462
     5  C   -0.000022  -0.000003   0.005205  -0.003893
     6  C    0.000036  -0.000166  -0.034857  -0.034857
     7  C   -0.000000  -0.000003  -0.003893   0.005205
     8  C   -0.000157   0.000052  -0.001192  -0.000107
     9  C    0.005325  -0.005069  -0.005462   0.005879
    10  C   -0.027128  -0.026850  -0.035394  -0.035395
    11  C    0.364079   0.363216  -0.005087  -0.005087
    12  C   -0.005041   0.005403   0.359735   0.359735
    13  H   -0.000001  -0.000001   0.000018  -0.000070
    14  H    0.004491  -0.000247  -0.000079   0.004940
    15  H   -0.000236   0.004678  -0.000172  -0.000066
    16  H    0.000006   0.000001  -0.000060   0.004715
    17  H   -0.000000  -0.000000  -0.000166  -0.000037
    18  H   -0.000003   0.000003  -0.003600  -0.003600
    19  H    0.000001   0.000001   0.004715  -0.000060
    20  H   -0.000000  -0.000000  -0.000037  -0.000166
    21  H    0.000002  -0.000001  -0.000070   0.000018
    22  H   -0.000076  -0.000247   0.004940  -0.000079
    23  H   -0.000067   0.004678  -0.000066  -0.000172
    24  H   -0.030503  -0.030381   0.004778  -0.000219
    25  H    0.579667  -0.030381  -0.000219   0.004778
    26  H   -0.030381   0.578676  -0.000064  -0.000064
    27  H   -0.000219  -0.000064   0.613806  -0.035870
    28  H    0.004778  -0.000064  -0.035870   0.613806
 Mulliken charges:
               1
     1  O   -0.460876
     2  C    0.453746
     3  C   -0.167553
     4  C   -0.282318
     5  C   -0.280435
     6  C   -0.095754
     7  C   -0.280436
     8  C   -0.167553
     9  C   -0.282318
    10  C    0.088032
    11  C   -0.451806
    12  C   -0.267737
    13  H    0.141366
    14  H    0.133792
    15  H    0.140863
    16  H    0.136594
    17  H    0.143585
    18  H    0.124938
    19  H    0.136594
    20  H    0.143585
    21  H    0.141366
    22  H    0.133792
    23  H    0.140864
    24  H    0.140753
    25  H    0.140753
    26  H    0.141820
    27  H    0.127172
    28  H    0.127172
 Sum of Mulliken charges =  -0.00000
 Mulliken charges with hydrogens summed into heavy atoms:
               1
     1  O   -0.460876
     2  C    0.453746
     3  C   -0.026187
     4  C   -0.007663
     5  C   -0.000257
     6  C    0.029184
     7  C   -0.000257
     8  C   -0.026187
     9  C   -0.007663
    10  C    0.088032
    11  C   -0.028481
    12  C   -0.013394
 APT charges:
               1
     1  O   -0.641359
     2  C    0.695467
     3  C   -0.054117
     4  C    0.108621
     5  C    0.118973
     6  C    0.096396
     7  C    0.118973
     8  C   -0.054116
     9  C    0.108621
    10  C    0.060501
    11  C    0.082819
    12  C    0.084494
    13  H   -0.051861
    14  H   -0.047813
    15  H   -0.041725
    16  H   -0.048214
    17  H   -0.043478
    18  H   -0.073175
    19  H   -0.048214
    20  H   -0.043478
    21  H   -0.051861
    22  H   -0.047813
    23  H   -0.041725
    24  H   -0.028530
    25  H   -0.028530
    26  H   -0.027677
    27  H   -0.050589
    28  H   -0.050589
 Sum of APT charges =  -0.00000
 APT charges with hydrogens summed into heavy atoms:
               1
     1  O   -0.641359
     2  C    0.695467
     3  C   -0.105977
     4  C    0.019083
     5  C    0.027281
     6  C    0.023220
     7  C    0.027280
     8  C   -0.105977
     9  C    0.019083
    10  C    0.060501
    11  C   -0.001918
    12  C   -0.016684
 Electronic spatial extent (au):  <R**2>=           1676.2357
 Charge=             -0.0000 electrons
 Dipole moment (field-independent basis, Debye):
    X=             -2.6522    Y=              1.7953    Z=             -0.0000  Tot=              3.2027
 Quadrupole moment (field-independent basis, Debye-Ang):
   XX=            -81.7255   YY=            -74.5959   ZZ=            -70.8862
   XY=              5.9505   XZ=              0.0000   YZ=             -0.0000
 Traceless Quadrupole moment (field-independent basis, Debye-Ang):
   XX=             -5.9897   YY=              1.1400   ZZ=              4.8497
   XY=              5.9505   XZ=              0.0000   YZ=             -0.0000
 Octapole moment (field-independent basis, Debye-Ang**2):
  XXX=            -14.2349  YYY=             -2.0231  ZZZ=             -0.0000  XYY=             -5.0140
  XXY=             16.9201  XXZ=             -0.0000  XZZ=              3.1112  YZZ=             -1.0374
  YYZ=             -0.0000  XYZ=             -0.0000
 Hexadecapole moment (field-independent basis, Debye-Ang**3):
 XXXX=          -1139.0023 YYYY=           -633.8536 ZZZZ=           -524.5879 XXXY=             32.7880
 XXXZ=              0.0000 YYYX=              2.4594 YYYZ=             -0.0000 ZZZX=             -0.0000
 ZZZY=              0.0000 XXYY=           -308.5647 XXZZ=           -259.0510 YYZZ=           -195.6844
 XXYZ=             -0.0000 YYXZ=             -0.0000 ZZXY=             -8.5522
 N-N= 7.772045234505D+02 E-N=-2.723240608454D+03  KE= 4.992436365030D+02
  Exact polarizability: 113.508  -1.744 102.932  -0.000   0.000 101.931
 Approx polarizability: 162.574 -11.042 153.322  -0.000   0.000 151.215
 Calling FoFJK, ICntrl=    100127 FMM=F ISym2X=0 I1Cent= 0 IOpClX= 0 NMat=1 NMatS=1 NMatT=0.
 Full mass-weighted force constant matrix:
 Low frequencies ---  -14.9530   -8.5740    0.0004    0.0007    0.0008   10.3666
 Low frequencies ---   97.1462  240.0332  243.9647
 Diagonal vibrational polarizability:
        5.1906731       7.7456301       4.0713222
 Harmonic frequencies (cm**-1), IR intensities (KM/Mole), Raman scattering
 activities (A**4/AMU), depolarization ratios for plane and unpolarized
 incident light, reduced masses (AMU), force constants (mDyne/A),
 and normal coordinates:
                      1                      2                      3
                      A                      A                      A
 Frequencies --     97.1424               240.0328               243.9647
 Red. masses --      7.1943                 2.2116                 1.0391
 Frc consts  --      0.0400                 0.0751                 0.0364
 IR Inten    --      3.1839                 0.0066                 0.0476
  Atom  AN      X      Y      Z        X      Y      Z        X      Y      Z
     1   8     0.31   0.43   0.00     0.00   0.00  -0.00     0.00   0.00  -0.03
     2   6     0.02  -0.01   0.00    -0.00  -0.00  -0.01    -0.00  -0.00  -0.01
     3   6    -0.07  -0.14   0.00    -0.00  -0.02  -0.01    -0.00   0.01  -0.00
     4   6    -0.10  -0.05   0.01    -0.04   0.04  -0.07     0.00  -0.00   0.00
     5   6     0.03  -0.13  -0.01     0.13  -0.01   0.05     0.01   0.01   0.02
     6   6     0.08  -0.08   0.00     0.00   0.00  -0.03     0.00  -0.00   0.01
     7   6     0.03  -0.13   0.01    -0.13   0.01   0.05    -0.01  -0.01   0.02
     8   6    -0.07  -0.14  -0.00     0.00   0.02  -0.01     0.00  -0.01  -0.00
     9   6    -0.10  -0.05  -0.01     0.04  -0.04  -0.07    -0.00   0.00   0.00
    10   6    -0.08   0.03   0.00    -0.00   0.00  -0.03    -0.00   0.00  -0.00
    11   6    -0.13   0.16  -0.00     0.00  -0.00   0.20     0.00  -0.00   0.01
    12   6     0.04   0.03   0.00     0.00   0.00  -0.11    -0.00   0.00  -0.02
    13   1    -0.09  -0.17   0.00    -0.00  -0.02  -0.01    -0.00   0.02  -0.01
    14   1    -0.08  -0.03   0.00    -0.02   0.15  -0.04    -0.00  -0.01   0.00
    15   1    -0.19  -0.05   0.04    -0.08   0.05  -0.17     0.01  -0.00   0.00
    16   1     0.03  -0.10  -0.00     0.30   0.09  -0.00     0.03   0.03   0.01
    17   1     0.06  -0.21  -0.04     0.17  -0.11   0.22     0.02  -0.00   0.03
    18   1     0.17  -0.08  -0.00     0.00   0.00  -0.04     0.00  -0.00   0.02
    19   1     0.03  -0.10   0.00    -0.30  -0.09  -0.00    -0.03  -0.03   0.01
    20   1     0.06  -0.21   0.04    -0.17   0.11   0.22    -0.02   0.00   0.03
    21   1    -0.09  -0.17  -0.00     0.00   0.02  -0.01     0.00  -0.02  -0.01
    22   1    -0.08  -0.03  -0.00     0.02  -0.15  -0.04     0.00   0.01   0.00
    23   1    -0.19  -0.05  -0.04     0.08  -0.05  -0.17    -0.01   0.00   0.00
    24   1    -0.10   0.22  -0.00     0.18  -0.01   0.31    -0.17   0.47  -0.27
    25   1    -0.10   0.22   0.00    -0.18   0.01   0.31     0.17  -0.47  -0.27
    26   1    -0.24   0.16  -0.00     0.00  -0.00   0.20     0.00  -0.00   0.59
    27   1     0.07   0.07  -0.00    -0.06   0.07  -0.18    -0.02   0.00  -0.03
    28   1     0.07   0.07   0.00     0.06  -0.07  -0.18     0.02  -0.00  -0.03
                      4                      5                      6
                      A                      A                      A
 Frequencies --    277.3105               280.3321               336.8959
 Red. masses --      2.2228                 2.3736                 2.4956
 Frc consts  --      0.1007                 0.1099                 0.1669
 IR Inten    --      0.7200                 0.0543                 0.3784
  Atom  AN      X      Y      Z        X      Y      Z        X      Y      Z
     1   8    -0.00   0.00   0.14     0.00  -0.05  -0.00     0.00  -0.00   0.11
     2   6    -0.00   0.00   0.05     0.06   0.04  -0.00     0.00   0.00   0.02
     3   6     0.01  -0.04   0.00     0.03   0.02   0.01     0.07   0.09  -0.01
     4   6    -0.05   0.11  -0.09     0.07  -0.11   0.04     0.08  -0.02  -0.05
     5   6    -0.03  -0.04  -0.06    -0.08   0.02  -0.02    -0.08   0.10  -0.05
     6   6     0.00   0.00  -0.05    -0.05   0.01   0.00    -0.00   0.00   0.03
     7   6     0.03   0.04  -0.06    -0.08   0.02   0.02     0.08  -0.10  -0.05
     8   6    -0.01   0.04   0.00     0.03   0.02  -0.01    -0.07  -0.09  -0.01
     9   6     0.05  -0.11  -0.09     0.07  -0.11  -0.04    -0.08   0.02  -0.05
    10   6    -0.00   0.00  -0.01     0.04  -0.05   0.00     0.00   0.00  -0.08
    11   6    -0.00   0.00   0.01    -0.06   0.22  -0.00    -0.00   0.00   0.16
    12   6     0.00   0.00   0.14     0.01  -0.05  -0.00    -0.00   0.00  -0.05
    13   1     0.02  -0.07   0.02     0.04   0.05  -0.00     0.11   0.13  -0.01
    14   1     0.00   0.34  -0.04     0.06  -0.24  -0.01     0.10  -0.11  -0.10
    15   1    -0.21   0.11  -0.28     0.16  -0.11   0.15     0.17  -0.02   0.01
    16   1    -0.07  -0.11  -0.06    -0.18  -0.04   0.01    -0.25   0.01   0.01
    17   1    -0.05   0.01  -0.11    -0.11   0.09  -0.11    -0.14   0.22  -0.20
    18   1     0.00   0.00  -0.09    -0.08   0.01   0.00    -0.00   0.00   0.13
    19   1     0.07   0.11  -0.06    -0.18  -0.04  -0.01     0.25  -0.01   0.01
    20   1     0.05  -0.01  -0.11    -0.11   0.09   0.11     0.14  -0.22  -0.20
    21   1    -0.02   0.07   0.02     0.04   0.05   0.00    -0.11  -0.13  -0.01
    22   1    -0.00  -0.34  -0.04     0.06  -0.24   0.01    -0.10   0.11  -0.10
    23   1     0.21  -0.11  -0.28     0.16  -0.11  -0.15    -0.17   0.02   0.01
    24   1    -0.03   0.12  -0.05     0.02   0.38  -0.00     0.21   0.08   0.26
    25   1     0.03  -0.12  -0.05     0.02   0.38   0.00    -0.21  -0.08   0.26
    26   1     0.00   0.00   0.16    -0.36   0.23   0.00    -0.00   0.00   0.28
    27   1     0.18  -0.09   0.29    -0.02  -0.09  -0.00    -0.06  -0.04  -0.08
    28   1    -0.18   0.09   0.29    -0.02  -0.09   0.00     0.06   0.04  -0.08
                      7                      8                      9
                      A                      A                      A
 Frequencies --    369.9134               390.3687               396.5906
 Red. masses --      5.8314                 2.0419                 4.7191
 Frc consts  --      0.4701                 0.1833                 0.4373
 IR Inten    --      1.0725                 0.0687                 0.0147
  Atom  AN      X      Y      Z        X      Y      Z        X      Y      Z
     1   8     0.25  -0.16  -0.00    -0.02   0.00  -0.00     0.00  -0.00   0.01
     2   6     0.23  -0.15   0.00    -0.01   0.02   0.00     0.00  -0.00   0.00
     3   6     0.11  -0.06   0.08    -0.02  -0.03  -0.01    -0.09  -0.13   0.00
     4   6     0.01   0.12   0.05     0.00  -0.02   0.05    -0.07  -0.15  -0.16
     5   6    -0.09  -0.05   0.07    -0.09  -0.04  -0.09    -0.12  -0.12   0.16
     6   6    -0.19   0.00  -0.00     0.08   0.02   0.00    -0.00  -0.00   0.19
     7   6    -0.09  -0.05  -0.07    -0.09  -0.04   0.09     0.12   0.12   0.16
     8   6     0.11  -0.06  -0.08    -0.02  -0.03   0.01     0.09   0.13   0.00
     9   6     0.01   0.12  -0.05     0.00  -0.02  -0.05     0.07   0.15  -0.16
    10   6    -0.08   0.15   0.00     0.02   0.11  -0.00    -0.00  -0.00  -0.19
    11   6    -0.03   0.02  -0.00     0.10  -0.05  -0.00    -0.00   0.00  -0.01
    12   6    -0.22   0.13   0.00     0.05   0.13  -0.00    -0.00  -0.00  -0.01
    13   1    -0.01   0.02  -0.03    -0.02  -0.06  -0.00    -0.00   0.00   0.00
    14   1     0.16   0.22   0.01     0.00  -0.15   0.00     0.01  -0.20  -0.22
    15   1    -0.17   0.12   0.03    -0.01  -0.03   0.22    -0.11  -0.15  -0.06
    16   1    -0.09  -0.21   0.01    -0.32  -0.13   0.00    -0.21  -0.07   0.22
    17   1    -0.16   0.12   0.09    -0.12   0.03  -0.36    -0.11  -0.15   0.04
    18   1    -0.07   0.00  -0.00     0.19   0.03   0.00    -0.00  -0.00   0.07
    19   1    -0.09  -0.21  -0.01    -0.32  -0.13  -0.00     0.21   0.07   0.22
    20   1    -0.16   0.12  -0.09    -0.12   0.03   0.36     0.11   0.15   0.04
    21   1    -0.01   0.02   0.03    -0.02  -0.06   0.00     0.00  -0.00   0.00
    22   1     0.16   0.22  -0.01     0.00  -0.15  -0.00    -0.01   0.20  -0.22
    23   1    -0.17   0.12  -0.03    -0.01  -0.03  -0.22     0.11   0.15  -0.06
    24   1    -0.06  -0.03  -0.00     0.04  -0.15   0.00     0.11   0.04   0.04
    25   1    -0.06  -0.03   0.00     0.04  -0.15  -0.00    -0.11  -0.04   0.04
    26   1     0.06   0.02  -0.00     0.30  -0.05  -0.00    -0.00   0.00   0.04
    27   1    -0.22   0.13   0.01     0.06   0.15   0.00    -0.13  -0.17  -0.02
    28   1    -0.22   0.13  -0.01     0.06   0.15  -0.00     0.13   0.17  -0.02
                     10                     11                     12
                      A                      A                      A
 Frequencies --    434.2505               442.4148               472.3955
 Red. masses --      1.8939                 1.7906                 3.8992
 Frc consts  --      0.2104                 0.2065                 0.5127
 IR Inten    --      0.2514                 1.5219                10.1017
  Atom  AN      X      Y      Z        X      Y      Z        X      Y      Z
     1   8    -0.00   0.01   0.00     0.00  -0.00   0.02    -0.00  -0.00   0.29
     2   6    -0.02  -0.01  -0.00     0.00   0.00  -0.06    -0.00   0.00  -0.16
     3   6     0.02  -0.02  -0.04     0.04  -0.01  -0.07    -0.06   0.01  -0.19
     4   6    -0.00   0.07  -0.11     0.06  -0.07  -0.01    -0.09  -0.01   0.04
     5   6    -0.06  -0.03  -0.05     0.07  -0.01   0.00    -0.01   0.06   0.02
     6   6    -0.00  -0.06  -0.00     0.00   0.00  -0.02    -0.00   0.00   0.06
     7   6    -0.06  -0.03   0.05    -0.07   0.01   0.00     0.01  -0.06   0.02
     8   6     0.02  -0.02   0.04    -0.04   0.01  -0.07     0.06  -0.01  -0.19
     9   6    -0.00   0.07   0.11    -0.06   0.07  -0.01     0.09   0.01   0.04
    10   6     0.08  -0.05  -0.00    -0.00   0.00  -0.04    -0.00   0.00   0.09
    11   6     0.07   0.06   0.00    -0.00  -0.00   0.03    -0.00  -0.00  -0.04
    12   6     0.02  -0.07   0.00    -0.00   0.00   0.15    -0.00   0.00  -0.03
    13   1     0.06  -0.02  -0.01     0.04   0.01  -0.08    -0.21   0.09  -0.32
    14   1    -0.01   0.37   0.01     0.04  -0.24  -0.07    -0.23  -0.06   0.10
    15   1    -0.14   0.08  -0.38     0.14  -0.07   0.15    -0.06  -0.01   0.07
    16   1    -0.21  -0.10   0.00     0.19   0.07  -0.03     0.03   0.21   0.06
    17   1    -0.11   0.07  -0.19     0.09  -0.05   0.14     0.02  -0.01   0.08
    18   1    -0.02  -0.06  -0.00     0.00   0.00  -0.05     0.00   0.00   0.10
    19   1    -0.21  -0.10  -0.00    -0.19  -0.07  -0.03    -0.03  -0.21   0.06
    20   1    -0.11   0.07   0.19    -0.09   0.05   0.14    -0.02   0.01   0.08
    21   1     0.06  -0.02   0.01    -0.04  -0.01  -0.08     0.21  -0.09  -0.32
    22   1    -0.01   0.37  -0.01    -0.04   0.24  -0.07     0.23   0.06   0.10
    23   1    -0.14   0.08   0.38    -0.14   0.07   0.15     0.06   0.01   0.07
    24   1     0.10   0.12  -0.00     0.07   0.03   0.06    -0.12  -0.03  -0.10
    25   1     0.10   0.12   0.00    -0.07  -0.03   0.06     0.12   0.03  -0.10
    26   1    -0.05   0.06   0.00     0.00  -0.00   0.07     0.00  -0.00  -0.09
    27   1     0.01  -0.09   0.00     0.26  -0.19   0.39    -0.14   0.11  -0.17
    28   1     0.01  -0.09  -0.00    -0.26   0.19   0.39     0.14  -0.11  -0.17
                     13                     14                     15
                      A                      A                      A
 Frequencies --    513.4570               617.9081               637.5212
 Red. masses --      3.5485                 5.5037                 3.5449
 Frc consts  --      0.5512                 1.2381                 0.8489
 IR Inten    --      0.1741                 0.1295                 1.5165
  Atom  AN      X      Y      Z        X      Y      Z        X      Y      Z
     1   8    -0.05   0.06  -0.00     0.19  -0.08  -0.00    -0.00   0.00  -0.04
     2   6    -0.13  -0.07  -0.00     0.05  -0.24  -0.00     0.00   0.00  -0.14
     3   6    -0.05  -0.06  -0.00    -0.12  -0.00   0.05     0.17  -0.09  -0.11
     4   6     0.02  -0.04  -0.01    -0.11  -0.09  -0.05     0.13   0.06   0.05
     5   6    -0.03  -0.05   0.10    -0.06   0.15   0.07    -0.01  -0.14   0.07
     6   6    -0.14   0.03   0.00     0.06   0.32   0.00    -0.00  -0.00   0.08
     7   6    -0.03  -0.05  -0.10    -0.06   0.15  -0.07     0.01   0.14   0.07
     8   6    -0.05  -0.06   0.00    -0.12  -0.00  -0.05    -0.17   0.09  -0.11
     9   6     0.02  -0.04   0.01    -0.11  -0.09   0.05    -0.13  -0.06   0.05
    10   6     0.16   0.08   0.00     0.06  -0.10   0.00    -0.00   0.00   0.08
    11   6     0.29   0.12   0.00     0.05  -0.02   0.00     0.00   0.00   0.03
    12   6    -0.07   0.05   0.00     0.19  -0.01   0.00    -0.00  -0.00   0.02
    13   1     0.03   0.02   0.02    -0.18   0.22  -0.09     0.11  -0.03  -0.18
    14   1    -0.05  -0.11   0.00    -0.17   0.05   0.04     0.15   0.24   0.11
    15   1    -0.02  -0.04   0.11    -0.12  -0.09  -0.21    -0.02   0.06  -0.10
    16   1     0.21   0.03  -0.00    -0.11   0.06   0.06    -0.20  -0.22   0.15
    17   1     0.01  -0.13   0.35    -0.01   0.03  -0.12    -0.09   0.05  -0.09
    18   1    -0.04   0.04  -0.00    -0.08   0.32  -0.00    -0.00  -0.00  -0.18
    19   1     0.21   0.03   0.00    -0.11   0.06  -0.06     0.20   0.22   0.15
    20   1     0.01  -0.13  -0.35    -0.01   0.03   0.12     0.09  -0.05  -0.09
    21   1     0.03   0.02  -0.02    -0.18   0.22   0.09    -0.11   0.03  -0.18
    22   1    -0.05  -0.11  -0.00    -0.17   0.05  -0.04    -0.15  -0.24   0.11
    23   1    -0.02  -0.04  -0.11    -0.12  -0.09   0.21     0.02  -0.06  -0.10
    24   1     0.29   0.12   0.00     0.04  -0.03   0.00     0.03   0.01   0.04
    25   1     0.29   0.12  -0.00     0.04  -0.03  -0.00    -0.03  -0.01   0.04
    26   1     0.29   0.12   0.00     0.06  -0.02  -0.00    -0.00   0.00   0.05
    27   1    -0.13  -0.04   0.00     0.13  -0.07  -0.01    -0.20   0.13  -0.16
    28   1    -0.13  -0.04  -0.00     0.13  -0.07   0.01     0.20  -0.13  -0.16
                     16                     17                     18
                      A                      A                      A
 Frequencies --    709.1884               716.9633               788.9556
 Red. masses --      3.5458                 4.0520                 3.7250
 Frc consts  --      1.0507                 1.2272                 1.3661
 IR Inten    --      0.1860                 1.6676                 0.1900
  Atom  AN      X      Y      Z        X      Y      Z        X      Y      Z
     1   8    -0.06   0.07  -0.00    -0.08   0.06  -0.00    -0.02  -0.07  -0.00
     2   6    -0.13  -0.06  -0.00    -0.07   0.05   0.00     0.22   0.31   0.00
     3   6     0.08  -0.04   0.04    -0.01   0.00   0.25    -0.03   0.02  -0.00
     4   6     0.11  -0.08  -0.15     0.04   0.06   0.15    -0.05  -0.09  -0.05
     5   6    -0.02  -0.04   0.06    -0.02  -0.06   0.12    -0.09  -0.09   0.09
     6   6     0.01   0.15   0.00     0.04   0.03   0.00     0.02  -0.04   0.00
     7   6    -0.02  -0.04  -0.06    -0.02  -0.06  -0.12    -0.09  -0.09  -0.09
     8   6     0.08  -0.04  -0.04    -0.01   0.00  -0.25    -0.03   0.02   0.00
     9   6     0.11  -0.08   0.15     0.04   0.06  -0.15    -0.05  -0.09   0.05
    10   6    -0.01  -0.03  -0.00     0.01  -0.05   0.00     0.00  -0.02  -0.00
    11   6    -0.15  -0.06  -0.00     0.00  -0.01   0.00     0.02   0.00  -0.00
    12   6    -0.04   0.20  -0.00     0.12  -0.10   0.00     0.09   0.11   0.00
    13   1     0.29   0.07   0.12    -0.07   0.01   0.22    -0.01   0.14  -0.04
    14   1     0.19  -0.00  -0.17     0.20   0.27   0.14     0.01   0.16   0.01
    15   1     0.10  -0.08  -0.22    -0.02   0.07  -0.05    -0.18  -0.08  -0.24
    16   1    -0.04  -0.16   0.02    -0.16  -0.31   0.10     0.10   0.14   0.08
    17   1    -0.03  -0.01  -0.01    -0.05  -0.01  -0.09    -0.03  -0.23   0.28
    18   1     0.23   0.16  -0.00    -0.04   0.03  -0.00     0.23  -0.03   0.00
    19   1    -0.04  -0.16  -0.02    -0.16  -0.31  -0.10     0.10   0.14  -0.08
    20   1    -0.03  -0.01   0.01    -0.05  -0.01   0.09    -0.03  -0.23  -0.28
    21   1     0.29   0.07  -0.12    -0.07   0.01  -0.22    -0.01   0.14   0.04
    22   1     0.19  -0.00   0.17     0.20   0.27  -0.14     0.01   0.16  -0.01
    23   1     0.10  -0.08   0.22    -0.02   0.07   0.05    -0.18  -0.08   0.24
    24   1    -0.15  -0.05  -0.00     0.02   0.02   0.00    -0.01  -0.04   0.00
    25   1    -0.15  -0.05   0.00     0.02   0.02  -0.00    -0.01  -0.04  -0.00
    26   1    -0.19  -0.06   0.00    -0.02  -0.01  -0.00     0.09   0.00  -0.00
    27   1    -0.04   0.19   0.00     0.12  -0.10  -0.00     0.12   0.14   0.00
    28   1    -0.04   0.19  -0.00     0.12  -0.10   0.00     0.12   0.14  -0.00
                     19                     20                     21
                      A                      A                      A
 Frequencies --    800.6299               849.9990               889.3064
 Red. masses --      2.8357                 2.6230                 2.1780
 Frc consts  --      1.0709                 1.1166                 1.0149
 IR Inten    --      0.2207                 0.8506                 3.8723
  Atom  AN      X      Y      Z        X      Y      Z        X      Y      Z
     1   8    -0.03  -0.01  -0.00     0.00  -0.00   0.04    -0.03   0.01  -0.00
     2   6     0.06   0.12   0.00     0.00   0.00  -0.06    -0.01   0.05  -0.00
     3   6    -0.00  -0.07   0.05    -0.11   0.10   0.02     0.10  -0.07   0.04
     4   6    -0.02  -0.04   0.05     0.06   0.12   0.04    -0.07  -0.06  -0.04
     5   6     0.07   0.00  -0.14    -0.06  -0.12   0.05     0.02   0.07  -0.00
     6   6    -0.03   0.21  -0.00    -0.00  -0.00  -0.08    -0.07  -0.01   0.00
     7   6     0.07   0.00   0.14     0.06   0.12   0.05     0.02   0.07   0.00
     8   6    -0.00  -0.07  -0.05     0.11  -0.10   0.02     0.10  -0.07  -0.04
     9   6    -0.02  -0.04  -0.05    -0.06  -0.12   0.04    -0.07  -0.06   0.04
    10   6     0.03  -0.07   0.00    -0.00   0.00  -0.09    -0.05   0.11  -0.00
    11   6     0.04  -0.00   0.00     0.00   0.00  -0.03    -0.00   0.07  -0.00
    12   6    -0.14   0.02   0.00     0.00  -0.00  -0.04     0.09  -0.07  -0.00
    13   1    -0.03  -0.23   0.10    -0.26   0.20  -0.12     0.24  -0.13   0.15
    14   1     0.05   0.19   0.09     0.08  -0.07  -0.04     0.03  -0.01  -0.08
    15   1    -0.16  -0.04  -0.15     0.25   0.12   0.15    -0.26  -0.07   0.03
    16   1     0.19  -0.07  -0.24     0.04  -0.11   0.00    -0.00  -0.02  -0.02
    17   1     0.12  -0.14  -0.13    -0.02  -0.22   0.08    -0.04   0.22   0.03
    18   1    -0.01   0.21  -0.00    -0.00  -0.00  -0.32    -0.32  -0.01   0.00
    19   1     0.19  -0.07   0.24    -0.04   0.11   0.00    -0.00  -0.02   0.02
    20   1     0.12  -0.14   0.13     0.02   0.22   0.08    -0.04   0.22  -0.03
    21   1    -0.03  -0.23  -0.10     0.26  -0.20  -0.12     0.24  -0.13  -0.15
    22   1     0.05   0.19  -0.09    -0.08   0.07  -0.04     0.03  -0.01   0.08
    23   1    -0.16  -0.04   0.15    -0.25  -0.12   0.15    -0.26  -0.07  -0.03
    24   1     0.09   0.09  -0.01     0.21   0.07   0.07    -0.12  -0.19   0.02
    25   1     0.09   0.09   0.01    -0.21  -0.07   0.07    -0.12  -0.19  -0.02
    26   1    -0.12  -0.00   0.00     0.00   0.00   0.10     0.44   0.06   0.00
    27   1    -0.23  -0.11  -0.00     0.08  -0.05   0.03     0.09  -0.05  -0.01
    28   1    -0.23  -0.11   0.00    -0.08   0.05   0.03     0.09  -0.05   0.01
                     22                     23                     24
                      A                      A                      A
 Frequencies --    893.5939               901.8746               918.8617
 Red. masses --      1.7072                 1.6101                 1.8011
 Frc consts  --      0.8032                 0.7716                 0.8960
 IR Inten    --      1.7037                 0.8967                 0.2714
  Atom  AN      X      Y      Z        X      Y      Z        X      Y      Z
     1   8    -0.00   0.00  -0.00     0.00  -0.00  -0.01    -0.00   0.00   0.00
     2   6    -0.00   0.00   0.05    -0.00  -0.00   0.03    -0.00  -0.00  -0.01
     3   6     0.00   0.04  -0.01     0.00  -0.02  -0.01     0.04   0.08   0.01
     4   6     0.03  -0.01  -0.08    -0.05   0.10  -0.03    -0.07  -0.03  -0.06
     5   6    -0.08  -0.04  -0.03     0.08  -0.02  -0.02     0.04  -0.04   0.08
     6   6    -0.00  -0.00  -0.03     0.00  -0.00   0.07    -0.00  -0.00  -0.09
     7   6     0.08   0.04  -0.03    -0.08   0.02  -0.02    -0.04   0.04   0.08
     8   6    -0.00  -0.04  -0.01    -0.00   0.02  -0.01    -0.04  -0.08   0.01
     9   6    -0.03   0.01  -0.08     0.05  -0.10  -0.03     0.07   0.03  -0.06
    10   6    -0.00   0.00   0.09    -0.00  -0.00  -0.03     0.00  -0.00   0.08
    11   6    -0.00   0.00   0.04     0.00  -0.00  -0.01    -0.00  -0.00   0.06
    12   6     0.00  -0.00   0.13    -0.00   0.00   0.08     0.00   0.00  -0.06
    13   1     0.15   0.09   0.06    -0.02  -0.17   0.04     0.11   0.22  -0.01
    14   1    -0.01  -0.10  -0.09    -0.08  -0.32  -0.16    -0.15  -0.12  -0.05
    15   1     0.09  -0.01   0.01     0.11   0.09   0.36     0.07  -0.02   0.01
    16   1     0.21   0.10  -0.14    -0.12  -0.10   0.06    -0.18  -0.20   0.14
    17   1    -0.03  -0.14   0.27     0.03   0.10  -0.21    -0.03   0.12  -0.15
    18   1    -0.00  -0.00  -0.14     0.00  -0.00   0.05     0.00  -0.00  -0.27
    19   1    -0.21  -0.10  -0.14     0.12   0.10   0.06     0.18   0.20   0.14
    20   1     0.03   0.14   0.27    -0.03  -0.10  -0.21     0.03  -0.12  -0.15
    21   1    -0.15  -0.09   0.06     0.02   0.17   0.04    -0.11  -0.22  -0.01
    22   1     0.01   0.10  -0.09     0.08   0.32  -0.16     0.15   0.12  -0.05
    23   1    -0.09   0.01   0.01    -0.11  -0.09   0.36    -0.07   0.02   0.01
    24   1    -0.18  -0.05  -0.06     0.06   0.03   0.01    -0.31  -0.09  -0.10
    25   1     0.18   0.05  -0.06    -0.06  -0.03   0.01     0.31   0.09  -0.10
    26   1     0.00   0.00  -0.06    -0.00  -0.00   0.03    -0.00  -0.00  -0.14
    27   1    -0.29   0.27  -0.17    -0.20   0.12  -0.10     0.24   0.04   0.08
    28   1     0.29  -0.27  -0.17     0.20  -0.12  -0.10    -0.24  -0.04   0.08
                     25                     26                     27
                      A                      A                      A
 Frequencies --    931.6085               951.7314               991.9014
 Red. masses --      3.0697                 2.0190                 2.5898
 Frc consts  --      1.5697                 1.0775                 1.5013
 IR Inten    --      0.9730                 3.5911                 1.1239
  Atom  AN      X      Y      Z        X      Y      Z        X      Y      Z
     1   8    -0.01   0.01   0.00    -0.02   0.02   0.00    -0.04   0.01   0.00
     2   6    -0.03  -0.03  -0.00    -0.04  -0.02  -0.00     0.02   0.06  -0.00
     3   6    -0.00  -0.08  -0.10     0.06  -0.05  -0.03     0.08  -0.03  -0.12
     4   6     0.10   0.05   0.09    -0.04  -0.04   0.09    -0.05   0.04   0.03
     5   6    -0.10  -0.00  -0.06     0.01   0.08   0.04     0.02  -0.07   0.11
     6   6    -0.11   0.08   0.00     0.02  -0.08   0.00     0.05   0.16   0.00
     7   6    -0.10  -0.00   0.06     0.01   0.08  -0.04     0.02  -0.07  -0.11
     8   6    -0.00  -0.08   0.10     0.06  -0.05   0.03     0.08  -0.03   0.12
     9   6     0.10   0.05  -0.09    -0.04  -0.04  -0.09    -0.05   0.04  -0.03
    10   6     0.09   0.04  -0.00     0.03  -0.08  -0.00     0.07   0.03   0.00
    11   6    -0.13  -0.04  -0.00     0.03  -0.07  -0.00    -0.05  -0.02   0.00
    12   6     0.19  -0.00  -0.00    -0.02   0.11  -0.00    -0.03  -0.10   0.00
    13   1    -0.06  -0.14  -0.11     0.06  -0.13   0.00     0.13   0.11  -0.15
    14   1     0.09   0.17   0.14    -0.11   0.15   0.21    -0.25  -0.08   0.09
    15   1    -0.06   0.05   0.01    -0.20  -0.04  -0.07    -0.13   0.04   0.22
    16   1     0.22   0.19  -0.16    -0.11   0.15   0.14    -0.15  -0.16   0.17
    17   1    -0.04  -0.15   0.29    -0.07   0.27   0.07    -0.01   0.01  -0.13
    18   1    -0.18   0.08   0.00     0.12  -0.07   0.00     0.18   0.17   0.00
    19   1     0.22   0.19   0.16    -0.11   0.15  -0.14    -0.15  -0.16  -0.17
    20   1    -0.04  -0.15  -0.29    -0.07   0.27  -0.07    -0.01   0.01   0.13
    21   1    -0.06  -0.14   0.11     0.06  -0.13  -0.00     0.13   0.11   0.15
    22   1     0.09   0.17  -0.14    -0.11   0.15  -0.21    -0.25  -0.08  -0.09
    23   1    -0.06   0.05  -0.01    -0.20  -0.04   0.07    -0.13   0.04  -0.22
    24   1    -0.16  -0.09   0.00     0.15   0.18  -0.02    -0.05  -0.01  -0.00
    25   1    -0.16  -0.09  -0.00     0.15   0.18   0.02    -0.05  -0.01   0.00
    26   1    -0.07  -0.04   0.00    -0.38  -0.07   0.00    -0.08  -0.02  -0.00
    27   1     0.17  -0.03  -0.01     0.04   0.18   0.01    -0.16  -0.29  -0.00
    28   1     0.17  -0.03   0.01     0.04   0.18  -0.01    -0.16  -0.29   0.00
                     28                     29                     30
                      A                      A                      A
 Frequencies --    998.2339              1028.8621              1043.4904
 Red. masses --      1.8046                 1.7291                 1.8494
 Frc consts  --      1.0595                 1.0784                 1.1865
 IR Inten    --      2.3391                 0.2718                 1.9192
  Atom  AN      X      Y      Z        X      Y      Z        X      Y      Z
     1   8    -0.00   0.00  -0.02    -0.01   0.01   0.00     0.00   0.00   0.01
     2   6    -0.00   0.00   0.03    -0.01  -0.01  -0.00    -0.00  -0.00  -0.03
     3   6     0.10  -0.01  -0.02    -0.04  -0.03  -0.03     0.01   0.10   0.02
     4   6    -0.09   0.02   0.04     0.08  -0.05   0.04    -0.04  -0.09   0.02
     5   6    -0.07   0.02   0.04    -0.00   0.05   0.03     0.07  -0.05  -0.03
     6   6     0.00   0.00  -0.08     0.11  -0.02  -0.00    -0.00   0.00   0.04
     7   6     0.07  -0.02   0.04    -0.00   0.05  -0.03    -0.07   0.05  -0.03
     8   6    -0.10   0.01  -0.02    -0.04  -0.03   0.03    -0.01  -0.10   0.02
     9   6     0.09  -0.02   0.04     0.08  -0.05  -0.04     0.04   0.09   0.02
    10   6     0.00  -0.00  -0.05    -0.02   0.03   0.00     0.00  -0.00  -0.02
    11   6    -0.00  -0.00  -0.07    -0.03   0.08   0.00     0.00  -0.00  -0.08
    12   6    -0.00  -0.00  -0.02    -0.11  -0.04  -0.00     0.00   0.00   0.10
    13   1     0.20   0.04   0.03    -0.12  -0.04  -0.08     0.07   0.27  -0.01
    14   1    -0.17  -0.07   0.04     0.21   0.19   0.04    -0.14   0.12   0.14
    15   1    -0.24   0.02   0.23    -0.06  -0.04  -0.17    -0.09  -0.08  -0.17
    16   1     0.08   0.05  -0.03    -0.12   0.26   0.18     0.02  -0.22  -0.07
    17   1    -0.13   0.17   0.29     0.03  -0.04  -0.05     0.08  -0.09  -0.18
    18   1     0.00   0.00  -0.25     0.24  -0.02  -0.00     0.00   0.00   0.05
    19   1    -0.08  -0.05  -0.03    -0.12   0.26  -0.18    -0.02   0.22  -0.07
    20   1     0.13  -0.17   0.29     0.03  -0.04   0.05    -0.08   0.09  -0.18
    21   1    -0.20  -0.04   0.03    -0.12  -0.04   0.08    -0.07  -0.27  -0.01
    22   1     0.17   0.07   0.04     0.21   0.19  -0.04     0.14  -0.12   0.14
    23   1     0.24  -0.02   0.23    -0.06  -0.04   0.17     0.09   0.08  -0.17
    24   1     0.29   0.09   0.08    -0.14  -0.19   0.03     0.31   0.08   0.08
    25   1    -0.29  -0.09   0.08    -0.14  -0.19  -0.03    -0.31  -0.08   0.08
    26   1    -0.00  -0.00   0.12     0.40   0.08  -0.00    -0.00  -0.00   0.14
    27   1     0.03   0.01  -0.00    -0.16  -0.13   0.00    -0.25   0.03  -0.07
    28   1    -0.03  -0.01  -0.00    -0.16  -0.13  -0.00     0.25  -0.03  -0.07
                     31                     32                     33
                      A                      A                      A
 Frequencies --   1062.2571              1076.1477              1089.3830
 Red. masses --      2.0275                 1.8683                 1.5376
 Frc consts  --      1.3479                 1.2748                 1.0751
 IR Inten    --      0.1616                26.0989                 6.2881
  Atom  AN      X      Y      Z        X      Y      Z        X      Y      Z
     1   8     0.01   0.02   0.00     0.00   0.00  -0.02    -0.00   0.00   0.01
     2   6    -0.05  -0.08  -0.00    -0.00  -0.00   0.14    -0.00  -0.00  -0.08
     3   6     0.06   0.12  -0.02     0.02   0.05  -0.08     0.06   0.02   0.04
     4   6    -0.03  -0.07   0.07     0.00   0.03   0.01    -0.05   0.02   0.03
     5   6     0.01  -0.06  -0.05    -0.01  -0.08  -0.04    -0.02  -0.03  -0.04
     6   6    -0.04  -0.02  -0.00     0.00  -0.00   0.11    -0.00   0.00   0.07
     7   6     0.01  -0.06   0.05     0.01   0.08  -0.04     0.02   0.03  -0.04
     8   6     0.06   0.12   0.02    -0.02  -0.05  -0.08    -0.06  -0.02   0.04
     9   6    -0.03  -0.07  -0.07    -0.00  -0.03   0.01     0.05  -0.02   0.03
    10   6     0.01  -0.04   0.00     0.00  -0.00   0.01    -0.00   0.00  -0.07
    11   6    -0.02   0.07  -0.00    -0.00   0.00   0.01     0.00  -0.00   0.07
    12   6     0.00   0.05   0.00    -0.00  -0.00  -0.09    -0.00  -0.00  -0.04
    13   1     0.10   0.29  -0.06     0.23  -0.07   0.10    -0.04   0.10  -0.06
    14   1    -0.20   0.16   0.25    -0.33  -0.01   0.19     0.11  -0.02  -0.08
    15   1    -0.03  -0.06  -0.19     0.11   0.03  -0.03    -0.09   0.02   0.12
    16   1     0.11  -0.18  -0.15    -0.02   0.23   0.08     0.20  -0.24  -0.24
    17   1    -0.00  -0.02   0.02     0.06  -0.25  -0.05    -0.01  -0.05   0.10
    18   1     0.11  -0.02   0.00     0.00   0.00   0.06    -0.00   0.00   0.30
    19   1     0.11  -0.18   0.15     0.02  -0.23   0.08    -0.20   0.24  -0.24
    20   1    -0.00  -0.02  -0.02    -0.06   0.25  -0.05     0.01   0.05   0.10
    21   1     0.10   0.29   0.06    -0.23   0.07   0.10     0.04  -0.10  -0.06
    22   1    -0.20   0.16  -0.25     0.33   0.01   0.19    -0.11   0.02  -0.08
    23   1    -0.03  -0.06   0.19    -0.11  -0.03  -0.03     0.09  -0.02   0.12
    24   1    -0.11  -0.17   0.03    -0.03  -0.01  -0.01    -0.28  -0.07  -0.08
    25   1    -0.11  -0.17  -0.03     0.03   0.01  -0.01     0.28   0.07  -0.08
    26   1     0.35   0.07  -0.00     0.00   0.00  -0.02     0.00  -0.00  -0.14
    27   1    -0.03  -0.01   0.00     0.07  -0.31   0.08    -0.12  -0.32   0.02
    28   1    -0.03  -0.01  -0.00    -0.07   0.31   0.08     0.12   0.32   0.02
                     34                     35                     36
                      A                      A                      A
 Frequencies --   1100.1310              1133.7815              1141.2258
 Red. masses --      1.6188                 1.2443                 1.1034
 Frc consts  --      1.1544                 0.9424                 0.8467
 IR Inten    --      1.1088                 0.4880                 0.2277
  Atom  AN      X      Y      Z        X      Y      Z        X      Y      Z
     1   8     0.02  -0.00   0.00     0.01  -0.01   0.00    -0.00   0.00   0.00
     2   6    -0.03  -0.05  -0.00     0.01   0.01  -0.00    -0.00  -0.00  -0.01
     3   6     0.04   0.03   0.06    -0.00  -0.01   0.03     0.01  -0.02   0.00
     4   6    -0.03   0.01  -0.01    -0.03   0.04  -0.02     0.01   0.02  -0.02
     5   6    -0.08   0.01  -0.05    -0.02   0.00  -0.01    -0.02   0.00   0.00
     6   6     0.11  -0.02  -0.00     0.00  -0.00   0.00     0.00  -0.00   0.01
     7   6    -0.08   0.01   0.05    -0.02   0.00   0.01     0.02  -0.00   0.00
     8   6     0.04   0.03  -0.06    -0.00  -0.01  -0.03    -0.01   0.02   0.00
     9   6    -0.03   0.01   0.01    -0.03   0.04   0.02    -0.01  -0.02  -0.02
    10   6     0.02   0.05  -0.00     0.07  -0.07   0.00    -0.00   0.00   0.05
    11   6    -0.00  -0.04  -0.00    -0.03   0.04  -0.00     0.00  -0.00  -0.03
    12   6    -0.03  -0.06   0.00     0.01   0.03  -0.00    -0.00  -0.00  -0.04
    13   1     0.30   0.12   0.19    -0.02  -0.30   0.14     0.15   0.21  -0.00
    14   1     0.02  -0.02  -0.04    -0.19  -0.10   0.03     0.08  -0.04  -0.08
    15   1    -0.21   0.00   0.16     0.26   0.04  -0.01    -0.17   0.01   0.17
    16   1     0.11   0.27  -0.06     0.02   0.03  -0.01     0.03  -0.01  -0.03
    17   1     0.02  -0.21   0.14    -0.10   0.21   0.18     0.10  -0.29  -0.13
    18   1     0.32  -0.01  -0.00     0.46   0.01   0.00    -0.00  -0.00   0.45
    19   1     0.11   0.27   0.06     0.02   0.03   0.01    -0.03   0.01  -0.03
    20   1     0.02  -0.21  -0.14    -0.10   0.21  -0.18    -0.10   0.29  -0.13
    21   1     0.30   0.12  -0.19    -0.02  -0.30  -0.14    -0.15  -0.21  -0.00
    22   1     0.02  -0.02   0.04    -0.19  -0.10  -0.03    -0.08   0.04  -0.08
    23   1    -0.21   0.00  -0.16     0.26   0.04   0.01     0.17  -0.01   0.17
    24   1     0.04   0.08  -0.02    -0.09  -0.12   0.02     0.09   0.02   0.03
    25   1     0.04   0.08   0.02    -0.09  -0.12  -0.02    -0.09  -0.02   0.03
    26   1    -0.19  -0.04   0.00     0.19   0.04   0.00    -0.00  -0.00   0.05
    27   1    -0.08  -0.15   0.00    -0.09  -0.14   0.00     0.26   0.25   0.03
    28   1    -0.08  -0.15  -0.00    -0.09  -0.14  -0.00    -0.26  -0.25   0.03
                     37                     38                     39
                      A                      A                      A
 Frequencies --   1165.1544              1166.8497              1217.6833
 Red. masses --      4.0730                 1.1855                 1.1142
 Frc consts  --      3.2579                 0.9510                 0.9734
 IR Inten    --      0.6920                 0.3390                 0.1251
  Atom  AN      X      Y      Z        X      Y      Z        X      Y      Z
     1   8     0.02  -0.02   0.00    -0.00   0.00   0.00    -0.02   0.01   0.00
     2   6     0.03   0.03  -0.00    -0.00  -0.00  -0.01    -0.01  -0.01  -0.00
     3   6    -0.11   0.01   0.07    -0.02  -0.05   0.00     0.01   0.01   0.00
     4   6     0.03  -0.04  -0.04     0.02   0.01  -0.03    -0.01  -0.03  -0.01
     5   6     0.08   0.04  -0.00    -0.01   0.01   0.02     0.01   0.00  -0.02
     6   6    -0.06  -0.13   0.00     0.00   0.00  -0.00    -0.01  -0.01  -0.00
     7   6     0.08   0.04   0.00     0.01  -0.01   0.02     0.01   0.00   0.02
     8   6    -0.11   0.01  -0.07     0.02   0.05   0.00     0.01   0.01  -0.00
     9   6     0.03  -0.04   0.04    -0.02  -0.01  -0.03    -0.01  -0.03   0.01
    10   6     0.37   0.16   0.00    -0.00  -0.00   0.07     0.01   0.06  -0.00
    11   6    -0.15  -0.06  -0.00     0.00   0.00  -0.03     0.01  -0.03   0.00
    12   6    -0.04   0.06  -0.00     0.00  -0.00  -0.03     0.03  -0.01   0.00
    13   1     0.02   0.12   0.11     0.01  -0.01   0.01    -0.28   0.09  -0.21
    14   1    -0.22   0.05   0.14    -0.29  -0.07   0.12     0.25   0.02  -0.15
    15   1    -0.22  -0.05   0.08     0.30   0.02  -0.11    -0.14  -0.03   0.02
    16   1    -0.09  -0.10   0.04     0.11  -0.33  -0.19     0.07  -0.17  -0.12
    17   1     0.07   0.03  -0.19    -0.08   0.17   0.12    -0.09   0.27   0.13
    18   1    -0.22  -0.14   0.00     0.00   0.00   0.34     0.37   0.00   0.00
    19   1    -0.09  -0.10  -0.04    -0.11   0.33  -0.19     0.07  -0.17   0.12
    20   1     0.07   0.03   0.19     0.08  -0.17   0.12    -0.09   0.27  -0.13
    21   1     0.02   0.12  -0.11    -0.01   0.01   0.01    -0.28   0.09   0.21
    22   1    -0.22   0.05  -0.14     0.29   0.07   0.12     0.25   0.02   0.15
    23   1    -0.22  -0.05  -0.08    -0.30  -0.02  -0.11    -0.14  -0.03  -0.02
    24   1    -0.23  -0.10  -0.03     0.12   0.02   0.03     0.03   0.06  -0.02
    25   1    -0.23  -0.10   0.03    -0.12  -0.02   0.03     0.03   0.06   0.02
    26   1    -0.25  -0.06   0.00     0.00   0.00   0.06    -0.14  -0.03   0.00
    27   1    -0.09  -0.08   0.02     0.05  -0.03   0.02    -0.07  -0.18   0.00
    28   1    -0.09  -0.08  -0.02    -0.05   0.03   0.02    -0.07  -0.18  -0.00
                     40                     41                     42
                      A                      A                      A
 Frequencies --   1248.6150              1271.0663              1290.1237
 Red. masses --      1.8386                 1.4791                 1.8261
 Frc consts  --      1.6888                 1.4080                 1.7908
 IR Inten    --      9.2617                 4.4767                 0.3656
  Atom  AN      X      Y      Z        X      Y      Z        X      Y      Z
     1   8     0.00  -0.00  -0.03    -0.00  -0.00   0.02     0.03  -0.01   0.00
     2   6     0.00  -0.00   0.19     0.00   0.00  -0.11    -0.02  -0.03  -0.00
     3   6    -0.02  -0.05  -0.05    -0.07  -0.04   0.01    -0.01   0.10  -0.03
     4   6     0.05   0.01   0.01     0.05   0.03  -0.00    -0.02  -0.05   0.02
     5   6     0.02   0.03   0.03     0.01   0.05   0.02     0.04  -0.08   0.00
     6   6     0.00  -0.00  -0.08     0.00  -0.00  -0.05    -0.08   0.04  -0.00
     7   6    -0.02  -0.03   0.03    -0.01  -0.05   0.02     0.04  -0.08  -0.00
     8   6     0.02   0.05  -0.05     0.07   0.04   0.01    -0.01   0.10   0.03
     9   6    -0.05  -0.01   0.01    -0.05  -0.03  -0.00    -0.02  -0.05  -0.02
    10   6     0.00   0.00  -0.09     0.00   0.00  -0.01    -0.03   0.11  -0.00
    11   6    -0.00  -0.00   0.04    -0.00   0.00   0.02     0.01  -0.05   0.00
    12   6    -0.00  -0.00   0.04    -0.00  -0.00   0.02     0.06   0.02   0.00
    13   1    -0.17   0.40  -0.34     0.43   0.11   0.27     0.05  -0.37   0.21
    14   1    -0.16   0.01   0.13    -0.13   0.01   0.10     0.14   0.08  -0.04
    15   1    -0.20   0.00   0.10    -0.11   0.02   0.13     0.08  -0.04  -0.15
    16   1    -0.00  -0.11  -0.02    -0.02  -0.05  -0.00    -0.16   0.24   0.24
    17   1     0.01   0.03  -0.08     0.06  -0.09  -0.12    -0.00   0.01  -0.05
    18   1     0.00  -0.00   0.13     0.00   0.00  -0.21    -0.05   0.04  -0.00
    19   1     0.00   0.11  -0.02     0.02   0.05  -0.00    -0.16   0.24  -0.24
    20   1    -0.01  -0.03  -0.08    -0.06   0.09  -0.12    -0.00   0.01   0.05
    21   1     0.17  -0.40  -0.34    -0.43  -0.11   0.27     0.05  -0.37  -0.21
    22   1     0.16  -0.01   0.13     0.13  -0.01   0.10     0.14   0.08   0.04
    23   1     0.20  -0.00   0.10     0.11  -0.02   0.13     0.08  -0.04   0.15
    24   1    -0.13  -0.02  -0.03    -0.06  -0.02  -0.01     0.04   0.10  -0.04
    25   1     0.13   0.02  -0.03     0.06   0.02  -0.01     0.04   0.10   0.04
    26   1     0.00  -0.00  -0.08     0.00  -0.00  -0.03    -0.15  -0.04  -0.00
    27   1    -0.14  -0.05  -0.03    -0.21  -0.24  -0.01    -0.10  -0.20  -0.01
    28   1     0.14   0.05  -0.03     0.21   0.24  -0.01    -0.10  -0.20   0.01
                     43                     44                     45
                      A                      A                      A
 Frequencies --   1310.3117              1313.6237              1328.4582
 Red. masses --      1.7661                 1.6068                 1.6245
 Frc consts  --      1.7866                 1.6336                 1.6892
[...]
 ,0.00029296,0.00223866,-0.00197773,-0.00471534,0.00084839,0.00152736,0
 .00051680,0.00000817,-0.00002002,-0.00067768,-0.00000425,0.00000804,0.
 00020159,-0.00011164,0.00012280,0.00005924,-0.00002647,0.00002809,0.00
 000319,0.00014278,-0.00011973,0.00008988,0.00003009,-0.00002312,-0.000
 00373,-0.00110856,-0.00146744,0.00004393,0.00051416,0.00046755,0.00097
 718,0.00092779,-0.00023381,0.00090202,0.00074391,0.00097748,0.05485758
 ,-0.00142958,0.00139254,-0.00063506,-0.00010016,-0.00416415,0.00366640
 ,-0.00014756,0.00021395,-0.00049741,-0.00204122,-0.00300124,-0.0000165
 3,-0.00020776,-0.00007233,-0.00018654,-0.00003360,-0.00002759,0.000269
 80,0.00068717,-0.00047052,-0.00179780,-0.01273558,0.01774623,0.0033108
 3,-0.12971420,0.11875123,-0.00213800,0.01064784,-0.01591159,-0.0000127
 9,0.00108120,-0.00040460,-0.00046833,0.00115006,-0.00035702,0.00028101
 ,0.00005335,0.00014176,-0.00011163,0.00093845,-0.00107120,-0.00003052,
 0.00001488,-0.00008170,0.00018633,0.00007631,0.00001221,0.00007029,-0.
 00000784,-0.00000438,-0.00004193,0.00007956,0.00005360,-0.00004407,0.0
 0084879,-0.00028930,0.00063051,-0.00002714,-0.00040170,-0.00017015,0.0
 0015196,-0.00023455,-0.00049801,0.14125172,0.00010214,-0.00009730,-0.0
 0020896,-0.00028381,0.00097838,0.00045193,-0.00027980,0.00061712,0.000
 24618,-0.00549207,-0.00343663,0.00009313,0.00013302,0.00002931,0.00025
 185,-0.00025273,-0.00011515,-0.00025243,-0.00015828,0.00014412,0.00019
 713,-0.00013333,0.00125117,0.00035924,0.11734458,-0.21945969,-0.000949
 51,0.01573580,-0.02341856,0.00020626,0.00154866,0.00052678,-0.00074351
 ,0.00173219,0.00046102,0.00080687,0.00010805,0.00001976,-0.00012280,0.
 00107119,-0.00182416,-0.00013256,-0.00005736,0.00034177,0.00007150,-0.
 00001899,0.00003905,0.00001922,-0.00007430,0.00004358,-0.00010918,0.00
 001008,0.00000798,-0.00007519,-0.00027841,0.00008899,-0.00062718,-0.00
 018163,0.00021372,-0.00005252,0.00025641,0.00055441,-0.00046073,-0.127
 97685,0.24025805,0.00218901,-0.00173677,0.00124894,0.00094501,0.003973
 97,-0.00533423,-0.00034636,0.00004966,0.00061040,0.00008301,0.00003413
 ,0.00002590,0.00021787,0.00006447,0.00029330,-0.00012724,0.00010361,-0
 .00025905,0.00071552,-0.00122722,0.00206444,0.01720521,-0.02473168,-0.
 00414558,-0.00199712,-0.00081397,-0.04899336,-0.00067345,-0.00025583,-
 0.00121594,-0.00055459,0.00079569,0.00021046,0.00050605,-0.00084280,0.
 00012937,-0.00006524,-0.00010262,0.00005924,-0.00003052,0.00013256,0.0
 0068227,0.00032199,-0.00029626,0.00024557,-0.00006780,0.00002539,-0.00
 007788,-0.00000170,0.00004160,0.00001279,-0.00006600,-0.00004875,-0.00
 001633,-0.00059893,0.00069089,-0.00032213,-0.00002919,0.00041391,0.000
 39112,-0.00059328,0.00044800,0.00094608,-0.00188303,0.00039768,0.05266
 378,0.00012660,-0.00043246,-0.00028901,0.00135680,-0.00004882,0.000437
 68,0.00000374,-0.00003120,0.00010163,0.00028780,0.00123421,0.00008873,
 -0.00001900,0.00005164,-0.00007539,-0.00034319,-0.00013936,0.00046678,
 -0.00271704,0.00039741,0.00334395,0.01204904,0.00085040,0.01739466,-0.
 13275639,-0.00043851,-0.11962301,-0.01241285,0.00024327,-0.01617055,0.
 00033897,0.00069962,-0.00145960,-0.00182971,-0.00414837,0.00140091,0.0
 0004338,0.00001428,-0.00002647,0.00001488,0.00005736,0.00032199,0.0006
 4440,-0.00037789,0.00028806,-0.00001264,0.00007175,0.00000146,0.000087
 09,-0.00007519,-0.00001989,0.00013579,0.00010012,-0.00013010,-0.000031
 46,-0.00017876,0.00003539,0.00086402,-0.00003334,0.00116025,0.00088527
 ,-0.00008834,-0.00090795,-0.01072753,-0.00034426,-0.01519347,0.1440152
 8,-0.00007565,0.00008218,0.00013397,-0.00034136,-0.00010810,-0.0007813
 5,0.00022275,-0.00017365,0.00011166,-0.00083413,0.00150080,-0.00114713
 ,-0.00007602,0.00017626,0.00001385,-0.00016010,0.00000107,0.00045790,0
 .00000348,0.00053182,0.00062314,0.00052255,-0.00059083,-0.00040743,0.0
 0011570,-0.05126965,-0.00260414,-0.01603446,-0.00148174,-0.02258508,0.
 00071420,0.00085034,-0.00101865,-0.00255544,-0.00472278,0.00121539,0.0
 0004492,-0.00001046,-0.00002809,0.00008170,0.00034177,0.00029626,0.000
 37789,-0.00042785,0.00050423,0.00000149,0.00004372,0.00004134,0.000076
 08,-0.00006739,0.00003546,0.00012255,0.00005859,-0.00004116,-0.0003981
 5,0.00020773,-0.00042080,-0.00002971,0.00042110,0.00025026,0.00031460,
 0.00008464,0.00025291,0.01551159,0.00094262,0.02286658,0.00333887,0.05
 318516,0.00148604,-0.00013706,0.00048608,-0.00268207,0.00114877,-0.000
 64679,0.00021362,-0.00022201,-0.00037261,-0.00001019,0.00040249,-0.000
 11186,-0.00022815,0.00009071,-0.00001281,0.00029724,0.00042373,0.00031
 605,0.00513102,-0.00021079,-0.00352034,-0.01382068,-0.00136414,-0.0214
 5141,-0.11934565,-0.00283442,-0.21862643,-0.00023990,-0.00036234,-0.00
 037614,0.00066747,0.00031253,0.00080529,0.00066551,-0.00019208,0.00128
 743,-0.00000764,-0.00010556,0.00000319,0.00018633,-0.00007150,0.000245
 57,0.00028806,-0.00050423,0.00034850,0.00004556,-0.00011303,0.00001889
 ,0.00002599,0.00003647,0.00006241,-0.00007257,-0.00008767,0.00000593,0
 .00017933,0.00005711,0.00039477,-0.00116065,-0.00024071,-0.00146910,-0
 .00003343,0.00047175,0.00090749,-0.00000918,0.00058477,0.00066290,0.12
 867477,0.00298037,0.24025747,-0.00007484,-0.00033754,0.00002251,0.0002
 7163,0.00088224,-0.00021290,-0.00036980,0.00123308,-0.00032720,-0.0017
 5629,-0.00164789,0.00399279,-0.00006927,-0.00002794,-0.00013462,-0.000
 05265,-0.00019583,0.00002781,0.00000111,0.00006688,-0.00002184,0.00027
 462,-0.00046347,-0.00000161,0.00035005,0.00147602,-0.00072176,-0.01255
 284,0.01572900,-0.00056897,-0.13741381,0.12264291,0.00148846,0.0004368
 6,-0.00025182,-0.00116727,-0.00029002,-0.00006182,0.00045347,0.0001838
 1,0.00024643,0.00003348,0.00033783,-0.00035423,0.00002589,0.00002502,-
 0.00000783,0.00000595,0.00008149,-0.00003182,0.00010028,0.00001488,-0.
 00004684,0.00001870,0.00001543,-0.00004862,0.00003871,-0.00000795,-0.0
 0000903,-0.00001936,-0.00000767,-0.00003609,-0.00000004,0.00004118,-0.
 00095302,0.00030327,-0.00009067,-0.00000792,0.00003025,0.14764798,0.00
 013566,0.00013836,0.00004421,-0.00017658,-0.00031316,-0.00005639,0.000
 15658,0.00017758,0.00039475,-0.00011872,0.00103104,-0.00081686,-0.0000
 6790,-0.00003007,0.00014671,-0.00018458,0.00022434,-0.00023910,0.00004
 355,-0.00002961,0.00005880,0.00002495,0.00027147,-0.00011379,-0.000680
 05,0.00067944,0.00022936,-0.00055940,-0.00064973,-0.00027257,0.1229701
 0,-0.22072792,-0.00249545,-0.00001698,-0.00007251,0.00041638,0.0000665
 1,0.00000696,-0.00011910,-0.00010906,0.00040406,0.00016564,-0.00006976
 ,-0.00001512,0.00014171,-0.00001454,0.00001409,0.00001027,-0.00004615,
 0.00003680,-0.00005601,0.00001790,0.00001053,-0.00006802,-0.00001342,0
 .00003896,-0.00001581,-0.00001249,-0.00000717,-0.00001131,0.00002527,0
 .00001909,-0.00006109,0.00020559,0.00045919,0.00002713,-0.00003087,-0.
 00003234,-0.00004151,-0.13629016,0.23793918,0.00011016,0.00024941,0.00
 003130,-0.00020923,-0.00065498,0.00002858,0.00116966,-0.00131848,0.000
 38786,0.00237627,0.00129527,-0.00469525,0.00002597,-0.00009686,0.00042
 067,0.00000885,0.00025993,0.00009729,0.00003040,0.00000607,0.00005947,
 -0.00027856,0.00001902,-0.00004689,-0.00070287,-0.00092662,0.00080368,
 0.01579903,-0.02323960,-0.00067365,0.00115021,-0.00208137,-0.04910723,
 0.00069574,-0.00118254,0.00157578,0.00032049,0.00004643,-0.00053628,-0
 .00020711,0.00015307,-0.00011648,0.00032095,0.00004736,0.00019098,-0.0
 0002072,-0.00000933,-0.00001444,-0.00007413,0.00007195,-0.00003193,-0.
 00004784,0.00002071,0.00003114,-0.00000221,0.00003974,-0.00003007,-0.0
 0002799,-0.00001187,0.00000822,-0.00004184,0.00003896,0.00003110,-0.00
 005956,0.00056939,0.00013928,-0.00002106,0.00018265,-0.00000851,-0.004
 34359,0.00258373,0.05143091,-0.00007484,0.00033754,0.00002251,0.000271
 63,-0.00088224,-0.00021290,0.00027462,0.00046347,-0.00000161,0.0003500
 6,-0.00147602,-0.00072176,0.00000111,-0.00006688,-0.00002184,-0.000052
 65,0.00019583,0.00002781,-0.00006927,0.00002794,-0.00013462,-0.0003698
 0,-0.00123309,-0.00032720,-0.00175629,0.00164789,0.00399279,-0.0125528
 4,-0.01572901,-0.00056894,-0.13741454,-0.12264441,0.00148852,0.0004368
 6,0.00025182,-0.00116726,-0.00000767,0.00003609,-0.00000004,0.00004118
 ,0.00095302,0.00030327,-0.00009067,0.00000792,0.00003025,0.00001543,0.
 00004862,0.00003871,-0.00000795,0.00000903,-0.00001936,0.00001488,0.00
 004684,0.00001870,0.00002502,0.00000783,0.00000595,0.00008149,0.000031
 82,0.00010028,-0.00029002,0.00006182,0.00045347,0.00018381,-0.00024643
 ,0.00003348,0.00033783,0.00035423,0.00002589,0.01314812,0.01621028,-0.
 00026518,0.14764868,-0.00013566,0.00013835,-0.00004421,0.00017658,-0.0
 0031316,0.00005639,-0.00002496,0.00027147,0.00011379,0.00068005,0.0006
 7944,-0.00022936,-0.00004355,-0.00002961,-0.00005880,0.00018458,0.0002
 2434,0.00023910,0.00006790,-0.00003007,-0.00014671,-0.00015658,0.00017
 758,-0.00039475,0.00011872,0.00103104,0.00081686,0.00055941,-0.0006497
 1,0.00027256,-0.12297164,-0.22072971,0.00249553,0.00001699,-0.00007251
 ,-0.00041638,-0.00002527,0.00001909,0.00006109,-0.00020560,0.00045919,
 -0.00002713,0.00003087,-0.00003234,0.00004151,0.00001342,0.00003896,0.
 00001581,0.00001249,-0.00000717,0.00001131,-0.00001790,0.00001053,0.00
 006802,0.00001454,0.00001410,-0.00001027,0.00004615,0.00003680,0.00005
 601,-0.00006651,0.00000696,0.00011910,0.00010906,0.00040406,-0.0001656
 4,0.00006976,-0.00001512,-0.00014171,-0.01621023,-0.02081634,-0.000163
 82,0.13629161,0.23794094,0.00011016,-0.00024941,0.00003130,-0.00020923
 ,0.00065498,0.00002858,-0.00027856,-0.00001902,-0.00004689,-0.00070287
 ,0.00092662,0.00080369,0.00003040,-0.00000607,0.00005947,0.00000885,-0
 .00025993,0.00009729,0.00002597,0.00009686,0.00042067,0.00116966,0.001
 31848,0.00038786,0.00237627,-0.00129527,-0.00469525,0.01579906,0.02323
 964,-0.00067368,0.00115027,0.00208146,-0.04910695,0.00069573,0.0011825
 4,0.00157579,-0.00004184,-0.00003896,0.00003110,-0.00005956,-0.0005694
 0,0.00013928,-0.00002106,-0.00018265,-0.00000851,-0.00000221,-0.000039
 74,-0.00003007,-0.00002799,0.00001187,0.00000822,-0.00004784,-0.000020
 71,0.00003114,-0.00002072,0.00000933,-0.00001444,-0.00007413,-0.000071
 95,-0.00003193,0.00032049,-0.00004643,-0.00053628,-0.00020711,-0.00015
 308,-0.00011648,0.00032095,-0.00004736,0.00019098,-0.00026517,0.000163
 83,-0.00090071,-0.00434369,-0.00258383,0.05143062,0.00008932,0.,0.0000
 1845,-0.00010187,0.,-0.00004203,0.00019642,-0.00018791,-0.00008325,0.0
 0111125,-0.00036444,0.00040723,0.00015617,-0.00012162,-0.00000968,0.00
 067174,0.,0.00107783,0.00015617,0.00012162,-0.00000968,0.00019642,0.00
 018791,-0.00008325,0.00111125,0.00036444,0.00040723,0.01117521,0.00000
 001,0.01634286,-0.13204870,-0.00000017,-0.12130427,-0.00208253,0.,0.00
 242574,0.00003956,0.00000078,-0.00006982,-0.00009503,0.00008934,-0.000
 08513,-0.00001831,-0.00005535,-0.00026941,-0.00000578,0.00001796,0.000
 00973,-0.00000020,-0.00000677,-0.00003413,-0.00019904,0.,0.00029092,-0
 .00000578,-0.00001796,0.00000973,-0.00000020,0.00000677,-0.00003413,0.
 00003956,-0.00000077,-0.00006982,-0.00009503,-0.00008934,-0.00008513,-
 0.00001831,0.00005535,-0.00026941,-0.01080295,-0.00131416,-0.01519377,
 -0.01080293,0.00131418,-0.01519377,0.14134742,0.,-0.00010162,0.,0.,0.0
 0025551,0.,0.00005539,-0.00011398,0.00015752,-0.00067162,0.00013732,-0
 .00082090,-0.00016847,0.00000504,0.00009151,0.,0.00051936,0.,0.0001684
 7,0.00000504,-0.00009150,-0.00005539,-0.00011398,-0.00015752,0.0006716
 2,0.00013732,0.00082090,0.,-0.00175596,0.,-0.00000016,-0.04955644,-0.0
 0000017,0.,-0.00007278,0.,-0.00000424,-0.00001455,-0.00000472,-0.00005
 414,-0.00002729,-0.00008814,0.00033598,0.00014147,0.00000817,-0.000002
 34,0.00000303,-0.00000188,0.00000584,0.00002872,0.00002716,0.,-0.00002
 798,0.,0.00000234,0.00000303,0.00000188,-0.00000584,0.00002872,-0.0000
 2716,0.00000424,-0.00001455,0.00000472,0.00005414,-0.00002729,0.000088
 14,-0.00033598,0.00014147,-0.00000817,0.01504197,0.00094846,0.02348422
 ,-0.01504195,0.00094848,-0.02348426,0.00000014,0.04804469,0.00012470,0
 .,0.00001037,-0.00018380,0.,0.00001313,0.00033298,0.00011795,0.0002577
 6,-0.00158545,0.00070693,0.00058174,-0.00027772,0.00023354,0.00004376,
 -0.00193104,0.,-0.00082171,-0.00027772,-0.00023354,0.00004376,0.000332
 98,-0.00011795,0.00025776,-0.00158545,-0.00070693,0.00058174,-0.016291
 42,-0.00000001,-0.02317307,-0.12069192,-0.00000019,-0.22570032,0.00576
 194,0.,-0.00353489,0.00005216,-0.00000755,0.00002518,0.00007788,-0.000
 02944,0.00000143,0.00095230,-0.00059448,0.00049894,0.00000455,-0.00001
 324,0.00001881,0.00015453,-0.00010166,0.00006422,0.00047135,0.,-0.0006
 3680,0.00000455,0.00001324,0.00001881,0.00015453,0.00010166,0.00006422
 ,0.00005216,0.00000755,0.00002518,0.00007788,0.00002944,0.00000143,0.0
 0095231,0.00059448,0.00049893,0.00081907,0.00053938,0.00135185,0.00081
 911,-0.00053937,0.00135187,0.13154796,0.00000019,0.24757520,-0.0000278
 1,-0.00039271,-0.00000217,0.00023384,0.00100871,-0.00000127,0.00043526
 ,-0.00039722,-0.00007005,-0.00121786,-0.00169048,-0.00364797,-0.001100
 65,-0.00164035,0.00385403,-0.01204539,0.01531242,0.00007293,0.00029896
 ,0.00143248,-0.00075444,-0.00009837,-0.00050572,-0.00001585,0.00022148
 ,0.00152195,0.00066108,-0.01250413,0.01575607,-0.00069621,0.00044564,-
 0.00020506,0.00119703,-0.13628955,0.11738002,-0.00039988,-0.00001578,-
 0.00002064,0.00002687,0.00013643,0.00023755,0.00002959,-0.00061450,0.0
 0111049,-0.00004514,0.00012361,0.00023391,-0.00003085,-0.00059336,0.00
 108452,-0.00004192,0.00083506,-0.00035744,-0.00000338,-0.00004035,-0.0
 0094531,0.00018176,0.00041309,-0.00020680,0.00001059,-0.00005769,-0.00
 004127,0.00000141,-0.00007551,-0.00098397,-0.00023696,0.00038240,-0.00
 023451,0.00000757,0.00060995,-0.00024616,-0.00043609,0.00004880,-0.000
 09461,-0.00007598,-0.00000692,-0.00030165,0.00006580,0.14796788,0.0001
 9903,0.00017742,-0.00000195,-0.00029317,-0.00044475,0.00000697,-0.0001
 0912,0.00010526,0.00005514,-0.00023586,0.00118213,0.00070624,-0.000400
 46,0.00107303,-0.00071573,-0.00081504,-0.00061824,-0.00024665,-0.00063
 645,0.00056808,0.00032995,0.00010872,0.00004684,-0.00001115,-0.0006948
 1,0.00050558,-0.00028006,-0.00013950,-0.00131203,0.00005132,-0.0000372
 3,-0.00003038,-0.00037672,0.11829077,-0.21483937,0.00058215,0.00005327
 ,-0.00003398,-0.00001813,-0.00013649,0.00043564,-0.00013829,0.00040719
 ,0.00012336,-0.00001215,-0.00013021,0.00044343,0.00012926,0.00037131,0
 .00009965,0.00009472,0.00001241,0.00011545,-0.00054320,0.00018852,0.00
 056639,0.00005657,-0.00003509,0.00021413,-0.00010911,0.00000726,0.0000
 2418,0.00000517,0.00014032,0.00056207,-0.00007019,-0.00001812,0.000207
 24,0.00011608,-0.00023935,0.00036395,0.00060463,0.00009707,-0.00006953
 ,-0.00001292,-0.00024234,0.00023939,0.00014497,-0.13126345,0.23173120,
 -0.00000438,0.00001957,-0.00002289,0.00000113,-0.00005483,-0.00005046,
 0.00008733,-0.00007253,-0.00043831,-0.00304466,-0.00103181,-0.00522625
 ,0.00324775,0.00141492,-0.00507784,0.01716337,-0.02352984,0.00008333,-
 0.00066142,-0.00105475,0.00105263,-0.00001034,0.00002514,-0.00025557,0
 .00064711,0.00104131,0.00096309,-0.01618592,0.02307415,-0.00085861,-0.
 00085812,0.00117801,0.00149868,-0.00040183,0.00042161,-0.04796866,0.00
 002452,0.00000279,0.00028780,0.00021802,-0.00023886,-0.00000894,-0.001
 45085,0.00147807,0.00013847,-0.00025237,0.00030379,-0.00001506,0.00142
 822,-0.00145364,0.00009454,-0.00084054,-0.00019038,0.00095309,-0.00008
 916,0.00069791,0.00009589,-0.00041574,-0.00002411,-0.00007596,0.000000
 78,0.00000225,0.00008790,0.00009659,-0.00063581,0.00010266,0.00037782,
 -0.00000119,-0.00003435,0.00038383,-0.00055030,-0.00032245,0.00003982,
 0.00000457,-0.00010421,0.00014951,-0.00028000,0.00029035,0.00027953,-0
 .00044647,0.05506957,-0.00002781,0.00039271,-0.00000217,0.00023384,-0.
 00100871,-0.00000127,-0.00009837,0.00050572,-0.00001585,0.00022148,-0.
 00152196,0.00066108,0.00029896,-0.00143248,-0.00075444,-0.01204539,-0.
 01531244,0.00007294,-0.00110065,0.00164034,0.00385404,0.00043526,0.000
 39722,-0.00007005,-0.00121786,0.00169048,-0.00364797,-0.01250414,-0.01
 575609,-0.00069623,0.00044564,0.00020507,0.00119703,-0.13628971,-0.117
 38057,-0.00039988,-0.00005769,0.00004127,0.00000141,-0.00007550,0.0009
 8397,-0.00023696,0.00038240,0.00023451,0.00000757,-0.00004035,0.000945
 31,0.00018176,0.00041309,0.00020680,0.00001059,0.00083506,0.00035745,-
 0.00000338,0.00012361,-0.00023391,-0.00003085,-0.00059336,-0.00108452,
 -0.00004191,-0.00001578,0.00002064,0.00002687,0.00013643,-0.00023755,0
 .00002959,-0.00061450,-0.00111050,-0.00004514,0.00004880,0.00009461,-0
 .00007598,0.00060995,0.00024616,-0.00043609,-0.00000692,0.00030165,0.0
 0006580,0.01253546,0.01555082,0.00006998,0.14796805,-0.00019903,0.0001
 7742,0.00000195,0.00029317,-0.00044476,-0.00000697,-0.00010872,0.00004
 684,0.00001115,0.00069481,0.00050559,0.00028006,0.00063645,0.00056808,
 -0.00032995,0.00081503,-0.00061824,0.00024665,0.00040046,0.00107303,0.
 00071573,0.00010912,0.00010526,-0.00005514,0.00023586,0.00118213,-0.00
 070624,0.00013949,-0.00131204,-0.00005133,0.00003723,-0.00003038,0.000
 37672,-0.11829134,-0.21484022,-0.00058214,-0.00000726,0.00002418,-0.00
 000517,-0.00014032,0.00056207,0.00007019,0.00001812,0.00020724,-0.0001
 1608,-0.00018852,0.00056639,-0.00005656,0.00003509,0.00021413,0.000109
 11,-0.00001241,0.00011545,0.00054320,0.00013021,0.00044343,-0.00012926
 ,-0.00037131,0.00009965,-0.00009472,-0.00005327,-0.00003398,0.00001813
 ,0.00013649,0.00043564,0.00013829,-0.00040719,0.00012336,0.00001215,-0
 .00009707,-0.00006953,0.00001292,0.00023935,0.00036395,-0.00060464,0.0
 0024234,0.00023939,-0.00014497,-0.01555078,-0.02143616,-0.00009956,0.1
 3126400,0.23173206,-0.00000438,-0.00001957,-0.00002289,0.00000113,0.00
 005483,-0.00005046,-0.00001034,-0.00002514,-0.00025557,0.00064711,-0.0
 0104132,0.00096309,-0.00066143,0.00105475,0.00105263,0.01716339,0.0235
 2987,0.00008331,0.00324776,-0.00141492,-0.00507785,0.00008733,0.000072
 53,-0.00043831,-0.00304466,0.00103181,-0.00522624,-0.01618595,-0.02307
 418,-0.00085863,-0.00085811,-0.00117800,0.00149868,-0.00040183,-0.0004
 2161,-0.04796853,0.00000078,-0.00000225,0.00008790,0.00009660,0.000635
 82,0.00010266,0.00037782,0.00000119,-0.00003435,-0.00008916,-0.0006979
 1,0.00009589,-0.00041574,0.00002411,-0.00007596,-0.00084054,0.00019038
 ,0.00095309,-0.00025237,-0.00030379,-0.00001506,0.00142822,0.00145364,
 0.00009454,0.00002452,-0.00000279,0.00028780,0.00021802,0.00023886,-0.
 00000894,-0.00145085,-0.00147808,0.00013847,0.00003982,-0.00000457,-0.
 00010421,0.00038383,0.00055030,-0.00032245,0.00014951,0.00028000,0.000
 29035,0.00006998,0.00009956,-0.00025844,0.00027953,0.00044647,0.055069
 46\\-0.00018587,-0.00000007,-0.00004833,0.00005253,-0.00000008,0.00030
 582,0.00002021,-0.00003779,-0.00019571,0.00001321,-0.00003979,0.000086
 78,0.00001618,-0.00009203,-0.00000917,-0.00005698,-0.00000022,0.000002
 44,0.00001611,0.00009204,-0.00000918,0.00001980,0.00003800,-0.00019565
 ,0.00001394,0.00004061,0.00008694,-0.00007498,-0.00000057,-0.00002580,
 0.00002427,-0.00000076,-0.00001352,0.00007577,-0.00000019,0.00005408,0
 .00002446,-0.00000623,0.00002179,0.00000521,-0.00000654,-0.00001488,0.
 00001186,-0.00001271,-0.00000990,-0.00001234,0.00002804,-0.00001580,-0
 .00000109,-0.00001310,-0.00000549,-0.00000182,0.00000002,0.00003011,-0
 .00001226,-0.00002798,-0.00001576,-0.00000110,0.00001307,-0.00000550,0
 .00002447,0.00000620,0.00002187,0.00000526,0.00000642,-0.00001492,0.00
 001160,0.00001259,-0.00001013,0.00000561,0.00001505,-0.00000266,0.0000
 0610,-0.00001434,-0.00000276,0.00001861,0.00000007,0.00000123,-0.00000
 950,0.00001904,-0.00000795,-0.00000924,-0.00001875,-0.00000796\\\@


 Time has a wonderful way of weeding out the trivial.
                                -- Richard Ben Sapir
 Job cpu time:       0 days  0 hours  3 minutes 26.8 seconds.
 Elapsed time:       0 days  0 hours  3 minutes 34.8 seconds.
 File lengths (MBytes):  RWF=    151 Int=      0 D2E=      0 Chk=      6 Scr=      1
 Normal termination of Gaussian 16 at Thu Feb 22 11:06:00 2024.
