 Entering Gaussian System, Link 0=g16
 Input=/Volumes/SSD-PMU3/b3lyp_6-31gd_freq/YNZLLBXTQLRISL-SSDOTTSWSA-N_calculating/gaussianinput0.gjf
 Output=/Volumes/SSD-PMU3/b3lyp_6-31gd_freq/YNZLLBXTQLRISL-SSDOTTSWSA-N_calculating/gaussianinput0.log
 Initial command:
 /Applications/g16/l1.exe "/Users/macmini_m1_2022/PycharmProjects/sphere_model/sphere_model_lib/Gau-55892.inp" -scrdir="/Users/macmini_m1_2022/PycharmProjects/sphere_model/sphere_model_lib/"
 Entering Link 1 = /Applications/g16/l1.exe PID=     55893.
  
 Copyright (c) 1988,1990,1992,1993,1995,1998,2003,2009,2016,
            Gaussian, Inc.  All Rights Reserved.
  
 This is part of the Gaussian(R) 16 program.  It is based on
 the Gaussian(R) 09 system (copyright 2009, Gaussian, Inc.),
 the Gaussian(R) 03 system (copyright 2003, Gaussian, Inc.),
 the Gaussian(R) 98 system (copyright 1998, Gaussian, Inc.),
 the Gaussian(R) 94 system (copyright 1995, Gaussian, Inc.),
 the Gaussian 92(TM) system (copyright 1992, Gaussian, Inc.),
 the Gaussian 90(TM) system (copyright 1990, Gaussian, Inc.),
 the Gaussian 88(TM) system (copyright 1988, Gaussian, Inc.),
 the Gaussian 86(TM) system (copyright 1986, Carnegie Mellon
 University), and the Gaussian 82(TM) system (copyright 1983,
 Carnegie Mellon University). Gaussian is a federally registered
 trademark of Gaussian, Inc.
  
 This software contains proprietary and confidential information,
 including trade secrets, belonging to Gaussian, Inc.
  
 This software is provided under written license and may be
 used, copied, transmitted, or stored only in accord with that
 written license.
  
 The following legend is applicable only to US Government
 contracts under FAR:
  
                    RESTRICTED RIGHTS LEGEND
  
 Use, reproduction and disclosure by the US Government is
 subject to restrictions as set forth in subparagraphs (a)
 and (c) of the Commercial Computer Software - Restricted
 Rights clause in FAR 52.227-19.
  
 Gaussian, Inc.
 340 Quinnipiac St., Bldg. 40, Wallingford CT 06492
  
  
 ---------------------------------------------------------------
 Warning -- This program may not be used in any manner that
 competes with the business of Gaussian, Inc. or will provide
 assistance to any competitor of Gaussian, Inc.  The licensee
 of this program is prohibited from giving any competitor of
 Gaussian, Inc. access to this program.  By using this program,
 the user acknowledges that Gaussian, Inc. is engaged in the
 business of creating and licensing software in the field of
 computational chemistry and represents and warrants to the
 licensee that it is not a competitor of Gaussian, Inc. and that
 it will not use this program in any manner prohibited above.
 ---------------------------------------------------------------
  

 Cite this work as:
 Gaussian 16, Revision A.03,
 M. J. Frisch, G. W. Trucks, H. B. Schlegel, G. E. Scuseria, 
 M. A. Robb, J. R. Cheeseman, G. Scalmani, V. Barone, 
 G. A. Petersson, H. Nakatsuji, X. Li, M. Caricato, A. V. Marenich, 
 J. Bloino, B. G. Janesko, R. Gomperts, B. Mennucci, H. P. Hratchian, 
 J. V. Ortiz, A. F. Izmaylov, J. L. Sonnenberg, D. Williams-Young, 
 F. Ding, F. Lipparini, F. Egidi, J. Goings, B. Peng, A. Petrone, 
 T. Henderson, D. Ranasinghe, V. G. Zakrzewski, J. Gao, N. Rega, 
 G. Zheng, W. Liang, M. Hada, M. Ehara, K. Toyota, R. Fukuda, 
 J. Hasegawa, M. Ishida, T. Nakajima, Y. Honda, O. Kitao, H. Nakai, 
 T. Vreven, K. Throssell, J. A. Montgomery, Jr., J. E. Peralta, 
 F. Ogliaro, M. J. Bearpark, J. J. Heyd, E. N. Brothers, K. N. Kudin, 
 V. N. Staroverov, T. A. Keith, R. Kobayashi, J. Normand, 
 K. Raghavachari, A. P. Rendell, J. C. Burant, S. S. Iyengar, 
 J. Tomasi, M. Cossi, J. M. Millam, M. Klene, C. Adamo, R. Cammi, 
 J. W. Ochterski, R. L. Martin, K. Morokuma, O. Farkas, 
 J. B. Foresman, and D. J. Fox, Gaussian, Inc., Wallingford CT, 2016.
 
 ******************************************
 Gaussian 16:  EM64M-G16RevA.03 25-Dec-2016
                21-Feb-2024 
 ******************************************
 %nprocshared=8
 Will use up to    8 processors via shared memory.
 %mem=4GB
 %chk= 0.chk
 ---------------------
 # freq b3lyp/6-31g(d)
 ---------------------
 1/10=4,30=1,38=1/1,3;
 2/12=2,17=6,18=5,40=1/2;
 3/5=1,6=6,7=1,11=2,25=1,30=1,71=2,74=-5,140=1/1,2,3;
 4//1;
 5/5=2,38=5,98=1/2;
 8/6=4,10=90,11=11/1;
 11/6=1,8=1,9=11,15=111,16=1/1,2,10;
 10/6=1/2;
 6/7=2,8=2,9=2,10=2,28=1/1;
 7/8=1,10=1,25=1/1,2,3,16;
 1/10=4,30=1/3;
 99//99;
 ---------
 good luck
 ---------
 Symbolic Z-matrix:
 Charge =  0 Multiplicity = 1
 O                     1.21138   0.        0. 
 C                     0.        0.        0. 
 C                    -0.89569  -1.24254   0.00088 
 C                    -2.31394  -0.72185   0.3193 
 C                    -3.50518  -1.6454   -0.07174 
 C                    -3.57659  -1.91496  -1.58836 
 C                    -3.35744  -2.99272   0.66601 
 C                    -4.82525  -0.98468   0.37748 
 C                    -2.30846   0.70783  -0.28866 
 C                    -0.89687   1.24199   0.00088 
 H                    -0.84263  -1.6795   -1.00677 
 H                    -0.50845  -1.99484   0.69401 
 H                    -2.37057  -0.59831   1.41274 
 H                    -4.42256  -2.57583  -1.81167 
 H                    -2.67333  -2.40925  -1.96377 
 H                    -3.7224   -0.99457  -2.16457 
 H                    -2.45936  -3.53387   0.34737 
 H                    -4.22061  -3.63942   0.46753 
 H                    -3.29408  -2.84623   1.75165 
 H                    -5.01482  -0.04726  -0.15721 
 H                    -4.81286  -0.76288   1.45209 
 H                    -5.67495  -1.65072   0.18551 
 H                    -3.09485   1.3439    0.12758 
 H                    -2.46847   0.65976  -1.37298 
 H                    -0.52753   1.99364  -0.70358 
 H                    -0.83795   1.68864   1.00406 
 

 GradGradGradGradGradGradGradGradGradGradGradGradGradGradGradGradGradGrad
 Berny optimization.
 Initialization pass.
 Trust Radius=3.00D-01 FncErr=1.00D-07 GrdErr=1.00D-07 EigMax=2.50D+02 EigMin=1.00D-04
 Number of steps in this run=      2 maximum allowed number of steps=      2.
 GradGradGradGradGradGradGradGradGradGradGradGradGradGradGradGradGradGrad

                          Input orientation:                          
 ---------------------------------------------------------------------
 Center     Atomic      Atomic             Coordinates (Angstroms)
 Number     Number       Type             X           Y           Z
 ---------------------------------------------------------------------
      1          8           0        1.211379    0.000000    0.000000
      2          6           0        0.000000    0.000000    0.000000
      3          6           0       -0.895693   -1.242544    0.000879
      4          6           0       -2.313935   -0.721851    0.319301
      5          6           0       -3.505176   -1.645403   -0.071737
      6          6           0       -3.576594   -1.914964   -1.588362
      7          6           0       -3.357444   -2.992717    0.666010
      8          6           0       -4.825250   -0.984677    0.377483
      9          6           0       -2.308458    0.707832   -0.288662
     10          6           0       -0.896874    1.241993    0.000879
     11          1           0       -0.842630   -1.679496   -1.006774
     12          1           0       -0.508450   -1.994844    0.694007
     13          1           0       -2.370571   -0.598308    1.412738
     14          1           0       -4.422563   -2.575834   -1.811665
     15          1           0       -2.673327   -2.409255   -1.963766
     16          1           0       -3.722401   -0.994566   -2.164570
     17          1           0       -2.459360   -3.533869    0.347368
     18          1           0       -4.220607   -3.639420    0.467531
     19          1           0       -3.294084   -2.846228    1.751651
     20          1           0       -5.014820   -0.047255   -0.157212
     21          1           0       -4.812856   -0.762883    1.452094
     22          1           0       -5.674946   -1.650717    0.185508
     23          1           0       -3.094853    1.343895    0.127578
     24          1           0       -2.468468    0.659758   -1.372975
     25          1           0       -0.527525    1.993642   -0.703581
     26          1           0       -0.837949    1.688641    1.004058
 ---------------------------------------------------------------------
                    Distance matrix (angstroms):
                    1          2          3          4          5
     1  O    0.000000
     2  C    1.211379   0.000000
     3  C    2.446154   1.531725   0.000000
     4  C    3.612598   2.444855   1.543996   0.000000
     5  C    4.995837   3.872823   2.641395   1.557214   0.000000
     6  C    5.395801   4.356834   3.188270   2.580117   1.542049
     7  C    5.502188   4.546686   3.092850   2.523084   1.543162
     8  C    6.128048   4.939142   3.955976   2.525701   1.543034
     9  C    3.601889   2.431734   2.425635   1.553590   2.648944
    10  C    2.446892   1.531969   2.484537   2.442568   3.891731
    11  H    2.837826   2.131742   1.099594   2.200068   2.822164
    12  H    2.723758   2.172457   1.093773   2.240690   3.112690
    13  H    3.896687   2.823722   2.140946   1.101851   2.141822
    14  H    6.454328   5.429191   4.183514   3.524852   2.175925
    15  H    4.975121   4.099703   2.895000   2.861624   2.203456
    16  H    5.478751   4.419366   3.569445   2.868408   2.202436
    17  H    5.107173   4.319415   2.795582   2.815916   2.199019
    18  H    6.555184   5.592628   4.125267   3.488492   2.186036
    19  H    5.609678   4.692578   3.374801   2.743227   2.193464
    20  H    6.228363   5.017506   4.291959   2.824345   2.200093
    21  H    6.243555   5.084698   4.204791   2.743995   2.193383
    22  H    7.083837   5.913061   4.800203   3.489568   2.184973
    23  H    4.512866   3.376455   3.397355   2.216731   3.023904
    24  H    3.982664   2.900634   2.824863   2.190096   2.842842
    25  H    2.737412   2.178972   3.332373   3.407558   4.744289
    26  H    2.838906   2.135837   3.098636   2.908247   4.403099
                    6          7          8          9         10
     6  C    0.000000
     7  C    2.508340   0.000000
     8  C    2.507812   2.503982   0.000000
     9  C    3.190055   3.963059   3.105250   0.000000
    10  C    4.435421   4.942628   4.531228   1.536793   0.000000
    11  H    2.805040   3.293485   4.273196   2.892001   3.090858
    12  H    3.824800   3.018824   4.444703   3.392657   3.332929
    13  H    3.492088   2.695314   2.691929   2.145838   2.748060
    14  H    1.096484   2.728945   2.736112   4.191830   5.503781
    15  H    1.095967   2.779238   3.484486   3.557434   4.510790
    16  H    1.095631   3.483961   2.770994   2.901107   4.204161
    17  H    2.759731   1.095871   3.478034   4.291775   5.036891
    18  H    2.759565   1.096663   2.724218   4.809027   5.923948
    19  H    3.478901   1.097310   2.774559   4.214935   5.052264
    20  H    2.757720   3.478554   1.095717   2.812798   4.317943
    21  H    3.478506   2.776385   1.097331   3.386037   4.632544
    22  H    2.760348   2.720783   1.096561   4.137733   5.588545
    23  H    3.714389   4.377792   2.911868   1.093732   2.203985
    24  H    2.811321   4.276484   3.364921   1.097109   2.167113
    25  H    5.035560   5.894743   5.339431   2.235439   1.094376
    26  H    5.216013   5.327030   4.841260   2.189865   1.099698
                   11         12         13         14         15
    11  H    0.000000
    12  H    1.761754   0.000000
    13  H    3.059021   2.436059   0.000000
    14  H    3.777194   4.683612   4.303261   0.000000
    15  H    2.190852   3.452852   3.843432   1.763720   0.000000
    16  H    3.178475   4.416050   3.844684   1.764986   1.772632
    17  H    2.808241   2.508945   3.124166   3.071387   2.579124
    18  H    4.174399   4.066452   3.682990   2.523239   3.133462
    19  H    3.870374   3.098907   2.453749   3.747506   3.792177
    20  H    4.559949   4.982474   3.124173   3.079236   3.784874
    21  H    4.759087   4.540962   2.448140   3.753830   4.353875
    22  H    4.977313   5.202853   3.678662   2.532391   3.768882
    23  H    3.937024   4.261162   2.438929   4.570312   4.317122
    24  H    2.872205   3.893712   3.058188   3.805258   3.132067
    25  H    3.699076   4.226303   3.820187   6.105676   5.057473
    26  H    3.922730   3.711167   2.783179   6.242075   5.382318
                   16         17         18         19         20
    16  H    0.000000
    17  H    3.788557   0.000000
    18  H    3.764494   1.768494   0.000000
    19  H    4.353033   1.772463   1.771034   0.000000
    20  H    2.568508   4.352178   3.731585   3.799861   0.000000
    21  H    3.784578   3.799701   3.097513   2.595521   1.772788
    22  H    3.125033   3.729940   2.479834   3.090397   1.767573
    23  H    3.334090   4.923895   5.120187   4.498270   2.388028
    24  H    2.221657   4.532788   4.994035   4.768319   2.908927
    25  H    4.612061   5.948938   6.836794   6.091499   4.959798
    26  H    5.055677   5.507706   6.333914   5.211193   4.669918
                   21         22         23         24         25
    21  H    0.000000
    22  H    1.770788   0.000000
    23  H    3.023969   3.953219   0.000000
    24  H    3.937141   4.248372   1.764103   0.000000
    25  H    5.532579   6.369284   2.775639   2.448386   0.000000
    26  H    4.691545   5.934465   2.445543   3.060634   1.762220
                   26
    26  H    0.000000
 Stoichiometry    C9H16O
 Framework group  C1[X(C9H16O)]
 Deg. of freedom    72
 Full point group                 C1      NOp   1
 Largest Abelian subgroup         C1      NOp   1
 Largest concise Abelian subgroup C1      NOp   1
                         Standard orientation:                         
 ---------------------------------------------------------------------
 Center     Atomic      Atomic             Coordinates (Angstroms)
 Number     Number       Type             X           Y           Z
 ---------------------------------------------------------------------
      1          8           0       -3.333594   -0.892496    0.037388
      2          6           0       -2.268075   -0.318592   -0.014987
      3          6           0       -0.889380   -0.985544    0.008616
      4          6           0        0.106074    0.122857   -0.396902
      5          6           0        1.598478   -0.098334   -0.011262
      6          6           0        1.810518   -0.202195    1.512604
      7          6           0        2.098984   -1.399751   -0.672440
      8          6           0        2.439179    1.077998   -0.550164
      9          6           0       -0.570163    1.415553    0.137216
     10          6           0       -2.069805    1.197008   -0.117820
     11          1           0       -0.714293   -1.328624    1.038542
     12          1           0       -0.881871   -1.874960   -0.627955
     13          1           0        0.081974    0.186783   -1.496633
     14          1           0        2.871985   -0.367221    1.732450
     15          1           0        1.256268   -1.039712    1.951368
     16          1           0        1.509088    0.712832    2.034403
     17          1           0        1.570790   -2.279675   -0.288151
     18          1           0        3.168493   -1.545811   -0.478827
     19          1           0        1.958534   -1.372014   -1.760371
     20          1           0        2.167571    2.025998   -0.072544
     21          1           0        2.307902    1.196737   -1.633124
     22          1           0        3.505948    0.908152   -0.361475
     23          1           0       -0.186696    2.319544   -0.344452
     24          1           0       -0.391518    1.519949    1.214637
     25          1           0       -2.742339    1.728149    0.562802
     26          1           0       -2.347945    1.495840   -1.138934
 ---------------------------------------------------------------------
 Rotational constants (GHZ):           2.4767343           0.8066400           0.7174758
 Standard basis: 6-31G(d) (6D, 7F)
 There are   182 symmetry adapted cartesian basis functions of A   symmetry.
 There are   182 symmetry adapted basis functions of A   symmetry.
   182 basis functions,   344 primitive gaussians,   182 cartesian basis functions
    39 alpha electrons       39 beta electrons
       nuclear repulsion energy       562.5629762635 Hartrees.
 NAtoms=   26 NActive=   26 NUniq=   26 SFac= 1.00D+00 NAtFMM=   60 NAOKFM=F Big=F
 Integral buffers will be    131072 words long.
 Raffenetti 2 integral format.
 Two-electron integral symmetry is turned on.
 One-electron integrals computed using PRISM.
 NBasis=   182 RedAO= T EigKep=  2.34D-03  NBF=   182
 NBsUse=   182 1.00D-06 EigRej= -1.00D+00 NBFU=   182
 ExpMin= 1.61D-01 ExpMax= 5.48D+03 ExpMxC= 8.25D+02 IAcc=3 IRadAn=         5 AccDes= 0.00D+00
 Harris functional with IExCor=  402 and IRadAn=       5 diagonalized for initial guess.
 HarFok:  IExCor=  402 AccDes= 0.00D+00 IRadAn=         5 IDoV= 1 UseB2=F ITyADJ=14
 ICtDFT=  3500011 ScaDFX=  1.000000  1.000000  1.000000  1.000000
 FoFCou: FMM=F IPFlag=           0 FMFlag=      100000 FMFlg1=           0
         NFxFlg=           0 DoJE=T BraDBF=F KetDBF=T FulRan=T
         wScrn=  0.000000 ICntrl=       500 IOpCl=  0 I1Cent=   200000004 NGrid=           0
         NMat0=    1 NMatS0=      1 NMatT0=    0 NMatD0=    1 NMtDS0=    0 NMtDT0=    0
 Petite list used in FoFCou.
 Requested convergence on RMS density matrix=1.00D-08 within 128 cycles.
 Requested convergence on MAX density matrix=1.00D-06.
 Requested convergence on             energy=1.00D-06.
 No special actions if energy rises.
 Integral accuracy reduced to 1.0D-05 until final iterations.
 Initial convergence to 1.0D-05 achieved.  Increase integral accuracy.
 SCF Done:  E(RB3LYP) =  -427.825135944     A.U. after   13 cycles
            NFock= 13  Conv=0.82D-08     -V/T= 2.0098
 DoSCS=F DFT=T ScalE2(SS,OS)=  1.000000  1.000000
 Range of M.O.s used for correlation:     1   182
 NBasis=   182 NAE=    39 NBE=    39 NFC=     0 NFV=     0
 NROrb=    182 NOA=    39 NOB=    39 NVA=   143 NVB=   143
 Symmetrizing basis deriv contribution to polar:
 IMax=3 JMax=2 DiffMx= 0.00D+00
 G2DrvN: will do    27 centers at a time, making    1 passes.
 Calling FoFCou, ICntrl=  3107 FMM=F I1Cent=   0 AccDes= 0.00D+00.
 End of G2Drv F.D. properties file   721 does not exist.
 End of G2Drv F.D. properties file   722 does not exist.
 End of G2Drv F.D. properties file   788 does not exist.
          IDoAtm=11111111111111111111111111
          Differentiating once with respect to electric field.
                with respect to dipole field.
          Differentiating once with respect to nuclear coordinates.
 Keep R1 ints in memory in canonical form, NReq=146744168.
          There are    81 degrees of freedom in the 1st order CPHF.  IDoFFX=6 NUNeed=     3.
     78 vectors produced by pass  0 Test12= 6.89D-15 1.23D-09 XBig12= 6.76D+01 2.42D+00.
 AX will form    78 AO Fock derivatives at one time.
     78 vectors produced by pass  1 Test12= 6.89D-15 1.23D-09 XBig12= 9.72D+00 1.29D+00.
     78 vectors produced by pass  2 Test12= 6.89D-15 1.23D-09 XBig12= 1.14D-01 7.75D-02.
     78 vectors produced by pass  3 Test12= 6.89D-15 1.23D-09 XBig12= 3.32D-04 1.58D-03.
     78 vectors produced by pass  4 Test12= 6.89D-15 1.23D-09 XBig12= 3.03D-07 6.88D-05.
     34 vectors produced by pass  5 Test12= 6.89D-15 1.23D-09 XBig12= 1.75D-10 1.24D-06.
      4 vectors produced by pass  6 Test12= 6.89D-15 1.23D-09 XBig12= 1.19D-13 5.44D-08.
      1 vectors produced by pass  7 Test12= 6.89D-15 1.23D-09 XBig12= 7.14D-17 1.66D-09.
 InvSVY:  IOpt=1 It=  1 EMax= 4.44D-15
 Solved reduced A of dimension   429 with    81 vectors.
 Isotropic polarizability for W=    0.000000       92.79 Bohr**3.
 End of Minotr F.D. properties file   721 does not exist.
 End of Minotr F.D. properties file   722 does not exist.
 End of Minotr F.D. properties file   788 does not exist.

 **********************************************************************

            Population analysis using the SCF density.

 **********************************************************************

 Orbital symmetries:
       Occupied  (A) (A) (A) (A) (A) (A) (A) (A) (A) (A) (A) (A)
                 (A) (A) (A) (A) (A) (A) (A) (A) (A) (A) (A) (A)
                 (A) (A) (A) (A) (A) (A) (A) (A) (A) (A) (A) (A)
                 (A) (A) (A)
       Virtual   (A) (A) (A) (A) (A) (A) (A) (A) (A) (A) (A) (A)
                 (A) (A) (A) (A) (A) (A) (A) (A) (A) (A) (A) (A)
                 (A) (A) (A) (A) (A) (A) (A) (A) (A) (A) (A) (A)
                 (A) (A) (A) (A) (A) (A) (A) (A) (A) (A) (A) (A)
                 (A) (A) (A) (A) (A) (A) (A) (A) (A) (A) (A) (A)
                 (A) (A) (A) (A) (A) (A) (A) (A) (A) (A) (A) (A)
                 (A) (A) (A) (A) (A) (A) (A) (A) (A) (A) (A) (A)
                 (A) (A) (A) (A) (A) (A) (A) (A) (A) (A) (A) (A)
                 (A) (A) (A) (A) (A) (A) (A) (A) (A) (A) (A) (A)
                 (A) (A) (A) (A) (A) (A) (A) (A) (A) (A) (A) (A)
                 (A) (A) (A) (A) (A) (A) (A) (A) (A) (A) (A) (A)
                 (A) (A) (A) (A) (A) (A) (A) (A) (A) (A) (A)
 The electronic state is 1-A.
 Alpha  occ. eigenvalues --  -19.13260 -10.26947 -10.20302 -10.19582 -10.19023
 Alpha  occ. eigenvalues --  -10.18976 -10.18770 -10.17719 -10.17637 -10.17593
 Alpha  occ. eigenvalues --   -1.03254  -0.84966  -0.80080  -0.72355  -0.68930
 Alpha  occ. eigenvalues --   -0.68739  -0.67569  -0.59950  -0.53600  -0.52685
 Alpha  occ. eigenvalues --   -0.48676  -0.46955  -0.44543  -0.43726  -0.43129
 Alpha  occ. eigenvalues --   -0.42143  -0.41218  -0.40004  -0.39050  -0.37579
 Alpha  occ. eigenvalues --   -0.37060  -0.36631  -0.35610  -0.34437  -0.33415
 Alpha  occ. eigenvalues --   -0.31910  -0.31645  -0.31241  -0.23420
 Alpha virt. eigenvalues --   -0.01322   0.06729   0.10474   0.10826   0.11719
 Alpha virt. eigenvalues --    0.12674   0.13313   0.13946   0.15020   0.16185
 Alpha virt. eigenvalues --    0.16837   0.17789   0.18596   0.19308   0.20223
 Alpha virt. eigenvalues --    0.21100   0.21673   0.22227   0.23038   0.23394
 Alpha virt. eigenvalues --    0.24607   0.25476   0.25794   0.28268   0.29919
 Alpha virt. eigenvalues --    0.34353   0.35087   0.49636   0.50029   0.50401
 Alpha virt. eigenvalues --    0.52031   0.53395   0.54056   0.58044   0.59134
 Alpha virt. eigenvalues --    0.60034   0.62185   0.63756   0.64554   0.66646
 Alpha virt. eigenvalues --    0.68936   0.69375   0.69560   0.70396   0.73286
 Alpha virt. eigenvalues --    0.74200   0.75734   0.79691   0.81851   0.83248
 Alpha virt. eigenvalues --    0.85339   0.85856   0.86273   0.87404   0.88898
 Alpha virt. eigenvalues --    0.90002   0.90177   0.90931   0.91953   0.92410
 Alpha virt. eigenvalues --    0.93440   0.93795   0.94181   0.95826   0.96477
 Alpha virt. eigenvalues --    0.97216   0.98843   1.00350   1.01298   1.02958
 Alpha virt. eigenvalues --    1.04261   1.06763   1.11389   1.16484   1.20643
 Alpha virt. eigenvalues --    1.27153   1.32952   1.40240   1.41873   1.49214
 Alpha virt. eigenvalues --    1.50500   1.54081   1.54589   1.62105   1.65254
 Alpha virt. eigenvalues --    1.69208   1.71022   1.72842   1.73788   1.76821
 Alpha virt. eigenvalues --    1.78847   1.80849   1.83053   1.84626   1.86193
 Alpha virt. eigenvalues --    1.87462   1.88277   1.90912   1.92541   1.97100
 Alpha virt. eigenvalues --    1.99925   2.00619   2.01813   2.05769   2.06355
 Alpha virt. eigenvalues --    2.09608   2.11356   2.12307   2.14104   2.16211
 Alpha virt. eigenvalues --    2.24200   2.25651   2.26277   2.26998   2.27726
 Alpha virt. eigenvalues --    2.28603   2.31115   2.36814   2.38358   2.44439
 Alpha virt. eigenvalues --    2.48739   2.51989   2.54412   2.58138   2.65567
 Alpha virt. eigenvalues --    2.67326   2.70456   2.74655   2.77497   2.79143
 Alpha virt. eigenvalues --    2.82611   3.00354   3.06206   4.00537   4.12686
 Alpha virt. eigenvalues --    4.23250   4.30104   4.30428   4.31558   4.38207
 Alpha virt. eigenvalues --    4.57322   4.65635   4.72754
          Condensed to atoms (all electrons):
               1          2          3          4          5          6
     1  O    8.008212   0.577278  -0.070245   0.002663  -0.000043  -0.000001
     2  C    0.577278   4.482956   0.332463  -0.035295   0.002045  -0.000048
     3  C   -0.070245   0.332463   5.372713   0.323852  -0.027847  -0.008531
     4  C    0.002663  -0.035295   0.323852   5.016325   0.387616  -0.052708
     5  C   -0.000043   0.002045  -0.027847   0.387616   4.731558   0.385566
     6  C   -0.000001  -0.000048  -0.008531  -0.052708   0.385566   5.164564
     7  C   -0.000000   0.000213  -0.005111  -0.053856   0.382238  -0.063479
     8  C    0.000000  -0.000050   0.004337  -0.052325   0.380028  -0.063621
     9  C    0.003502  -0.042880  -0.051219   0.367560  -0.032401  -0.008951
    10  C   -0.071940   0.334014  -0.180334  -0.035286   0.002866   0.000224
    11  H   -0.000643  -0.024069   0.352285  -0.038732  -0.007384   0.003614
    12  H    0.001088  -0.021564   0.352373  -0.023709  -0.000626   0.000024
    13  H   -0.000062  -0.002863  -0.045280   0.362554  -0.037475   0.006337
    14  H   -0.000000   0.000001   0.000148   0.005172  -0.028973   0.367410
    15  H    0.000002  -0.000094   0.000966  -0.005105  -0.028545   0.365012
    16  H    0.000000  -0.000012   0.000082  -0.005266  -0.028218   0.365833
    17  H    0.000002   0.000077   0.003654  -0.006737  -0.027709  -0.004834
    18  H   -0.000000  -0.000002   0.000072   0.005238  -0.027997  -0.004587
    19  H    0.000000  -0.000027  -0.000526  -0.005198  -0.029967   0.005832
    20  H   -0.000000  -0.000008  -0.000008  -0.006678  -0.027282  -0.004927
    21  H   -0.000000  -0.000003   0.000019  -0.005427  -0.029684   0.005851
    22  H   -0.000000   0.000001  -0.000116   0.005150  -0.028129  -0.004477
    23  H   -0.000056   0.002814   0.004766  -0.026228  -0.002243  -0.000031
    24  H   -0.000029  -0.002286  -0.001564  -0.040559  -0.006145   0.003285
    25  H    0.001282  -0.021924   0.006677   0.003159  -0.000081   0.000003
    26  H   -0.000735  -0.023956   0.004006  -0.000552   0.000009  -0.000000
               7          8          9         10         11         12
     1  O   -0.000000   0.000000   0.003502  -0.071940  -0.000643   0.001088
     2  C    0.000213  -0.000050  -0.042880   0.334014  -0.024069  -0.021564
     3  C   -0.005111   0.004337  -0.051219  -0.180334   0.352285   0.352373
     4  C   -0.053856  -0.052325   0.367560  -0.035286  -0.038732  -0.023709
     5  C    0.382238   0.380028  -0.032401   0.002866  -0.007384  -0.000626
     6  C   -0.063479  -0.063621  -0.008951   0.000224   0.003614   0.000024
     7  C    5.164254  -0.061836   0.004656  -0.000181  -0.000878   0.001055
     8  C   -0.061836   5.163554  -0.004642   0.000215   0.000118  -0.000047
     9  C    0.004656  -0.004642   5.122499   0.305844  -0.001270   0.004426
    10  C   -0.000181   0.000215   0.305844   5.334152   0.004746   0.006510
    11  H   -0.000878   0.000118  -0.001270   0.004746   0.552534  -0.024372
    12  H    0.001055  -0.000047   0.004426   0.006510  -0.024372   0.538697
    13  H   -0.007085  -0.007505  -0.050392   0.001658   0.005741  -0.005876
    14  H   -0.005436  -0.005245   0.000159  -0.000001  -0.000211  -0.000005
    15  H   -0.004534   0.005737  -0.000026   0.000023   0.005752  -0.000003
    16  H    0.005670  -0.004596   0.001205  -0.000104  -0.000017   0.000004
    17  H    0.367234   0.005653  -0.000020   0.000002   0.000528   0.000811
    18  H    0.364927  -0.005587  -0.000126   0.000003  -0.000037  -0.000011
    19  H    0.365894  -0.004645   0.000008   0.000004   0.000106   0.000348
    20  H    0.005651   0.366915   0.002952  -0.000003  -0.000001  -0.000001
    21  H   -0.004625   0.365664  -0.000571  -0.000021   0.000005  -0.000008
    22  H   -0.005719   0.366210   0.000084  -0.000001  -0.000001   0.000002
    23  H   -0.000041   0.002006   0.365519  -0.024187  -0.000067  -0.000144
    24  H    0.000089  -0.000736   0.371179  -0.034491   0.002620  -0.000107
    25  H    0.000002  -0.000000  -0.025142   0.354257  -0.000366  -0.000065
    26  H    0.000001  -0.000017  -0.034060   0.357172   0.000095  -0.000388
              13         14         15         16         17         18
     1  O   -0.000062  -0.000000   0.000002   0.000000   0.000002  -0.000000
     2  C   -0.002863   0.000001  -0.000094  -0.000012   0.000077  -0.000002
     3  C   -0.045280   0.000148   0.000966   0.000082   0.003654   0.000072
     4  C    0.362554   0.005172  -0.005105  -0.005266  -0.006737   0.005238
     5  C   -0.037475  -0.028973  -0.028545  -0.028218  -0.027709  -0.027997
     6  C    0.006337   0.367410   0.365012   0.365833  -0.004834  -0.004587
     7  C   -0.007085  -0.005436  -0.004534   0.005670   0.367234   0.364927
     8  C   -0.007505  -0.005245   0.005737  -0.004596   0.005653  -0.005587
     9  C   -0.050392   0.000159  -0.000026   0.001205  -0.000020  -0.000126
    10  C    0.001658  -0.000001   0.000023  -0.000104   0.000002   0.000003
    11  H    0.005741  -0.000211   0.005752  -0.000017   0.000528  -0.000037
    12  H   -0.005876  -0.000005  -0.000003   0.000004   0.000811  -0.000011
    13  H    0.644081  -0.000160  -0.000056  -0.000055  -0.000138  -0.000054
    14  H   -0.000160   0.576098  -0.030005  -0.029983  -0.000131   0.004199
    15  H   -0.000056  -0.030005   0.576953  -0.031308   0.003717  -0.000154
    16  H   -0.000055  -0.029983  -0.031308   0.575354  -0.000020  -0.000070
    17  H   -0.000138  -0.000131   0.003717  -0.000020   0.573424  -0.030154
    18  H   -0.000054   0.004199  -0.000154  -0.000070  -0.030154   0.579603
    19  H    0.005808  -0.000029  -0.000051  -0.000192  -0.030621  -0.030126
    20  H   -0.000133  -0.000136  -0.000020   0.003851  -0.000192  -0.000025
    21  H    0.005979  -0.000038  -0.000192  -0.000043  -0.000059  -0.000128
    22  H   -0.000076   0.004052  -0.000074  -0.000171  -0.000017   0.004691
    23  H   -0.006234  -0.000010   0.000015   0.000019  -0.000001   0.000002
    24  H    0.006134  -0.000151  -0.000004   0.004756  -0.000003   0.000000
    25  H   -0.000099  -0.000000  -0.000000   0.000002  -0.000000  -0.000000
    26  H    0.002843   0.000000  -0.000001   0.000001  -0.000000  -0.000000
              19         20         21         22         23         24
     1  O    0.000000  -0.000000  -0.000000  -0.000000  -0.000056  -0.000029
     2  C   -0.000027  -0.000008  -0.000003   0.000001   0.002814  -0.002286
     3  C   -0.000526  -0.000008   0.000019  -0.000116   0.004766  -0.001564
     4  C   -0.005198  -0.006678  -0.005427   0.005150  -0.026228  -0.040559
     5  C   -0.029967  -0.027282  -0.029684  -0.028129  -0.002243  -0.006145
     6  C    0.005832  -0.004927   0.005851  -0.004477  -0.000031   0.003285
     7  C    0.365894   0.005651  -0.004625  -0.005719  -0.000041   0.000089
     8  C   -0.004645   0.366915   0.365664   0.366210   0.002006  -0.000736
     9  C    0.000008   0.002952  -0.000571   0.000084   0.365519   0.371179
    10  C    0.000004  -0.000003  -0.000021  -0.000001  -0.024187  -0.034491
    11  H    0.000106  -0.000001   0.000005  -0.000001  -0.000067   0.002620
    12  H    0.000348  -0.000001  -0.000008   0.000002  -0.000144  -0.000107
    13  H    0.005808  -0.000133   0.005979  -0.000076  -0.006234   0.006134
    14  H   -0.000029  -0.000136  -0.000038   0.004052  -0.000010  -0.000151
    15  H   -0.000051  -0.000020  -0.000192  -0.000074   0.000015  -0.000004
    16  H   -0.000192   0.003851  -0.000043  -0.000171   0.000019   0.004756
    17  H   -0.030621  -0.000192  -0.000059  -0.000017  -0.000001  -0.000003
    18  H   -0.030126  -0.000025  -0.000128   0.004691   0.000002   0.000000
    19  H    0.581342  -0.000056   0.003735  -0.000135  -0.000008   0.000004
    20  H   -0.000056   0.575458  -0.030940  -0.030383   0.001515   0.000382
    21  H    0.003735  -0.030940   0.582165  -0.030153   0.000420   0.000086
    22  H   -0.000135  -0.030383  -0.030153   0.578485  -0.000037  -0.000040
    23  H   -0.000008   0.001515   0.000420  -0.000037   0.577971  -0.035718
    24  H    0.000004   0.000382   0.000086  -0.000040  -0.035718   0.589166
    25  H    0.000000   0.000002  -0.000000  -0.000000   0.001564  -0.005233
    26  H    0.000000   0.000002   0.000001  -0.000000  -0.007130   0.004759
              25         26
     1  O    0.001282  -0.000735
     2  C   -0.021924  -0.023956
     3  C    0.006677   0.004006
     4  C    0.003159  -0.000552
     5  C   -0.000081   0.000009
     6  C    0.000003  -0.000000
     7  C    0.000002   0.000001
     8  C   -0.000000  -0.000017
     9  C   -0.025142  -0.034060
    10  C    0.354257   0.357172
    11  H   -0.000366   0.000095
    12  H   -0.000065  -0.000388
    13  H   -0.000099   0.002843
    14  H   -0.000000   0.000000
    15  H   -0.000000  -0.000001
    16  H    0.000002   0.000001
    17  H   -0.000000  -0.000000
    18  H   -0.000000  -0.000000
    19  H    0.000000   0.000000
    20  H    0.000002   0.000002
    21  H   -0.000000   0.000001
    22  H   -0.000000  -0.000000
    23  H    0.001564  -0.007130
    24  H   -0.005233   0.004759
    25  H    0.540085  -0.024027
    26  H   -0.024027   0.551124
 Mulliken charges:
               1
     1  O   -0.450275
     2  C    0.443217
     3  C   -0.367631
     4  C   -0.085626
     5  C    0.098823
     6  C   -0.457360
     7  C   -0.449104
     8  C   -0.449585
     9  C   -0.297894
    10  C   -0.355142
    11  H    0.169903
    12  H    0.171589
    13  H    0.122409
    14  H    0.143275
    15  H    0.141996
    16  H    0.143277
    17  H    0.145535
    18  H    0.140322
    19  H    0.138501
    20  H    0.144064
    21  H    0.137966
    22  H    0.140852
    23  H    0.145524
    24  H    0.144607
    25  H    0.169904
    26  H    0.170854
 Sum of Mulliken charges =   0.00000
 Mulliken charges with hydrogens summed into heavy atoms:
               1
     1  O   -0.450275
     2  C    0.443217
     3  C   -0.026140
     4  C    0.036782
     5  C    0.098823
     6  C   -0.028813
     7  C   -0.024745
     8  C   -0.026703
     9  C   -0.007763
    10  C   -0.014384
 APT charges:
               1
     1  O   -0.705341
     2  C    0.816943
     3  C   -0.112620
     4  C    0.103534
     5  C    0.138384
     6  C    0.025733
     7  C    0.043350
     8  C    0.043520
     9  C    0.076066
    10  C   -0.060250
    11  H    0.006852
    12  H   -0.008581
    13  H   -0.068238
    14  H   -0.023196
    15  H   -0.020407
    16  H   -0.019776
    17  H   -0.018892
    18  H   -0.032508
    19  H   -0.025581
    20  H   -0.019982
    21  H   -0.026082
    22  H   -0.030606
    23  H   -0.030798
    24  H   -0.029326
    25  H   -0.015383
    26  H   -0.006813
 Sum of APT charges =   0.00000
 APT charges with hydrogens summed into heavy atoms:
               1
     1  O   -0.705341
     2  C    0.816943
     3  C   -0.114349
     4  C    0.035296
     5  C    0.138384
     6  C   -0.037646
     7  C   -0.033631
     8  C   -0.033151
     9  C    0.015941
    10  C   -0.082446
 Electronic spatial extent (au):  <R**2>=           1743.3135
 Charge=              0.0000 electrons
 Dipole moment (field-independent basis, Debye):
    X=              2.7279    Y=              1.3479    Z=             -0.1306  Tot=              3.0456
 Quadrupole moment (field-independent basis, Debye-Ang):
   XX=            -75.5911   YY=            -63.1464   ZZ=            -61.5601
   XY=             -5.6321   XZ=              0.5485   YZ=             -0.0746
 Traceless Quadrupole moment (field-independent basis, Debye-Ang):
   XX=             -8.8252   YY=              3.6195   ZZ=              5.2058
   XY=             -5.6321   XZ=              0.5485   YZ=             -0.0746
 Octapole moment (field-independent basis, Debye-Ang**2):
  XXX=             42.1327  YYY=             -1.5818  ZZZ=             -1.8131  XYY=             -2.9307
  XXY=             18.3545  XXZ=              0.0590  XZZ=             -8.1217  YZZ=             -0.6018
  YYZ=              0.4338  XYZ=             -0.3887
 Hexadecapole moment (field-independent basis, Debye-Ang**3):
 XXXX=          -1718.4896 YYYY=           -487.3590 ZZZZ=           -271.8304 XXXY=            -63.8102
 XXXZ=              8.0194 YYYX=              6.1147 YYYZ=             -0.3152 ZZZX=             -2.8954
 ZZZY=             -0.7053 XXYY=           -355.2731 XXZZ=           -297.7281 YYZZ=           -124.2463
 XXYZ=              1.4223 YYXZ=              2.3354 ZZXY=              3.1278
 N-N= 5.625629762635D+02 E-N=-2.117083285093D+03  KE= 4.236847762054D+02
  Exact polarizability: 107.871  -0.003  90.361  -0.111  -0.432  80.131
 Approx polarizability: 140.321   5.038 129.012   0.176  -1.352 121.128
 Calling FoFJK, ICntrl=    100127 FMM=F ISym2X=0 I1Cent= 0 IOpClX= 0 NMat=1 NMatS=1 NMatT=0.
 Full mass-weighted force constant matrix:
 Low frequencies ---   -9.2837   -7.5888    0.0011    0.0012    0.0012    4.2955
 Low frequencies ---   54.7434   78.8021  141.8483
 Diagonal vibrational polarizability:
        4.5115657       4.5822493      35.0048463
 Harmonic frequencies (cm**-1), IR intensities (KM/Mole), Raman scattering
 activities (A**4/AMU), depolarization ratios for plane and unpolarized
 incident light, reduced masses (AMU), force constants (mDyne/A),
 and normal coordinates:
                      1                      2                      3
                      A                      A                      A
 Frequencies --     54.7376                78.8008               141.8480
 Red. masses --      3.3492                 2.6269                 2.0181
 Frc consts  --      0.0059                 0.0096                 0.0239
 IR Inten    --      2.4897                 2.5029                 1.0544
  Atom  AN      X      Y      Z        X      Y      Z        X      Y      Z
     1   8    -0.00   0.03   0.24    -0.02   0.02  -0.16     0.01  -0.02  -0.05
     2   6     0.00   0.01   0.04    -0.01   0.01   0.02     0.01  -0.00   0.04
     3   6    -0.01  -0.00  -0.01    -0.02   0.01   0.26     0.01   0.00  -0.02
     4   6     0.01  -0.03  -0.06    -0.02  -0.06   0.07     0.00  -0.02  -0.08
     5   6    -0.00  -0.01   0.01     0.01  -0.02  -0.00    -0.01  -0.01  -0.01
     6   6    -0.09  -0.14   0.01     0.08  -0.07  -0.02    -0.09   0.01  -0.00
     7   6     0.08   0.07  -0.08     0.03   0.03  -0.08     0.04  -0.01   0.04
     8   6    -0.01   0.07   0.16    -0.07   0.04   0.01     0.01  -0.01   0.02
     9   6     0.01   0.01  -0.17     0.02   0.01  -0.06     0.04   0.04  -0.15
    10   6     0.01  -0.00  -0.15     0.01   0.01  -0.02    -0.02   0.01   0.20
    11   1     0.02  -0.01  -0.02    -0.07   0.29   0.37     0.05   0.02  -0.02
    12   1    -0.05  -0.01  -0.01     0.03  -0.14   0.49    -0.03  -0.01  -0.00
    13   1     0.05  -0.10  -0.06    -0.08  -0.19   0.06     0.02  -0.09  -0.09
    14   1    -0.07  -0.01   0.06     0.12   0.10  -0.06    -0.10   0.06   0.06
    15   1     0.01  -0.27  -0.12     0.24  -0.20  -0.05    -0.08  -0.02  -0.03
    16   1    -0.25  -0.25   0.09    -0.06  -0.16   0.05    -0.16  -0.01  -0.01
    17   1     0.04   0.02  -0.24     0.05  -0.00  -0.13    -0.00  -0.01  -0.01
    18   1     0.06   0.05   0.02     0.03   0.04  -0.09     0.02  -0.02   0.14
    19   1     0.20   0.19  -0.10     0.02   0.09  -0.08     0.14  -0.02   0.02
    20   1    -0.03   0.00   0.28    -0.03  -0.00   0.11    -0.02  -0.00  -0.00
    21   1     0.00   0.20   0.18    -0.18   0.13   0.03     0.07  -0.02   0.01
    22   1    -0.01   0.06   0.16    -0.05   0.04  -0.12     0.00   0.00   0.09
    23   1     0.01  -0.03  -0.24     0.02  -0.05  -0.16    -0.07  -0.03  -0.36
    24   1     0.01   0.11  -0.17     0.04   0.12  -0.07     0.26   0.21  -0.20
    25   1     0.00   0.09  -0.24     0.03   0.02  -0.01     0.16  -0.10   0.47
    26   1     0.04  -0.14  -0.20    -0.03  -0.00  -0.01    -0.33   0.16   0.33
                      4                      5                      6
                      A                      A                      A
 Frequencies --    184.5589               226.8725               264.8063
 Red. masses --      3.3890                 1.0765                 1.2507
 Frc consts  --      0.0680                 0.0326                 0.0517
 IR Inten    --      0.8094                 0.0271                 0.0872
  Atom  AN      X      Y      Z        X      Y      Z        X      Y      Z
     1   8    -0.11   0.15   0.00     0.01  -0.01   0.00    -0.01  -0.00  -0.00
     2   6    -0.05   0.03  -0.01     0.01  -0.00  -0.01    -0.01  -0.00   0.02
     3   6    -0.08  -0.10  -0.08     0.01   0.01  -0.03    -0.01   0.01   0.06
     4   6    -0.01  -0.14  -0.01     0.00   0.02   0.00    -0.01  -0.00  -0.01
     5   6     0.01  -0.03  -0.00    -0.00   0.00   0.00     0.00   0.00  -0.03
     6   6     0.02   0.05   0.00     0.00   0.02   0.00    -0.06   0.02  -0.02
     7   6     0.22   0.02   0.06    -0.02  -0.02   0.03     0.05   0.02  -0.04
     8   6    -0.16   0.07  -0.06     0.01  -0.02  -0.03     0.05  -0.03  -0.02
     9   6     0.07  -0.13   0.05    -0.01   0.01   0.03    -0.01  -0.02   0.05
    10   6     0.07   0.01   0.04    -0.00   0.00   0.00    -0.00  -0.00  -0.00
    11   1    -0.10  -0.21  -0.11     0.02  -0.02  -0.04    -0.00   0.09   0.08
    12   1    -0.16  -0.05  -0.16     0.00   0.03  -0.06    -0.00  -0.04   0.13
    13   1     0.00  -0.10  -0.01     0.01   0.04   0.00    -0.06   0.00  -0.01
    14   1     0.04   0.15   0.01     0.06   0.40   0.02    -0.09  -0.09   0.03
    15   1     0.09   0.02   0.03     0.30  -0.20  -0.05    -0.18   0.10  -0.01
    16   1    -0.05   0.04  -0.03    -0.34  -0.12   0.04     0.02   0.07  -0.07
    17   1     0.29  -0.03   0.04    -0.24   0.03  -0.16    -0.21   0.03  -0.38
    18   1     0.22   0.16   0.17    -0.09  -0.18   0.28    -0.04  -0.15   0.34
    19   1     0.32  -0.02   0.05     0.25   0.07  -0.00     0.47   0.22  -0.09
    20   1    -0.23   0.04  -0.04     0.23  -0.05   0.16    -0.08   0.03  -0.22
    21   1    -0.25   0.06  -0.05    -0.23   0.15   0.02     0.27  -0.19  -0.07
    22   1    -0.12   0.20  -0.14     0.03  -0.17  -0.31     0.02   0.04   0.22
    23   1     0.14  -0.12   0.11    -0.00   0.02   0.05     0.01   0.01   0.13
    24   1     0.07  -0.21   0.06    -0.03  -0.02   0.03    -0.04  -0.10   0.06
    25   1     0.11   0.03   0.06    -0.02  -0.00  -0.00    -0.02   0.02  -0.04
    26   1     0.10   0.07   0.05     0.01   0.01   0.00     0.05  -0.02  -0.02
                      7                      8                      9
                      A                      A                      A
 Frequencies --    265.7992               294.8119               316.6005
 Red. masses --      1.0513                 2.3170                 2.1397
 Frc consts  --      0.0438                 0.1186                 0.1264
 IR Inten    --      0.0135                 0.1480                 0.1400
  Atom  AN      X      Y      Z        X      Y      Z        X      Y      Z
     1   8    -0.00  -0.00  -0.00    -0.09   0.01   0.01    -0.10   0.01   0.01
     2   6    -0.00  -0.01   0.00    -0.08  -0.01  -0.02    -0.08  -0.01   0.00
     3   6    -0.00  -0.02   0.00    -0.06  -0.01  -0.07    -0.05  -0.00   0.03
     4   6     0.00  -0.02   0.00    -0.00   0.00   0.03    -0.02  -0.01  -0.02
     5   6     0.00   0.00   0.01     0.04   0.01   0.05     0.03   0.01  -0.03
     6   6     0.02   0.03   0.01     0.25  -0.01   0.03    -0.02   0.06  -0.03
     7   6    -0.01   0.01  -0.01    -0.00   0.01   0.01     0.11   0.04  -0.04
     8   6    -0.01   0.02   0.02     0.06  -0.01   0.04     0.21  -0.06   0.03
     9   6     0.01  -0.01  -0.03    -0.06   0.03  -0.08    -0.05  -0.03   0.01
    10   6     0.01  -0.01  -0.00    -0.09  -0.01   0.00    -0.06  -0.02   0.01
    11   1    -0.01  -0.03  -0.00    -0.07  -0.14  -0.10    -0.05   0.07   0.05
    12   1    -0.01  -0.01  -0.01    -0.06   0.06  -0.16    -0.03  -0.05   0.09
    13   1     0.01  -0.04  -0.00     0.08  -0.02   0.03    -0.04  -0.01  -0.02
    14   1    -0.04  -0.36  -0.02     0.30   0.01  -0.16    -0.02   0.15   0.04
    15   1    -0.28   0.27   0.10     0.34  -0.03   0.11     0.01   0.04  -0.02
    16   1     0.38   0.19  -0.06     0.32  -0.02   0.09    -0.11   0.06  -0.08
    17   1    -0.13   0.02  -0.14    -0.17   0.04  -0.16     0.35  -0.03   0.11
    18   1    -0.05  -0.09   0.12    -0.05  -0.14   0.19     0.18   0.25  -0.24
    19   1     0.13   0.09  -0.02     0.19   0.13  -0.01    -0.10  -0.05  -0.01
    20   1     0.22  -0.06   0.30    -0.07   0.03  -0.11     0.49  -0.07   0.20
    21   1    -0.29   0.27   0.08     0.23  -0.14   0.01     0.14   0.13   0.06
    22   1     0.02  -0.14  -0.30     0.03   0.06   0.24     0.18  -0.36  -0.09
    23   1     0.01  -0.02  -0.06    -0.11  -0.01  -0.20    -0.05  -0.00   0.07
    24   1     0.03   0.02  -0.03    -0.02   0.17  -0.10    -0.07  -0.08   0.02
    25   1     0.02  -0.01   0.01    -0.04  -0.04   0.07    -0.05  -0.02   0.03
    26   1    -0.02  -0.01   0.01    -0.17   0.02   0.04    -0.07  -0.00   0.02
                     10                     11                     12
                      A                      A                      A
 Frequencies --    336.8608               377.1780               425.1593
 Red. masses --      2.4445                 2.0713                 2.8728
 Frc consts  --      0.1634                 0.1736                 0.3060
 IR Inten    --      0.6368                 0.1906                 1.9770
  Atom  AN      X      Y      Z        X      Y      Z        X      Y      Z
     1   8    -0.02   0.06  -0.02     0.01   0.01  -0.01    -0.09   0.10  -0.04
     2   6     0.03  -0.03   0.02     0.02  -0.01   0.01     0.01  -0.06   0.07
     3   6     0.01  -0.10   0.00     0.00  -0.04  -0.02     0.04  -0.10   0.03
     4   6     0.01  -0.08  -0.00     0.01  -0.01   0.11     0.01  -0.00   0.01
     5   6    -0.01   0.00   0.00    -0.00  -0.00   0.11     0.04   0.16  -0.02
     6   6    -0.01   0.18   0.02    -0.05  -0.01   0.13    -0.04  -0.11  -0.03
     7   6    -0.16   0.02  -0.11     0.02   0.12  -0.09    -0.09   0.08   0.11
     8   6     0.03   0.03   0.11    -0.01  -0.10  -0.11     0.11   0.12  -0.09
     9   6     0.07  -0.08  -0.02     0.01   0.05  -0.02     0.01  -0.03  -0.02
    10   6     0.09  -0.05   0.01     0.01  -0.01  -0.00     0.04  -0.10   0.01
    11   1     0.03  -0.15  -0.02    -0.03  -0.25  -0.09     0.08  -0.20  -0.02
    12   1    -0.04  -0.07  -0.04    -0.00   0.08  -0.19     0.02  -0.04  -0.06
    13   1     0.00  -0.10  -0.00     0.07  -0.02   0.11    -0.02  -0.04   0.01
    14   1     0.02   0.41   0.05    -0.07  -0.01   0.22    -0.07  -0.28  -0.00
    15   1     0.13   0.15   0.14    -0.10   0.00   0.09    -0.13  -0.20  -0.31
    16   1    -0.16   0.20  -0.13    -0.10  -0.00   0.10    -0.01  -0.24   0.21
    17   1    -0.26   0.05  -0.17     0.11  -0.01  -0.25    -0.22   0.22   0.24
    18   1    -0.16  -0.16  -0.24     0.05   0.16  -0.22    -0.12  -0.06   0.15
    19   1    -0.27   0.16  -0.10    -0.06   0.35  -0.08    -0.09  -0.07   0.11
    20   1    -0.06   0.01   0.10     0.12   0.01  -0.27     0.20   0.18  -0.16
    21   1     0.20   0.06   0.09    -0.16  -0.32  -0.12     0.11   0.04  -0.10
    22   1    -0.00   0.04   0.28     0.01  -0.14  -0.24     0.10   0.04  -0.11
    23   1     0.10  -0.11  -0.05    -0.01  -0.03  -0.18    -0.03  -0.05  -0.08
    24   1     0.09  -0.06  -0.03     0.02   0.24  -0.05     0.05   0.03  -0.03
    25   1     0.10  -0.02   0.00     0.00  -0.01  -0.01     0.00  -0.05  -0.07
    26   1     0.08  -0.06   0.01    -0.01  -0.04  -0.01     0.06  -0.22  -0.03
                     13                     14                     15
                      A                      A                      A
 Frequencies --    457.3961               498.2800               521.1879
 Red. masses --      1.9732                 2.9921                 2.7646
 Frc consts  --      0.2432                 0.4377                 0.4425
 IR Inten    --      0.1004                 3.7325                 3.4376
  Atom  AN      X      Y      Z        X      Y      Z        X      Y      Z
     1   8    -0.00  -0.00  -0.09    -0.07   0.17   0.04    -0.01  -0.13   0.02
     2   6     0.01   0.00   0.20     0.06  -0.08  -0.12    -0.10   0.04  -0.03
     3   6     0.00  -0.02   0.01     0.12  -0.02   0.01    -0.11   0.01   0.01
     4   6    -0.03   0.04   0.05     0.06   0.07   0.09     0.06  -0.05   0.13
     5   6    -0.01  -0.04  -0.05     0.09  -0.07  -0.02     0.18  -0.00  -0.02
     6   6    -0.01   0.02  -0.07    -0.04   0.02  -0.01    -0.04   0.01   0.01
     7   6     0.06  -0.07  -0.01     0.04  -0.13  -0.06     0.01  -0.10  -0.04
     8   6    -0.01  -0.01   0.04    -0.03   0.02   0.00     0.08   0.14  -0.05
     9   6    -0.02   0.10   0.02    -0.09   0.09   0.03     0.04   0.01   0.01
    10   6     0.01  -0.02   0.00    -0.05  -0.13   0.00    -0.02   0.09  -0.01
    11   1     0.18  -0.39  -0.15     0.01   0.07   0.06    -0.28  -0.18  -0.02
    12   1    -0.14   0.20  -0.30     0.37  -0.06   0.07    -0.17   0.10  -0.11
    13   1    -0.09   0.07   0.06     0.02   0.12   0.09     0.03  -0.07   0.13
    14   1    -0.01   0.06  -0.05    -0.07   0.04   0.17    -0.11  -0.00   0.33
    15   1    -0.00   0.05  -0.00    -0.11   0.07  -0.00    -0.20   0.02  -0.15
    16   1    -0.02   0.06  -0.14    -0.12   0.07  -0.16    -0.21   0.01  -0.09
    17   1     0.10  -0.08   0.02    -0.00  -0.11  -0.07    -0.15   0.02   0.03
    18   1     0.06   0.02   0.05     0.03  -0.19  -0.05    -0.01  -0.32  -0.12
    19   1     0.11  -0.13  -0.02     0.05  -0.12  -0.06    -0.09  -0.12  -0.03
    20   1    -0.06  -0.07   0.12    -0.19  -0.06   0.08    -0.07   0.09  -0.02
    21   1     0.04   0.08   0.04    -0.09   0.08   0.02     0.02   0.15  -0.04
    22   1    -0.02  -0.00   0.09     0.01   0.20  -0.04     0.11   0.32  -0.08
    23   1    -0.07   0.05  -0.13    -0.22   0.08  -0.09     0.07  -0.06  -0.10
    24   1    -0.00   0.26  -0.00    -0.12   0.27   0.02     0.01   0.16   0.00
    25   1    -0.11   0.21  -0.29    -0.13  -0.40   0.14     0.06   0.14   0.02
    26   1     0.16  -0.38  -0.15    -0.17   0.03   0.08    -0.00   0.18   0.01
                     16                     17                     18
                      A                      A                      A
 Frequencies --    546.1102               580.7295               732.1519
 Red. masses --      2.6160                 2.9407                 2.0491
 Frc consts  --      0.4597                 0.5843                 0.6472
 IR Inten    --      4.5173                 3.9288                 0.9951
  Atom  AN      X      Y      Z        X      Y      Z        X      Y      Z
     1   8     0.10   0.01   0.04    -0.14  -0.10   0.04     0.11   0.05   0.00
     2   6     0.08   0.01  -0.14    -0.11  -0.11  -0.09     0.08   0.06  -0.03
     3   6    -0.04  -0.12   0.04    -0.04   0.05  -0.05    -0.12  -0.02  -0.08
     4   6    -0.09  -0.06   0.16     0.00   0.08   0.02    -0.07  -0.06  -0.04
     5   6    -0.10   0.03  -0.06    -0.05   0.00  -0.01     0.00  -0.00   0.00
     6   6    -0.01   0.01  -0.14    -0.00   0.01  -0.04     0.01  -0.00   0.06
     7   6    -0.00   0.05   0.04    -0.01   0.03   0.02     0.01  -0.03  -0.02
     8   6     0.02  -0.02   0.03    -0.03  -0.03   0.01     0.04   0.05  -0.02
     9   6    -0.00   0.05   0.03     0.17   0.10   0.05    -0.06   0.01   0.05
    10   6     0.02   0.06  -0.04     0.17  -0.07   0.05    -0.02  -0.07   0.10
    11   1    -0.26  -0.33   0.01    -0.16   0.30   0.06    -0.27   0.32   0.07
    12   1     0.00   0.01  -0.14     0.24  -0.09   0.15    -0.18  -0.23   0.22
    13   1    -0.23  -0.07   0.16    -0.02   0.17   0.03    -0.05   0.02  -0.03
    14   1     0.00  -0.00  -0.22     0.01   0.02  -0.11     0.01  -0.00   0.06
    15   1     0.02  -0.01  -0.13     0.03   0.00  -0.01     0.01  -0.01   0.06
    16   1     0.02  -0.01  -0.09     0.02   0.01  -0.02     0.01  -0.01   0.08
    17   1     0.05   0.04   0.09     0.04   0.00   0.01    -0.01  -0.02  -0.02
    18   1    -0.01   0.17   0.17    -0.01   0.10   0.07     0.01  -0.06  -0.04
    19   1     0.11  -0.07   0.03     0.05   0.01   0.01    -0.01  -0.03  -0.02
    20   1     0.12  -0.01   0.05     0.01  -0.02   0.02     0.06   0.06  -0.03
    21   1     0.18   0.05   0.01     0.01  -0.01   0.01     0.06   0.06  -0.03
    22   1    -0.03  -0.21   0.16    -0.04  -0.08   0.04     0.04   0.03  -0.02
    23   1     0.10  -0.10  -0.17     0.02   0.01  -0.25    -0.19  -0.09  -0.24
    24   1    -0.02   0.28   0.01     0.35   0.37  -0.01     0.17   0.24  -0.02
    25   1     0.01  -0.19   0.15     0.05   0.06  -0.18    -0.30   0.03  -0.26
    26   1    -0.07   0.32   0.07     0.42  -0.11  -0.04     0.30  -0.34  -0.08
                     19                     20                     21
                      A                      A                      A
 Frequencies --    777.9629               822.4272               860.9881
 Red. masses --      3.3594                 2.7417                 2.5391
 Frc consts  --      1.1979                 1.0926                 1.1090
 IR Inten    --      1.9239                 1.8849                 1.1548
  Atom  AN      X      Y      Z        X      Y      Z        X      Y      Z
     1   8    -0.04  -0.02   0.01    -0.04  -0.01   0.00     0.01  -0.01  -0.00
     2   6     0.00  -0.09  -0.01    -0.04  -0.01  -0.00     0.04  -0.05   0.02
     3   6     0.03  -0.15   0.04     0.17  -0.17  -0.06    -0.15  -0.14   0.02
     4   6    -0.16   0.04  -0.10     0.02  -0.08  -0.03     0.00   0.02  -0.12
     5   6    -0.10   0.02  -0.03     0.06  -0.00   0.01     0.11  -0.02   0.01
     6   6     0.00  -0.01   0.22     0.00   0.00  -0.05     0.03  -0.00  -0.04
     7   6     0.03  -0.14  -0.08    -0.01   0.05   0.03     0.01   0.08   0.05
     8   6     0.07   0.12  -0.06    -0.02  -0.05   0.02    -0.01  -0.08   0.03
     9   6     0.02   0.13   0.02    -0.06   0.03   0.05     0.01   0.21   0.01
    10   6     0.05   0.11  -0.04    -0.10   0.23   0.06     0.05  -0.01  -0.03
    11   1     0.23  -0.14   0.01     0.19   0.17   0.05    -0.10  -0.04   0.05
    12   1     0.09  -0.11  -0.01     0.30  -0.35   0.19    -0.35  -0.22   0.13
    13   1    -0.30   0.04  -0.10     0.08   0.01  -0.02     0.02  -0.03  -0.12
    14   1     0.05  -0.01   0.01    -0.02  -0.01   0.04    -0.01  -0.00   0.13
    15   1     0.12  -0.03   0.33    -0.04   0.01  -0.09    -0.06   0.02  -0.12
    16   1     0.12  -0.03   0.32    -0.04   0.01  -0.09    -0.06   0.01  -0.12
    17   1     0.11  -0.19  -0.09    -0.08   0.09   0.03    -0.13   0.17   0.06
    18   1     0.04  -0.04  -0.01    -0.01  -0.06  -0.03     0.00  -0.12  -0.08
    19   1     0.11  -0.19  -0.09    -0.07   0.09   0.04    -0.14   0.15   0.07
    20   1     0.14   0.15  -0.07    -0.07  -0.06   0.02    -0.17  -0.13   0.05
    21   1     0.15   0.15  -0.07    -0.08  -0.07   0.03    -0.16  -0.10   0.05
    22   1     0.04   0.04  -0.01     0.00   0.02  -0.02     0.04   0.13  -0.07
    23   1     0.15   0.13   0.12     0.02  -0.11  -0.16    -0.01   0.39   0.33
    24   1     0.03  -0.05   0.03     0.09   0.20   0.00    -0.11  -0.12   0.07
    25   1     0.05  -0.02   0.05    -0.21   0.44  -0.22    -0.01  -0.21   0.07
    26   1     0.01   0.26   0.01     0.23   0.04  -0.09    -0.12   0.03   0.03
                     22                     23                     24
                      A                      A                      A
 Frequencies --    923.5102               940.6332               943.0845
 Red. masses --      1.6630                 1.7105                 1.6955
 Frc consts  --      0.8356                 0.8917                 0.8885
 IR Inten    --      2.1752                 1.0128                 0.8165
  Atom  AN      X      Y      Z        X      Y      Z        X      Y      Z
     1   8    -0.00  -0.00   0.02     0.00   0.00  -0.01    -0.00  -0.00   0.00
     2   6    -0.02   0.03  -0.09     0.00  -0.00   0.03    -0.01   0.01  -0.03
     3   6     0.04   0.05   0.12    -0.00   0.01  -0.03     0.01   0.01   0.04
     4   6    -0.02  -0.01  -0.10    -0.03   0.01   0.02     0.02  -0.02  -0.03
     5   6     0.05   0.01  -0.06     0.02  -0.10  -0.09    -0.04  -0.10   0.08
     6   6     0.02   0.00   0.05     0.05  -0.08   0.08    -0.07  -0.05  -0.08
     7   6     0.01   0.05   0.00    -0.08   0.11   0.02    -0.05  -0.00   0.07
     8   6    -0.02  -0.06   0.00     0.04  -0.02  -0.07     0.11   0.08  -0.01
     9   6     0.01  -0.02   0.04    -0.00  -0.03   0.01     0.01   0.02   0.02
    10   6    -0.04  -0.02   0.03     0.01  -0.00  -0.03    -0.03  -0.00   0.01
    11   1     0.12  -0.36  -0.04     0.08   0.11  -0.01     0.07  -0.11  -0.01
    12   1    -0.07   0.30  -0.23    -0.01  -0.05   0.05    -0.06   0.07  -0.05
    13   1    -0.18  -0.17  -0.10    -0.08   0.15   0.02     0.05  -0.08  -0.03
    14   1     0.00  -0.02   0.12     0.01   0.09   0.36     0.02   0.12  -0.35
    15   1    -0.01  -0.01  -0.01    -0.05   0.09   0.27     0.13   0.02   0.31
    16   1    -0.01  -0.02   0.08    -0.11   0.09  -0.31     0.08   0.09  -0.24
    17   1    -0.09   0.15   0.09     0.05   0.08   0.13     0.14  -0.23  -0.20
    18   1    -0.00  -0.07  -0.02    -0.09   0.34   0.24    -0.00   0.19  -0.04
    19   1    -0.04  -0.03   0.01     0.12  -0.09  -0.01    -0.05   0.33   0.08
    20   1    -0.12  -0.13   0.09    -0.21  -0.21   0.17    -0.06   0.08  -0.10
    21   1    -0.02   0.03   0.02     0.11   0.28  -0.04    -0.14  -0.04   0.01
    22   1    -0.01   0.02   0.02     0.06   0.19   0.04     0.19   0.35  -0.21
    23   1    -0.22  -0.00  -0.12     0.05  -0.11  -0.09    -0.07   0.04  -0.00
    24   1     0.36   0.01  -0.03    -0.08   0.11   0.01     0.11  -0.00   0.00
    25   1    -0.30  -0.15  -0.13     0.10  -0.00   0.06    -0.14  -0.08  -0.05
    26   1     0.33   0.18  -0.02    -0.09   0.03   0.01     0.09   0.06  -0.01
                     25                     26                     27
                      A                      A                      A
 Frequencies --    961.5574               971.6173               984.2570
 Red. masses --      1.3368                 1.2317                 2.2239
 Frc consts  --      0.7282                 0.6851                 1.2694
 IR Inten    --      0.5511                 0.1451                 1.9427
  Atom  AN      X      Y      Z        X      Y      Z        X      Y      Z
     1   8    -0.00  -0.00  -0.01     0.00  -0.00  -0.00     0.02  -0.00   0.01
     2   6    -0.00   0.01   0.05     0.00  -0.00   0.02     0.01  -0.02  -0.03
     3   6    -0.01   0.01  -0.01    -0.00   0.00  -0.01    -0.01  -0.01   0.02
     4   6    -0.03   0.01  -0.03    -0.03   0.01  -0.01    -0.15   0.10   0.01
     5   6     0.02   0.01   0.02     0.01  -0.00   0.01     0.05   0.01   0.03
     6   6    -0.02  -0.01  -0.02     0.01   0.07  -0.00     0.02  -0.01  -0.03
     7   6     0.04   0.01  -0.01    -0.01  -0.04   0.07     0.02  -0.01   0.00
     8   6    -0.00   0.00   0.05     0.02  -0.04  -0.06     0.05  -0.03   0.06
     9   6    -0.00  -0.05   0.08    -0.01  -0.03   0.02    -0.15  -0.09  -0.08
    10   6     0.02  -0.01  -0.09     0.02  -0.00  -0.03     0.16   0.02   0.05
    11   1     0.34   0.11  -0.04     0.10   0.05  -0.01    -0.11  -0.06   0.02
    12   1    -0.27  -0.06   0.08    -0.06  -0.03   0.03     0.25   0.07  -0.08
    13   1    -0.07   0.34  -0.01    -0.04   0.12   0.00    -0.27   0.00   0.00
    14   1     0.00   0.03  -0.09    -0.02  -0.16  -0.02     0.00   0.02   0.08
    15   1     0.04   0.01   0.09    -0.03  -0.09  -0.36    -0.03   0.03  -0.03
    16   1     0.03   0.03  -0.06     0.01  -0.12   0.34    -0.04   0.02  -0.12
    17   1    -0.12   0.14   0.07     0.10  -0.25  -0.26    -0.01   0.01  -0.00
    18   1     0.03  -0.20  -0.07     0.04   0.06  -0.15     0.02  -0.08  -0.04
    19   1    -0.07  -0.05   0.01    -0.08   0.39   0.09    -0.02   0.02   0.01
    20   1     0.08   0.11  -0.12    -0.21  -0.24   0.22    -0.13  -0.02  -0.07
    21   1    -0.13  -0.22   0.04     0.11   0.30  -0.03    -0.26  -0.20   0.07
    22   1     0.02  -0.01  -0.10     0.02   0.13   0.10     0.14   0.26  -0.19
    23   1     0.01  -0.25  -0.28    -0.01  -0.09  -0.10    -0.27  -0.02  -0.05
    24   1     0.02   0.35   0.04    -0.00   0.11   0.01    -0.11  -0.12  -0.08
    25   1     0.07  -0.21   0.12     0.07  -0.04   0.05     0.39   0.33   0.03
    26   1    -0.05   0.29   0.02    -0.01   0.10   0.01     0.25   0.04   0.03
                     28                     29                     30
                      A                      A                      A
 Frequencies --   1007.5053              1038.7547              1048.8415
 Red. masses --      1.8086                 1.6822                 1.3503
 Frc consts  --      1.0817                 1.0694                 0.8752
 IR Inten    --      5.1487                 0.1372                 0.5379
  Atom  AN      X      Y      Z        X      Y      Z        X      Y      Z
     1   8    -0.01  -0.02   0.00     0.01   0.01  -0.00    -0.00   0.00  -0.00
     2   6    -0.03   0.05  -0.01     0.01   0.01  -0.00     0.01  -0.02   0.00
     3   6    -0.00  -0.06   0.03    -0.04  -0.07   0.02    -0.01   0.00   0.01
     4   6     0.18  -0.01  -0.02     0.04   0.10   0.01    -0.04   0.02  -0.03
     5   6    -0.04   0.02  -0.01     0.01   0.07  -0.01    -0.01   0.01   0.06
     6   6    -0.02   0.00   0.02    -0.01   0.05   0.01     0.11  -0.01  -0.05
     7   6    -0.04  -0.01  -0.04    -0.06  -0.03  -0.07    -0.06  -0.05   0.00
     8   6    -0.02   0.01  -0.02     0.05  -0.06   0.06    -0.03   0.05   0.03
     9   6    -0.13  -0.00   0.02     0.07  -0.05  -0.01     0.01  -0.01  -0.00
    10   6     0.10  -0.00  -0.00    -0.08   0.01  -0.00    -0.00   0.01  -0.01
    11   1     0.03  -0.08   0.02    -0.11  -0.05   0.04     0.17   0.00  -0.02
    12   1    -0.31  -0.10   0.07    -0.10  -0.10   0.05    -0.09   0.00   0.01
    13   1     0.32   0.01  -0.02     0.03   0.16   0.01     0.14  -0.01  -0.03
    14   1     0.00  -0.00  -0.09    -0.00  -0.04  -0.10    -0.02  -0.03   0.50
    15   1     0.03  -0.02   0.04     0.02  -0.05  -0.12    -0.22   0.08  -0.29
    16   1     0.04  -0.01   0.07     0.05  -0.05   0.22    -0.23  -0.01  -0.24
    17   1     0.09  -0.07   0.02     0.16  -0.10   0.06     0.18  -0.24  -0.12
    18   1    -0.04   0.21   0.13    -0.06   0.31   0.22    -0.03   0.25   0.08
    19   1     0.13  -0.15  -0.06     0.24  -0.29  -0.12     0.12   0.03  -0.02
    20   1     0.03  -0.00   0.03    -0.23  -0.09  -0.03     0.19   0.18  -0.11
    21   1     0.07   0.07  -0.02    -0.31  -0.19   0.09     0.02  -0.12   0.00
    22   1    -0.05  -0.11   0.06     0.15   0.33  -0.19    -0.05  -0.15   0.01
    23   1    -0.55   0.15  -0.04     0.14  -0.10  -0.05     0.01  -0.02  -0.02
    24   1    -0.09   0.15  -0.00     0.14  -0.03  -0.02     0.15  -0.06  -0.02
    25   1     0.23   0.09   0.05    -0.12  -0.00  -0.04    -0.12  -0.12  -0.02
    26   1     0.23   0.25   0.04    -0.07  -0.05  -0.03     0.13   0.14  -0.00
                     31                     32                     33
                      A                      A                      A
 Frequencies --   1104.3669              1151.0112              1183.9588
 Red. masses --      2.4241                 2.1674                 1.8859
 Frc consts  --      1.7419                 1.6918                 1.5576
 IR Inten    --      0.1699                55.9189                30.5418
  Atom  AN      X      Y      Z        X      Y      Z        X      Y      Z
     1   8     0.02   0.01   0.01     0.02  -0.03   0.01     0.03  -0.02  -0.02
     2   6     0.02  -0.02  -0.04    -0.11   0.20  -0.07    -0.07   0.16   0.10
     3   6    -0.06  -0.12   0.07     0.08  -0.08   0.03     0.00  -0.08  -0.06
     4   6     0.05   0.24   0.00     0.00  -0.02  -0.07    -0.06   0.03   0.07
     5   6     0.00  -0.01   0.00     0.00   0.00  -0.06    -0.02   0.02   0.04
     6   6    -0.01  -0.07  -0.00     0.04  -0.01   0.02    -0.01  -0.01  -0.02
     7   6     0.05  -0.01   0.06    -0.02  -0.02   0.04     0.03   0.00  -0.02
     8   6    -0.07   0.02  -0.05    -0.02   0.02   0.05     0.02  -0.02  -0.03
     9   6     0.05  -0.11  -0.05     0.07   0.02   0.04     0.06  -0.00  -0.02
    10   6    -0.09   0.02   0.02    -0.00  -0.10   0.00    -0.01  -0.06  -0.06
    11   1    -0.12  -0.16   0.07    -0.05  -0.10   0.05     0.05   0.14   0.01
    12   1    -0.12  -0.10   0.03     0.10  -0.04  -0.03     0.44  -0.15   0.04
    13   1     0.09   0.39   0.01    -0.35   0.19  -0.05     0.09  -0.15   0.06
    14   1     0.02   0.11   0.01     0.01  -0.01   0.15    -0.00   0.04   0.01
    15   1     0.01   0.05   0.25    -0.05   0.02  -0.04    -0.01   0.02   0.03
    16   1    -0.00   0.08  -0.25    -0.05  -0.01  -0.03    -0.00   0.01  -0.05
    17   1    -0.08   0.01  -0.09     0.05  -0.14  -0.12    -0.04   0.07   0.04
    18   1     0.07  -0.20  -0.18     0.01   0.08  -0.06     0.01  -0.12  -0.01
    19   1    -0.15   0.22   0.09    -0.02   0.18   0.05    -0.02  -0.07  -0.01
    20   1     0.12   0.01   0.08     0.09   0.13  -0.11    -0.07  -0.08   0.06
    21   1     0.23   0.17  -0.07    -0.07  -0.17   0.03     0.02   0.11  -0.01
    22   1    -0.15  -0.25   0.17    -0.01  -0.07  -0.07     0.02   0.06   0.03
    23   1    -0.03  -0.07  -0.06    -0.10   0.08   0.01    -0.37   0.23   0.08
    24   1     0.17  -0.10  -0.07    -0.23   0.21   0.08     0.33  -0.21  -0.05
    25   1    -0.00   0.22  -0.05     0.25   0.17   0.04    -0.12  -0.31   0.03
    26   1     0.04  -0.01  -0.03    -0.38  -0.39   0.01     0.13   0.31   0.02
                     34                     35                     36
                      A                      A                      A
 Frequencies --   1189.2457              1237.9755              1250.0446
 Red. masses --      1.6058                 1.8729                 2.0500
 Frc consts  --      1.3381                 1.6911                 1.8873
 IR Inten    --      8.5397                 3.6132                 5.7086
  Atom  AN      X      Y      Z        X      Y      Z        X      Y      Z
     1   8    -0.00  -0.02   0.02    -0.02  -0.02  -0.00    -0.00  -0.00  -0.00
     2   6    -0.05   0.07  -0.11    -0.03   0.05   0.04    -0.01   0.01   0.00
     3   6     0.02  -0.03   0.03     0.05   0.00  -0.03     0.02   0.01   0.04
     4   6    -0.06  -0.00   0.06     0.02   0.01   0.02    -0.00  -0.01  -0.11
     5   6    -0.03   0.01   0.06     0.08   0.17  -0.07    -0.11   0.13   0.15
     6   6    -0.01   0.00  -0.02    -0.02  -0.07   0.02     0.03  -0.05  -0.04
     7   6     0.03   0.01  -0.03    -0.03  -0.06   0.04     0.04  -0.02  -0.04
     8   6     0.02  -0.02  -0.03    -0.04  -0.04   0.01     0.03  -0.06  -0.06
     9   6    -0.00   0.02  -0.07    -0.06   0.01  -0.05    -0.02   0.00   0.10
    10   6     0.04  -0.03   0.08     0.08   0.02   0.03     0.03   0.01  -0.03
    11   1     0.64   0.05  -0.06    -0.21   0.03   0.03    -0.35  -0.14   0.05
    12   1    -0.36  -0.04   0.04    -0.16  -0.06   0.04     0.12   0.08  -0.06
    13   1     0.24   0.20   0.07    -0.18  -0.05   0.01     0.27  -0.13  -0.12
    14   1    -0.01  -0.02  -0.01     0.03   0.16  -0.04     0.03   0.12   0.10
    15   1     0.00   0.00  -0.01     0.03   0.04   0.28    -0.12   0.09   0.03
    16   1    -0.01  -0.00  -0.02     0.07   0.08  -0.18    -0.09   0.04  -0.27
    17   1    -0.04   0.09   0.07     0.09  -0.21  -0.16    -0.02   0.03   0.02
    18   1     0.00  -0.09   0.03     0.03   0.12  -0.10     0.02  -0.18  -0.03
    19   1    -0.01  -0.13  -0.03     0.05   0.18   0.03     0.00  -0.17  -0.04
    20   1    -0.07  -0.10   0.08    -0.04  -0.06   0.05    -0.17  -0.20   0.13
    21   1     0.03   0.13  -0.02    -0.04  -0.05   0.01     0.00   0.25  -0.02
    22   1     0.03   0.11   0.04    -0.05  -0.07   0.06     0.04   0.20   0.10
    23   1     0.27  -0.01   0.08     0.34  -0.15  -0.02     0.13  -0.18  -0.12
    24   1    -0.20  -0.11  -0.02    -0.12  -0.08  -0.03     0.03   0.19   0.07
    25   1    -0.12  -0.04  -0.07    -0.34  -0.45  -0.03     0.09  -0.00   0.05
    26   1     0.06  -0.20   0.02     0.15   0.03   0.02    -0.27  -0.22  -0.02
                     37                     38                     39
                      A                      A                      A
 Frequencies --   1266.3537              1275.7956              1292.5359
 Red. masses --      1.6494                 1.9047                 2.2828
 Frc consts  --      1.5585                 1.8266                 2.2470
 IR Inten    --      1.2670                13.5565                 1.0218
  Atom  AN      X      Y      Z        X      Y      Z        X      Y      Z
     1   8     0.00  -0.02  -0.00     0.02   0.01   0.00    -0.01  -0.01  -0.00
     2   6    -0.03   0.05   0.03     0.02  -0.02  -0.04    -0.02   0.03   0.00
     3   6    -0.06  -0.03   0.05    -0.14   0.00   0.02     0.13  -0.00  -0.02
     4   6     0.03   0.03  -0.07    -0.03  -0.05  -0.02    -0.10   0.04  -0.03
     5   6     0.03  -0.13   0.03     0.16   0.11   0.04     0.17  -0.08   0.16
     6   6    -0.01   0.05   0.00    -0.06  -0.03  -0.01    -0.06   0.02  -0.03
     7   6    -0.01   0.03  -0.02    -0.06  -0.03  -0.01    -0.05   0.02  -0.05
     8   6    -0.02   0.03  -0.01    -0.05  -0.02  -0.02    -0.06   0.02  -0.05
     9   6    -0.05  -0.03  -0.01     0.03  -0.01   0.04    -0.02   0.03   0.02
    10   6     0.09   0.06   0.02    -0.01   0.02  -0.01    -0.00  -0.05  -0.02
    11   1    -0.12  -0.12   0.03     0.53   0.04  -0.09    -0.37  -0.02   0.07
    12   1     0.51   0.07  -0.09     0.45   0.08  -0.08    -0.40  -0.05   0.04
    13   1     0.14   0.24  -0.06     0.04  -0.07  -0.02    -0.21  -0.06  -0.03
    14   1    -0.01  -0.10  -0.10    -0.00   0.08  -0.16    -0.01   0.01  -0.25
    15   1     0.03  -0.06  -0.14     0.10  -0.03   0.18     0.09  -0.09  -0.06
    16   1     0.01  -0.03   0.12     0.12   0.06  -0.07     0.12   0.04   0.02
    17   1    -0.01   0.08   0.10     0.16  -0.15  -0.01     0.11   0.01   0.15
    18   1    -0.03   0.03   0.09    -0.04   0.15   0.04    -0.07   0.15   0.18
    19   1     0.01  -0.06  -0.02     0.17  -0.01  -0.04     0.15  -0.14  -0.07
    20   1     0.12   0.08  -0.02     0.02  -0.07   0.11     0.18   0.01   0.11
    21   1     0.10  -0.00  -0.03     0.07   0.01  -0.02     0.23   0.09  -0.07
    22   1    -0.03  -0.05  -0.01    -0.09  -0.15   0.12    -0.10  -0.12   0.14
    23   1     0.19  -0.17  -0.08    -0.19   0.07  -0.00     0.11  -0.06  -0.03
    24   1    -0.22   0.08  -0.00    -0.02   0.11   0.04     0.24  -0.11  -0.01
    25   1    -0.33  -0.42  -0.02     0.09   0.13   0.01     0.17   0.10   0.03
    26   1    -0.02  -0.14  -0.00    -0.17  -0.14  -0.02    -0.04   0.03   0.01
                     40                     41                     42
                      A                      A                      A
 Frequencies --   1319.6926              1337.0499              1365.9310
 Red. masses --      1.3430                 1.4680                 1.2729
 Frc consts  --      1.3781                 1.5462                 1.3993
 IR Inten    --      2.2253                 2.4070                 1.4020
  Atom  AN      X      Y      Z        X      Y      Z        X      Y      Z
     1   8    -0.02  -0.01   0.01     0.02   0.00   0.00     0.00   0.00  -0.00
     2   6     0.00  -0.01  -0.03    -0.02   0.04  -0.01     0.00  -0.01   0.01
     3   6     0.02   0.00  -0.01    -0.04  -0.02   0.01     0.01   0.02   0.03
     4   6    -0.01   0.02   0.05     0.00   0.04   0.00    -0.03  -0.13   0.00
     5   6    -0.00  -0.02  -0.04     0.01  -0.02  -0.08     0.01   0.03  -0.01
     6   6    -0.01   0.00  -0.00    -0.01   0.01   0.00    -0.01  -0.01  -0.00
     7   6     0.01   0.00   0.01    -0.00  -0.00   0.02    -0.01  -0.01   0.00
     8   6     0.00   0.01   0.01    -0.01   0.00   0.02     0.00  -0.01   0.00
     9   6    -0.04  -0.03   0.04    -0.11   0.07   0.05    -0.03   0.04  -0.03
    10   6     0.08   0.11  -0.03    -0.01  -0.08  -0.02    -0.00  -0.02  -0.01
    11   1     0.08   0.03  -0.01     0.11  -0.01  -0.01    -0.20  -0.09   0.03
    12   1    -0.20  -0.03   0.03     0.17   0.00  -0.02     0.11   0.07  -0.03
    13   1     0.07  -0.09   0.04     0.40  -0.27  -0.03     0.19   0.83   0.05
    14   1    -0.01   0.01   0.05    -0.02   0.01   0.05    -0.00   0.04   0.02
    15   1     0.02   0.00   0.02     0.04  -0.00   0.06     0.00   0.01   0.04
    16   1     0.03  -0.02   0.06     0.05  -0.02   0.10     0.03   0.00   0.00
    17   1    -0.03   0.02  -0.01    -0.03  -0.00  -0.03     0.02  -0.03  -0.01
    18   1     0.01   0.02  -0.01     0.01   0.03  -0.04    -0.00   0.02   0.00
    19   1    -0.03   0.04   0.01    -0.01   0.07   0.02     0.01   0.01  -0.00
    20   1    -0.00   0.02  -0.03     0.02   0.04  -0.04    -0.03  -0.02   0.00
    21   1    -0.01  -0.03   0.01    -0.00  -0.06   0.01    -0.01  -0.01   0.00
    22   1     0.00  -0.03  -0.03     0.00  -0.00  -0.05     0.01   0.00  -0.01
    23   1    -0.30   0.04  -0.04     0.52  -0.28  -0.10    -0.04   0.08   0.03
    24   1     0.50  -0.18  -0.04     0.39  -0.15  -0.01     0.30  -0.25  -0.06
    25   1    -0.09  -0.21   0.03     0.27   0.19   0.04     0.05   0.07  -0.02
    26   1    -0.47  -0.48  -0.06     0.01   0.05   0.02    -0.01   0.05   0.01
                     43                     44                     45
                      A                      A                      A
 Frequencies --   1398.9420              1428.5131              1430.6278
 Red. masses --      1.4612                 1.2314                 1.2375
 Frc consts  --      1.6849                 1.4805                 1.4922
 IR Inten    --      1.6538                 4.9521                 7.7289
  Atom  AN      X      Y      Z        X      Y      Z        X      Y      Z
     1   8    -0.00   0.00  -0.00     0.00   0.00  -0.00    -0.00  -0.00  -0.00
     2   6     0.00  -0.01   0.01     0.00  -0.00   0.00     0.00   0.00   0.00
     3   6     0.06  -0.01   0.02    -0.00   0.00   0.00     0.00  -0.00   0.00
     4   6    -0.15   0.02  -0.01    -0.00  -0.01  -0.00     0.01   0.00  -0.01
     5   6     0.04   0.00  -0.07     0.00   0.02   0.00    -0.01  -0.00   0.03
     6   6    -0.02   0.00   0.00    -0.00  -0.01   0.00    -0.01   0.01  -0.11
     7   6    -0.01   0.00   0.02     0.03  -0.08  -0.04     0.02  -0.05  -0.04
     8   6    -0.01  -0.00   0.02    -0.05  -0.08   0.03     0.03   0.04  -0.03
     9   6     0.07  -0.03   0.01     0.01  -0.00  -0.00     0.00  -0.00  -0.00
    10   6    -0.01   0.01   0.00    -0.00   0.00  -0.00    -0.00  -0.00   0.00
    11   1    -0.24   0.03   0.08     0.02   0.02   0.00    -0.04   0.02   0.02
    12   1    -0.12   0.07  -0.08     0.02   0.01  -0.02     0.00   0.02  -0.03
    13   1     0.79  -0.10  -0.03    -0.00  -0.00   0.00    -0.06   0.00  -0.01
    14   1    -0.02  -0.01   0.04     0.01   0.04  -0.00    -0.11  -0.01   0.43
    15   1     0.09  -0.03   0.09    -0.02   0.01   0.00     0.17   0.13   0.39
    16   1     0.09  -0.01   0.09     0.02   0.01  -0.01     0.12  -0.20   0.37
    17   1    -0.00  -0.03  -0.05    -0.23   0.21   0.25    -0.12   0.14   0.18
    18   1     0.01   0.02  -0.09     0.03   0.34   0.20     0.01   0.19   0.18
    19   1     0.06   0.01   0.01    -0.15   0.37   0.01    -0.13   0.22   0.00
    20   1    -0.01   0.03  -0.04     0.28   0.17  -0.23    -0.15  -0.11   0.16
    21   1     0.04  -0.04   0.01     0.25   0.32   0.03    -0.18  -0.17  -0.02
    22   1     0.01  -0.02  -0.09     0.07   0.36  -0.17    -0.05  -0.19   0.16
    23   1    -0.17   0.06  -0.01    -0.03   0.02   0.01     0.01  -0.00  -0.00
    24   1    -0.32   0.17   0.06    -0.01   0.02   0.00    -0.06   0.02   0.01
    25   1    -0.02  -0.04   0.03    -0.00   0.01  -0.00    -0.01   0.00  -0.01
    26   1     0.04  -0.01  -0.01    -0.00   0.01   0.00     0.01   0.02   0.01
                     46                     47                     48
                      A                      A                      A
 Frequencies --   1460.6434              1479.3170              1481.6034
 Red. masses --      1.2256                 1.0887                 1.0883
 Frc consts  --      1.5406                 1.4037                 1.4076
 IR Inten    --      6.8952                10.5413                 1.8935
  Atom  AN      X      Y      Z        X      Y      Z        X      Y      Z
     1   8    -0.00  -0.00  -0.00    -0.00  -0.00   0.00    -0.00  -0.00   0.00
     2   6     0.00  -0.00   0.00     0.00  -0.01   0.01    -0.00   0.00  -0.00
     3   6    -0.00   0.00  -0.00    -0.00  -0.07   0.02     0.00  -0.04   0.01
     4   6     0.02  -0.00  -0.00     0.02  -0.00   0.00     0.02  -0.01  -0.00
     5   6     0.00  -0.00   0.01    -0.01  -0.00   0.00    -0.00   0.00   0.01
     6   6    -0.01   0.01  -0.09    -0.00   0.00   0.00     0.00   0.00  -0.00
     7   6    -0.03   0.06   0.03    -0.00   0.00   0.00    -0.00   0.00   0.00
     8   6    -0.04  -0.06   0.02     0.00  -0.00  -0.00    -0.00  -0.00  -0.00
     9   6    -0.00  -0.00  -0.00    -0.01  -0.00  -0.00    -0.01  -0.00  -0.01
    10   6     0.00   0.00   0.00     0.03  -0.02   0.01    -0.06   0.04  -0.02
    11   1    -0.00  -0.02  -0.01    -0.02   0.55   0.21    -0.00   0.31   0.12
    12   1    -0.00  -0.02   0.02    -0.09   0.33  -0.50    -0.05   0.19  -0.29
    13   1    -0.13   0.01   0.01    -0.04   0.00   0.00    -0.06   0.04   0.00
    14   1    -0.09  -0.00   0.34    -0.01  -0.04   0.01    -0.01  -0.03   0.02
    15   1     0.15   0.09   0.30     0.04  -0.04  -0.02     0.03  -0.01   0.01
    16   1     0.11  -0.15   0.29     0.00   0.03  -0.04    -0.01   0.01  -0.02
    17   1     0.19  -0.17  -0.18    -0.01  -0.00  -0.02     0.00  -0.00  -0.01
    18   1    -0.03  -0.27  -0.16     0.01   0.00  -0.04     0.00  -0.00  -0.02
    19   1     0.14  -0.28  -0.01     0.02  -0.03  -0.00     0.02  -0.02  -0.00
    20   1     0.23   0.13  -0.16     0.01   0.01  -0.01     0.02   0.01  -0.01
    21   1     0.21   0.23   0.02    -0.02   0.01   0.00    -0.01   0.02   0.00
    22   1     0.05   0.28  -0.14    -0.00   0.01   0.02    -0.00   0.01   0.02
    23   1    -0.00   0.00   0.00     0.02  -0.00   0.03     0.06   0.05   0.12
    24   1    -0.01  -0.00  -0.00     0.04   0.01  -0.01     0.09   0.10  -0.03
    25   1    -0.02   0.00  -0.02    -0.16   0.14  -0.29     0.27  -0.23   0.49
    26   1    -0.01   0.02   0.01    -0.26   0.21   0.14     0.43  -0.33  -0.24
                     49                     50                     51
                      A                      A                      A
 Frequencies --   1514.3067              1517.4485              1519.0271
 Red. masses --      1.0500                 1.0458                 1.0464
 Frc consts  --      1.4186                 1.4189                 1.4225
 IR Inten    --      0.1719                 0.5083                 0.0147
  Atom  AN      X      Y      Z        X      Y      Z        X      Y      Z
     1   8     0.00   0.00  -0.00     0.00  -0.00  -0.00    -0.00  -0.00   0.00
     2   6    -0.00   0.00   0.00     0.00   0.00   0.00    -0.00   0.00  -0.00
     3   6     0.00   0.01  -0.00    -0.00   0.00  -0.00     0.00  -0.00   0.00
[...]
 09566,0.00065438,-0.00027144,-0.05071180,-0.00190503,-0.01425956,0.000
 19650,-0.00042254,-0.00093958,-0.00005541,0.00001376,-0.00010050,0.000
 00410,0.00002695,0.00006923,0.00008231,0.00003308,-0.00014483,-0.00017
 372,0.00009776,0.00004638,0.00019410,-0.00023431,-0.00000906,0.0002282
 5,0.00020693,0.00038257,0.00020376,-0.00010395,-0.00034848,0.00061995,
 -0.00000937,-0.00026264,0.00278131,0.00347613,0.02805807,-0.00068709,-
 0.00315981,-0.02699600,0.04912615,0.00009201,0.00001277,0.00000103,-0.
 00015455,-0.00004649,0.00001521,-0.00009763,0.00001969,-0.00016127,0.0
 0041765,0.00139928,0.00142063,0.00137982,0.00464641,0.02869373,0.00050
 666,-0.00534269,0.00187784,-0.00194506,-0.05483840,-0.03851408,-0.0007
 5280,0.00139037,0.00061734,0.00022175,0.00007153,-0.00016354,-0.000013
 35,0.00004106,-0.00005795,0.00014429,-0.00003423,-0.00001125,-0.000036
 51,-0.00000830,-0.00001772,-0.00016420,-0.00035567,-0.00061341,0.00031
 289,-0.00000005,-0.00003034,-0.00023304,-0.00006882,-0.00004001,0.0001
 2763,0.00031718,0.00202050,-0.00234867,-0.00274076,-0.01542836,0.00038
 158,-0.00298223,-0.01892810,0.00205159,0.05849125,0.00007469,0.0000032
 2,0.00002946,0.00000031,-0.00000523,0.00004836,0.00018803,0.00021751,-
 0.00007007,-0.00066562,-0.00138728,-0.00008385,-0.00067181,-0.00326439
 ,-0.01614980,-0.00048255,0.00467283,-0.00038190,-0.01436969,-0.0378349
 4,-0.30140469,0.00057648,-0.00106096,0.00027423,0.00007214,0.00020710,
 0.00038851,-0.00001771,0.00003645,-0.00003336,-0.00018768,-0.00003222,
 0.00016371,0.00024199,-0.00004962,-0.00010975,0.00044589,0.00070623,0.
 00086958,0.00005994,-0.00009486,0.00039591,0.00004949,-0.00013142,0.00
 031906,-0.00012254,-0.00014753,-0.00127215,-0.00076415,-0.00148660,-0.
 00852456,-0.00018485,-0.00100686,-0.00485957,0.01625411,0.04011926,0.3
 2917587,0.00015953,-0.00018380,-0.00000309,0.00002363,0.00043739,0.000
 02435,0.00000770,-0.00022414,0.00020428,0.00110881,0.00081900,-0.00061
 066,-0.00326345,0.02435450,-0.01529951,0.00093686,-0.00028338,-0.00135
 620,-0.00528084,0.00143850,0.00255518,-0.05588405,0.03537779,-0.020319
 80,-0.00076180,-0.00023208,0.00010578,-0.00004759,-0.00038136,-0.00005
 264,0.00001194,0.00002622,-0.00003256,0.00017037,-0.00003345,0.0000254
 5,-0.00011255,-0.00003091,0.00002271,-0.00001927,-0.00008955,0.0001591
 3,-0.00002132,-0.00032578,-0.00017984,0.00019629,-0.00022629,0.0006846
 0,-0.00005962,0.00195394,-0.00076993,0.00025353,0.00019739,0.00021060,
 -0.00003759,-0.00032622,0.00004168,0.05923642,0.00004674,0.00019133,0.
 00000785,-0.00018625,-0.00042779,-0.00005466,0.00013475,0.00026195,-0.
 00001031,-0.00044873,-0.00029105,-0.00021200,0.00104926,-0.01185993,0.
 00657879,-0.00062360,0.00015645,0.00108383,0.00348891,-0.00056394,-0.0
 0207411,0.03628223,-0.24035526,0.11071949,-0.00058931,-0.00066962,-0.0
 0014554,-0.00008677,0.00044395,-0.00000515,0.00000381,-0.00003425,0.00
 001003,-0.00008590,0.00000983,-0.00003557,-0.00001274,0.00000908,-0.00
 005573,0.00005609,-0.00012918,0.00001548,-0.00008807,0.00038352,-0.000
 18891,0.00021184,0.00037407,-0.00092639,0.00035193,-0.00082281,0.00071
 950,-0.00001522,0.00056902,-0.00010214,-0.00009721,0.00014397,0.000146
 96,-0.04013068,0.26196885,0.00008767,-0.00017047,-0.00000908,-0.000003
 20,0.00039544,0.00002254,-0.00009329,-0.00023411,0.00003631,-0.0004096
 3,0.00061965,-0.00009026,0.00060238,-0.00937092,0.00399596,-0.00000643
 ,-0.00093387,0.00098863,0.00138026,-0.00097887,-0.00030863,-0.02108441
 ,0.11093559,-0.11428769,-0.00008834,0.00088498,0.00066318,0.00013233,-
 0.00042017,-0.00017612,0.00000107,-0.00000532,0.00000531,0.00001866,-0
 .00002583,-0.00001174,0.00001550,0.00008132,0.00007128,-0.00003693,-0.
 00007195,-0.00003929,-0.00018514,0.00010902,0.00016301,0.00017246,0.00
 012937,0.00005549,0.00026931,-0.00039381,0.00071406,0.00011701,0.00009
 808,-0.00015354,0.00022515,-0.00018783,0.00037025,0.02135140,-0.122272
 93,0.12001996,0.00010751,0.00003248,0.00000384,-0.00003700,-0.00005899
 ,-0.00001976,0.00016123,0.00009156,-0.00030361,0.00126427,0.00044044,0
 .00184814,0.00079989,0.00476724,0.02824372,-0.00517984,0.00232931,0.00
 060816,0.00096896,-0.00101585,0.00058340,-0.04914573,-0.00137005,-0.00
 685435,-0.00008174,-0.00010549,-0.00004361,-0.00000824,-0.00007551,-0.
 00002932,0.00021101,0.00001072,-0.00001005,-0.00000949,-0.00000276,-0.
 00000089,-0.00049417,-0.00015218,-0.00078287,0.00017056,0.00032273,0.0
 0000308,0.00010614,0.00059912,0.00194478,-0.00010552,-0.00016208,-0.00
 018070,0.00000064,-0.00035464,-0.00009497,-0.00005138,0.00009324,-0.00
 016076,0.00007229,0.00025277,-0.00052240,-0.00101274,-0.00169993,-0.00
 462326,0.05216701,0.00003531,-0.00002665,0.00000218,-0.00002904,0.0000
 5700,0.00002532,0.00000508,-0.00012589,0.00008302,-0.00090643,0.000265
 61,0.00036881,-0.00144670,-0.00398842,-0.01364638,0.00284809,-0.001313
 97,-0.00020281,-0.00063571,0.00057130,-0.00123762,-0.00127129,-0.05990
 259,-0.04926731,-0.00002365,0.00018478,0.00017840,0.00001640,-0.000036
 68,-0.00008582,-0.00008148,0.00001014,0.00002842,0.00004820,0.00000164
 ,0.00000517,0.00003076,0.00033589,0.00029067,0.00013779,0.00016094,0.0
 0044118,0.00018121,0.00033355,-0.00112822,0.00001108,0.00024086,-0.000
 29768,-0.00011892,0.00015184,0.00029907,0.00001116,-0.00007965,-0.0000
 9040,0.00040888,-0.00016990,0.00053246,0.00062599,0.00737605,0.0286144
 0,-0.00038143,0.06013674,0.00004927,0.00004779,0.00001054,-0.00003804,
 -0.00013555,0.00001021,0.00020327,0.00017771,0.00039547,-0.00119427,-0
 .00024928,-0.00011593,-0.00074476,-0.00138780,-0.01025047,0.00318621,-
 0.00132014,0.00067388,-0.00061289,0.00066443,0.00030522,-0.00628609,-0
 .04958432,-0.29780616,0.00031533,0.00003188,-0.00013611,-0.00002090,0.
 00009994,0.00004730,-0.00024713,0.00004108,0.00011516,0.00002622,0.000
 00131,-0.00000386,0.00061324,0.00029375,0.00079085,-0.00013860,0.00016
 248,0.00027413,-0.00002761,-0.00031695,-0.00080407,-0.00017442,0.00006
 382,0.00034710,0.00013080,-0.00001283,0.00032210,0.00006871,0.00000401
 ,-0.00002642,0.00016649,-0.00045559,0.00068149,-0.00077133,-0.00359984
 ,-0.01483923,0.00605004,0.05585604,0.32450135,-0.00050520,-0.00042455,
 -0.00005226,-0.00016469,0.00091671,0.00015922,-0.00060486,-0.00177920,
 -0.00055419,-0.00403801,0.00435821,0.00277936,-0.02269025,-0.01793604,
 -0.00593444,0.00056463,-0.00102813,-0.00126092,0.00062691,-0.00196500,
 -0.00017140,-0.20124048,-0.12351247,-0.03603653,0.00019723,0.00067785,
 -0.00014754,0.00007852,-0.00014119,0.00002550,0.00001134,0.00002398,0.
 00011756,-0.00018490,0.00005492,-0.00002423,0.00030175,0.00016651,-0.0
 0001250,0.00049658,0.00060779,0.00090119,0.00040589,0.00030879,-0.0001
 2621,-0.00001377,0.00008046,0.00006086,0.00056815,0.00009594,0.0002182
 1,0.00040002,0.00127071,-0.00011249,-0.00002963,0.00011245,0.00000181,
 0.00502438,0.00350062,0.00178870,0.00002483,0.00037476,-0.00043502,0.2
 2071601,0.00001818,0.00025584,0.00002878,0.00011210,-0.00054299,-0.000
 07200,0.00069059,0.00083642,0.00010482,0.00237835,-0.00132266,-0.00069
 354,0.01140142,0.00794569,0.00281711,0.00012114,0.00030517,0.00039218,
 0.00107526,0.00110545,0.00013406,-0.12457956,-0.14852991,-0.02897895,0
 .00006646,-0.00047429,-0.00034328,-0.00002680,0.00035198,0.00011076,-0
 .00010671,0.00001845,0.00002588,-0.00004714,0.00000220,0.00003957,0.00
 008030,-0.00011133,0.00002918,-0.00007324,0.00023994,0.00009783,0.0000
 3725,0.00009581,0.00029222,-0.00011998,-0.00007929,-0.00009361,-0.0001
 2147,0.00027328,-0.00000811,0.00003341,-0.00001822,-0.00015545,-0.0000
 2929,-0.00009266,0.00007270,-0.02157556,-0.01688178,-0.00629349,-0.003
 59018,-0.00401695,-0.00054891,0.13449483,0.16009957,0.00006880,0.00005
 144,-0.00000782,0.00015531,-0.00009845,0.00000756,0.00035169,0.0002999
 1,0.00062072,0.00088706,-0.00092256,-0.00083781,0.00762218,0.00644476,
 0.00040534,0.00079750,0.00085074,0.00058060,-0.00064816,0.00003867,-0.
 00002348,-0.03636381,-0.02899471,-0.05784135,0.00004967,0.00003311,0.0
 0016359,-0.00001097,-0.00008502,-0.00002338,-0.00012888,0.00001719,0.0
 0003814,0.00007858,-0.00001759,-0.00002049,0.00028169,0.00011517,0.000
 51698,0.00008438,-0.00041210,-0.00011941,-0.00027262,0.00003399,0.0000
 8698,0.00007614,0.00003879,-0.00006119,0.00008891,0.00016426,-0.000173
 62,-0.00016487,0.00016465,0.00029093,-0.00013411,-0.00010368,-0.000038
 20,0.01396351,0.01029161,0.00307398,-0.02555199,-0.02071999,-0.0045647
 1,0.03876614,0.03284215,0.05802315,-0.00205862,0.00224951,0.00008765,-
 0.00351395,-0.00491936,-0.00062875,0.00062533,-0.00015630,0.00002426,0
 .00177554,-0.00110305,-0.00196320,0.00000778,0.00012695,-0.00031473,-0
 .00004926,-0.00000910,-0.00003414,0.00003349,0.00011110,0.00010694,-0.
 00091463,-0.00027737,-0.00024266,-0.18367301,0.11076367,0.07504046,-0.
 01866714,0.01717804,0.00981833,0.00006868,0.00011985,-0.00000043,0.000
 14830,-0.00003215,0.00015688,0.00033397,0.00029419,-0.00031614,0.00002
 248,-0.00000970,0.00001249,0.00001466,0.00000231,-0.00002106,0.0000485
 2,0.00000059,0.00000510,0.00001638,-0.00002082,-0.00002355,0.00000132,
 0.00005906,-0.00001592,-0.00000142,-0.00001008,0.00000556,-0.00067719,
 -0.00122035,0.00030178,0.00000937,0.00009905,-0.00001834,0.00011981,-0
 .00020719,0.00007924,0.20103410,-0.00095503,0.00168046,0.00000750,-0.0
 0184623,-0.00369970,-0.00018261,-0.00082014,-0.00455245,0.00384103,0.0
 2140492,-0.01506281,-0.01287507,0.00129496,0.00006145,-0.00013458,-0.0
 0022524,-0.00010371,0.00004934,-0.00032585,0.00002985,0.00007709,0.000
 18357,-0.00043641,0.00027454,0.11101178,-0.13719530,-0.06118383,-0.011
 02517,0.00965240,0.00517578,-0.00006475,0.00005326,-0.00017209,0.00166
 563,-0.00033252,-0.00045927,-0.00033447,0.00175141,0.00009719,-0.00005
 726,-0.00006321,-0.00005499,-0.00003879,0.00014887,0.00014419,0.000087
 04,-0.00002881,-0.00005481,-0.00006723,0.00022877,-0.00002037,-0.00013
 492,-0.00011030,0.00006451,0.00004435,-0.00001572,0.00001816,-0.001099
 34,0.00010431,-0.00051715,-0.00011550,-0.00011605,0.00021645,-0.000139
 41,0.00049791,-0.00004018,-0.11971346,0.14755615,-0.00059293,0.0002612
 8,0.00005777,-0.00238553,0.00060991,-0.00013442,-0.00000017,0.00240466
 ,-0.00060702,-0.01097924,0.00830409,0.00473275,0.00015520,-0.00032897,
 -0.00015147,-0.00032780,-0.00004975,-0.00015188,-0.00015942,-0.0000368
 3,0.00006163,0.00057135,-0.00034813,0.00069303,0.07656252,-0.06314094,
 -0.09282971,-0.00545307,0.00475775,0.00219753,-0.00037714,0.00026666,0
 .00015179,-0.00059692,0.00036557,0.00031566,-0.00038946,-0.00049809,0.
 00101008,-0.00001657,-0.00015043,0.00007861,-0.00001744,0.00013731,-0.
 00001319,0.00023421,-0.00010974,0.00010494,-0.00001358,-0.00000342,-0.
 00002266,0.00005168,-0.00004298,-0.00001406,0.00000038,0.00000011,-0.0
 0000410,-0.00017886,0.00026570,-0.00015037,0.00003574,0.00005688,-0.00
 017793,-0.00005904,0.00020360,-0.00016581,-0.08047668,0.06597785,0.096
 44230,-0.00048377,0.00051314,0.00048070,0.00049074,-0.00164266,-0.0009
 1946,0.00010161,-0.00004967,-0.00059908,-0.00016472,-0.00013772,0.0023
 8437,0.00031814,0.00010147,0.00032887,-0.00014059,-0.00094085,0.000088
 16,0.00001526,-0.00003692,-0.00009799,0.00007821,-0.00009904,0.0001819
 9,-0.05551265,0.00242639,-0.03352664,-0.00554476,-0.00295850,-0.030754
 32,0.00008053,0.00026748,0.00000850,0.00004688,0.00005733,0.00015570,0
 .00042792,-0.00095612,0.00010123,-0.00008718,0.00014163,0.00001488,-0.
 00001381,0.00022834,-0.00000711,-0.00034662,-0.00092477,-0.00053667,-0
 .00000504,0.00002069,-0.00000878,-0.00001276,-0.00000529,-0.00001888,0
 .00000617,0.00006644,-0.00006031,-0.00007847,0.00017891,0.00007889,0.0
 0007195,0.00007397,-0.00015722,-0.00003173,0.00002183,-0.00010299,0.00
 425847,0.00041888,0.02426583,0.05995022,-0.00012353,0.00036455,0.00015
 531,0.00007436,-0.00099766,-0.00022461,-0.00085977,0.00126780,-0.00020
 743,0.00366587,0.00228712,0.03205387,0.00010196,0.00163421,0.00018310,
 -0.00023881,-0.00100269,0.00003291,0.00022384,0.00005176,-0.00006405,-
 0.00016101,-0.00004802,-0.00007559,0.00288884,-0.04994353,-0.01297832,
 -0.00324864,-0.00171755,-0.01331219,0.00035429,-0.00026321,-0.00025399
 ,-0.00009454,-0.00004662,-0.00031238,0.00056543,-0.00571351,0.00280378
 ,0.00000724,0.00031884,-0.00014700,0.00001167,-0.00004635,-0.00008341,
 -0.00112068,-0.00095188,-0.00096916,0.00001943,-0.00001224,0.00000224,
 -0.00006689,-0.00001835,-0.00014544,0.00002398,0.00015576,-0.00024486,
 -0.00011201,0.00003675,-0.00000199,0.00016154,-0.00004396,-0.00007734,
 -0.00007300,0.00005046,-0.00001924,-0.00333246,-0.00052143,-0.01934411
 ,0.00401004,0.05463610,-0.00046586,0.00023982,0.00009482,0.00001747,-0
 .00062052,-0.00032281,0.00032326,-0.00012833,0.00027477,-0.00006299,0.
 00089295,-0.01387020,-0.00112594,-0.00080570,-0.00060301,-0.00083218,-
 0.00015356,-0.00060408,0.00020258,0.00009495,0.00007851,0.00006379,0.0
 0033160,-0.00003094,-0.03382617,-0.01388367,-0.30041113,-0.00058094,-0
 .00045410,-0.00420612,-0.00047438,0.00036235,0.00029185,-0.00009690,0.
 00020634,0.00024706,-0.00057832,0.00283719,0.00028407,0.00002613,-0.00
 037312,0.00047412,0.00004077,-0.00000872,0.00001474,-0.00000779,-0.001
 39356,0.00069676,-0.00001111,-0.00002458,-0.00000652,0.00007090,0.0001
 3717,0.00002921,0.00000615,-0.00005588,0.00019978,0.00017906,-0.000136
 62,-0.00012420,-0.00013233,-0.00009830,0.00022412,0.00011348,0.0000192
 9,0.00005103,-0.00149764,-0.00082143,-0.01252786,0.03976188,0.01392752
 ,0.32741803,-0.00012891,-0.00141287,0.00225284,0.00853030,0.01152455,-
 0.01642043,-0.00122226,0.00217185,0.00246239,-0.00605657,-0.00065764,-
 0.00208966,0.00093374,-0.00109943,0.00100672,-0.00007465,0.00002792,0.
 00015438,-0.00060306,-0.00019327,-0.00027371,0.00016823,-0.00006709,-0
 .00007665,-0.00554801,-0.01929676,0.01953606,-0.07891413,-0.06056723,0
 .05639049,0.00051773,0.00067952,-0.00015188,0.00011802,0.00003639,-0.0
 0003741,0.00002841,0.00022981,0.00007549,-0.00000103,-0.00004078,-0.00
 008132,0.00003816,-0.00006104,-0.00006297,-0.00000228,0.00002331,-0.00
 001050,0.00005479,-0.00006055,-0.00002026,0.00002075,-0.00025456,0.000
 09551,0.00000600,0.00002634,0.00001050,0.00006553,0.00001197,0.0000309
 5,0.00001361,0.00002060,-0.00000253,-0.00004363,-0.00004325,0.00000638
 ,-0.00101243,-0.00012041,0.00017396,0.00199846,0.00068261,-0.00020436,
 0.08049339,-0.00049908,0.00345584,-0.00273735,-0.01029759,-0.01907179,
 0.01779307,0.00083861,-0.00287776,-0.00187910,-0.00039988,-0.00121486,
 -0.00078172,0.00043013,-0.00002812,0.00050089,0.00001499,-0.00005548,0
 .00003373,-0.00021604,-0.00016044,-0.00011943,-0.00001451,-0.00006210,
 -0.00005248,-0.00047083,-0.00426838,0.00336878,-0.06114943,-0.16945707
 ,0.12399569,-0.00037433,-0.00097407,0.00002554,-0.00003331,-0.00050191
 ,-0.00007307,-0.00002808,0.00003778,0.00023229,-0.00003430,0.00001192,
 -0.00001867,-0.00000230,0.00000824,0.00003213,-0.00002800,0.00003694,-
 0.00002158,-0.00001800,0.00006797,0.00000395,-0.00006536,-0.00007876,0
 .00005011,0.00000900,0.00001714,-0.00000090,0.00000644,0.00001294,0.00
 000231,0.00000469,-0.00000026,0.00000510,-0.00004635,-0.00000695,0.000
 00956,-0.00015846,-0.00019441,-0.00012992,0.00001661,0.00030765,-0.000
 20224,0.06796366,0.18426974,-0.00136482,0.00002813,0.00052288,0.001005
 30,-0.00367726,0.00058074,-0.00027101,-0.00080619,-0.00038257,-0.00152
 329,-0.00099275,0.00002974,-0.00007697,-0.00041938,0.00045504,0.000105
 31,0.00007649,0.00006063,-0.00013433,-0.00008709,-0.00006193,0.0000332
 0,-0.00001046,-0.00002593,-0.00231159,-0.00735174,0.00566167,0.0575541
 3,0.12306193,-0.16116494,-0.00000907,-0.00019022,-0.00000113,0.0000435
 7,-0.00004327,-0.00002251,-0.00012881,-0.00026373,0.00031806,0.0000064
 7,0.00001512,0.00000544,0.00000104,-0.00002018,-0.00001238,-0.00002420
 ,0.00001372,-0.00002361,0.00000128,-0.00000600,-0.00000301,-0.00000779
 ,-0.00006934,0.00002254,-0.00000557,0.00000631,-0.00000283,0.00000050,
 0.00000314,0.00000544,-0.00000673,-0.00000177,0.00000268,0.00000085,0.
 00000050,0.00000723,0.00003750,0.00024669,0.00003552,0.00034893,-0.000
 13941,0.00115351,-0.06256067,-0.13069325,0.17285958,-0.00095655,0.0002
 6611,-0.00375238,0.00007663,0.00677173,0.02180576,-0.00056504,0.000976
 28,-0.00255127,0.00032016,0.00127883,-0.00056200,-0.00005843,-0.000126
 70,0.00008778,-0.00016055,0.00011843,-0.00012617,-0.00008897,-0.000020
 62,0.00003898,0.00003689,0.00009114,-0.00002154,-0.00285035,-0.0128419
 4,-0.03077374,-0.04377199,-0.00357730,-0.00468625,-0.00048755,-0.00047
 539,0.00006353,0.00053280,0.00040201,-0.00001764,0.00009578,-0.0003174
 3,0.00054349,0.00001779,-0.00012162,0.00009152,0.00002331,-0.00002086,
 0.00000438,0.00013461,-0.00008610,0.00022044,0.00000484,-0.00002788,-0
 .00002227,0.00001856,-0.00003509,0.00001536,-0.00000545,-0.00001176,0.
 00002668,0.00006148,-0.00003229,-0.00004290,-0.00002344,-0.00003370,0.
 00005960,0.00001108,-0.00001076,0.00002122,0.00204945,0.00097207,-0.00
 002706,-0.00542244,-0.00335975,-0.00090857,0.00061983,0.00455175,0.009
 28675,0.05038756,-0.00002634,0.00092785,0.00308988,-0.00065541,-0.0119
 6404,-0.02679408,0.00115104,-0.00186364,0.00535019,0.00008167,0.000167
 57,-0.00092936,-0.00018456,-0.00002428,0.00026635,0.00004016,0.0000704
 8,-0.00000706,-0.00002151,-0.00006780,-0.00005246,-0.00002654,0.000004
 43,-0.00006610,0.00013677,-0.00307882,-0.00721052,-0.00545013,-0.08826
 441,-0.10128943,0.00042250,0.00102538,-0.00019377,-0.00068637,-0.00094
 685,-0.00016827,-0.00030943,-0.00029977,0.00052976,0.00002986,-0.00001
 636,0.00003234,0.00000957,-0.00001511,0.00000497,0.00000385,-0.0000214
 9,0.00004754,-0.00001255,0.00003930,0.00001910,-0.00002055,0.00000381,
 0.00001778,-0.00000008,-0.00001050,0.00001480,0.00001739,-0.00000644,0
 .00000855,-0.00002126,-0.00000538,0.00002277,0.00000081,-0.00000112,0.
 00001751,0.00016556,0.00066799,0.00057195,-0.00079162,0.00021600,0.000
 11115,0.00047634,0.01072622,0.02132004,0.00567083,0.09273698,-0.000264
 14,-0.00011088,0.00103441,0.00074378,-0.00060459,-0.00001725,0.0003550
 7,-0.00031530,-0.00098612,0.00024388,0.00037684,-0.00000078,0.00004351
 ,-0.00013579,0.00018210,0.00003550,0.00013685,-0.00005093,-0.00005555,
 -0.00002977,-0.00002168,-0.00001358,0.00002508,-0.00004048,-0.00127748
 ,-0.00119645,-0.00544416,-0.00943338,-0.09328474,-0.25884975,-0.000064
 06,-0.00016189,-0.00003498,0.00013577,-0.00000912,-0.00001179,-0.00000
 149,-0.00025074,0.00027132,-0.00001044,-0.00002393,0.00004457,-0.00000
 267,-0.00000317,0.00000441,0.00004633,-0.00004112,0.00005761,0.0000006
 9,-0.00000160,-0.00000722,-0.00000492,-0.00002597,0.00001499,-0.000003
 16,-0.00000296,0.00001862,0.00004618,-0.00002249,0.00000478,-0.0000033
 1,-0.00000572,0.00002331,-0.00000609,-0.00002328,0.00001105,-0.0001229
 8,0.00032607,0.00106885,-0.00141046,-0.00055824,0.00117451,-0.00020333
 ,-0.00934345,-0.02001985,0.01122631,0.10528637,0.28157447\\0.00001042,
 -0.00000303,-0.00001377,0.00000697,0.00001509,-0.00000145,0.00000325,-
 0.00001281,-0.00002906,0.00000885,0.00001593,0.00002279,-0.00002019,-0
 .00000929,-0.00000764,0.00000979,0.00001341,-0.00001508,-0.00001788,-0
 .00001177,0.00000455,-0.00001626,-0.00000380,0.00000913,-0.00000046,0.
 00001072,-0.00001533,0.00001111,0.00000395,0.00000470,0.00001177,0.000
 00025,0.00002511,-0.00001202,0.00001932,0.00000058,0.00000582,-0.00000
 703,-0.00001164,-0.00000233,-0.00000143,0.00000487,-0.00000236,0.00000
 676,0.00001215,-0.00001270,-0.00001723,-0.00000225,-0.00000909,0.00000
 128,-0.00000015,0.00000105,-0.00000002,-0.00000107,-0.00000150,0.00000
 737,0.00000045,0.00000599,-0.00001266,0.00000384,0.00000225,-0.0000061
 6,-0.00000288,0.00000571,-0.00000167,-0.00000650,-0.00000498,-0.000007
 86,-0.00000440,0.00002255,0.00001933,0.00002336,0.00000051,-0.00000810
 ,0.00000460,-0.00000624,-0.00001055,-0.00000491\\\@


 I WANT IT ALL - RICH, THIN, AND CHOCOLATE.
 Job cpu time:       0 days  0 hours  2 minutes 12.1 seconds.
 Elapsed time:       0 days  0 hours 48 minutes 59.6 seconds.
 File lengths (MBytes):  RWF=    106 Int=      0 D2E=      0 Chk=      5 Scr=      1
 Normal termination of Gaussian 16 at Wed Feb 21 22:04:47 2024.
