 Entering Gaussian System, Link 0=g16
 Input=/Volumes/SSD-PMU3/b3lyp_6-31gd_freq/FKHXZEXCJTWMDL-NKWVEPMBSA-N_calculating/gaussianinput0.gjf
 Output=/Volumes/SSD-PMU3/b3lyp_6-31gd_freq/FKHXZEXCJTWMDL-NKWVEPMBSA-N_calculating/gaussianinput0.log
 Initial command:
 /Applications/g16/l1.exe "/Users/macmini_m1_2022/PycharmProjects/sphere_model/sphere_model_lib/Gau-53339.inp" -scrdir="/Users/macmini_m1_2022/PycharmProjects/sphere_model/sphere_model_lib/"
 Entering Link 1 = /Applications/g16/l1.exe PID=     53340.
  
 Copyright (c) 1988,1990,1992,1993,1995,1998,2003,2009,2016,
            Gaussian, Inc.  All Rights Reserved.
  
 This is part of the Gaussian(R) 16 program.  It is based on
 the Gaussian(R) 09 system (copyright 2009, Gaussian, Inc.),
 the Gaussian(R) 03 system (copyright 2003, Gaussian, Inc.),
 the Gaussian(R) 98 system (copyright 1998, Gaussian, Inc.),
 the Gaussian(R) 94 system (copyright 1995, Gaussian, Inc.),
 the Gaussian 92(TM) system (copyright 1992, Gaussian, Inc.),
 the Gaussian 90(TM) system (copyright 1990, Gaussian, Inc.),
 the Gaussian 88(TM) system (copyright 1988, Gaussian, Inc.),
 the Gaussian 86(TM) system (copyright 1986, Carnegie Mellon
 University), and the Gaussian 82(TM) system (copyright 1983,
 Carnegie Mellon University). Gaussian is a federally registered
 trademark of Gaussian, Inc.
  
 This software contains proprietary and confidential information,
 including trade secrets, belonging to Gaussian, Inc.
  
 This software is provided under written license and may be
 used, copied, transmitted, or stored only in accord with that
 written license.
  
 The following legend is applicable only to US Government
 contracts under FAR:
  
                    RESTRICTED RIGHTS LEGEND
  
 Use, reproduction and disclosure by the US Government is
 subject to restrictions as set forth in subparagraphs (a)
 and (c) of the Commercial Computer Software - Restricted
 Rights clause in FAR 52.227-19.
  
 Gaussian, Inc.
 340 Quinnipiac St., Bldg. 40, Wallingford CT 06492
  
  
 ---------------------------------------------------------------
 Warning -- This program may not be used in any manner that
 competes with the business of Gaussian, Inc. or will provide
 assistance to any competitor of Gaussian, Inc.  The licensee
 of this program is prohibited from giving any competitor of
 Gaussian, Inc. access to this program.  By using this program,
 the user acknowledges that Gaussian, Inc. is engaged in the
 business of creating and licensing software in the field of
 computational chemistry and represents and warrants to the
 licensee that it is not a competitor of Gaussian, Inc. and that
 it will not use this program in any manner prohibited above.
 ---------------------------------------------------------------
  

 Cite this work as:
 Gaussian 16, Revision A.03,
 M. J. Frisch, G. W. Trucks, H. B. Schlegel, G. E. Scuseria, 
 M. A. Robb, J. R. Cheeseman, G. Scalmani, V. Barone, 
 G. A. Petersson, H. Nakatsuji, X. Li, M. Caricato, A. V. Marenich, 
 J. Bloino, B. G. Janesko, R. Gomperts, B. Mennucci, H. P. Hratchian, 
 J. V. Ortiz, A. F. Izmaylov, J. L. Sonnenberg, D. Williams-Young, 
 F. Ding, F. Lipparini, F. Egidi, J. Goings, B. Peng, A. Petrone, 
 T. Henderson, D. Ranasinghe, V. G. Zakrzewski, J. Gao, N. Rega, 
 G. Zheng, W. Liang, M. Hada, M. Ehara, K. Toyota, R. Fukuda, 
 J. Hasegawa, M. Ishida, T. Nakajima, Y. Honda, O. Kitao, H. Nakai, 
 T. Vreven, K. Throssell, J. A. Montgomery, Jr., J. E. Peralta, 
 F. Ogliaro, M. J. Bearpark, J. J. Heyd, E. N. Brothers, K. N. Kudin, 
 V. N. Staroverov, T. A. Keith, R. Kobayashi, J. Normand, 
 K. Raghavachari, A. P. Rendell, J. C. Burant, S. S. Iyengar, 
 J. Tomasi, M. Cossi, J. M. Millam, M. Klene, C. Adamo, R. Cammi, 
 J. W. Ochterski, R. L. Martin, K. Morokuma, O. Farkas, 
 J. B. Foresman, and D. J. Fox, Gaussian, Inc., Wallingford CT, 2016.
 
 ******************************************
 Gaussian 16:  EM64M-G16RevA.03 25-Dec-2016
                21-Feb-2024 
 ******************************************
 %nprocshared=8
 Will use up to    8 processors via shared memory.
 %mem=4GB
 %chk= 0.chk
 ---------------------
 # freq b3lyp/6-31g(d)
 ---------------------
 1/10=4,30=1,38=1/1,3;
 2/12=2,17=6,18=5,40=1/2;
 3/5=1,6=6,7=1,11=2,25=1,30=1,71=2,74=-5,140=1/1,2,3;
 4//1;
 5/5=2,38=5,98=1/2;
 8/6=4,10=90,11=11/1;
 11/6=1,8=1,9=11,15=111,16=1/1,2,10;
 10/6=1/2;
 6/7=2,8=2,9=2,10=2,28=1/1;
 7/8=1,10=1,25=1/1,2,3,16;
 1/10=4,30=1/3;
 99//99;
 ---------
 good luck
 ---------
 Symbolic Z-matrix:
 Charge =  0 Multiplicity = 1
 O                     1.21141   0.        0. 
 C                     0.        0.        0. 
 C                    -0.9345   -1.20954   0.00388 
 C                    -2.09557  -0.6527    0.86197 
 C                    -1.58892  -1.29843  -1.42895 
 C                    -0.5552   -1.23503  -2.56629 
 C                    -2.37836  -2.61353  -1.56289 
 C                    -2.54945  -0.05017  -1.41433 
 C                    -2.32296   0.59443  -0.02605 
 C                    -0.91974   1.2371    0.00388 
 H                    -0.44128  -2.12968   0.32424 
 H                    -2.96272  -1.31808   0.90896 
 H                    -1.79433  -0.40544   1.88692 
 H                     0.00885  -0.29673  -2.56767 
 H                     0.1705   -2.0531   -2.4853 
 H                    -1.05421  -1.32468  -3.53877 
 H                    -3.11327  -2.74293  -0.76128 
 H                    -2.92304  -2.6337   -2.51502 
 H                    -1.70476  -3.47877  -1.5452 
 H                    -3.59422  -0.36228  -1.52842 
 H                    -2.32989   0.64669  -2.23166 
 H                    -3.1262    1.26597   0.28961 
 H                    -0.6963    1.90082  -0.83899 
 H                    -0.74836   1.80821   0.92578 
 

 GradGradGradGradGradGradGradGradGradGradGradGradGradGradGradGradGradGrad
 Berny optimization.
 Initialization pass.
 Trust Radius=3.00D-01 FncErr=1.00D-07 GrdErr=1.00D-07 EigMax=2.50D+02 EigMin=1.00D-04
 Number of steps in this run=      2 maximum allowed number of steps=      2.
 GradGradGradGradGradGradGradGradGradGradGradGradGradGradGradGradGradGrad

                          Input orientation:                          
 ---------------------------------------------------------------------
 Center     Atomic      Atomic             Coordinates (Angstroms)
 Number     Number       Type             X           Y           Z
 ---------------------------------------------------------------------
      1          8           0        1.211414    0.000000    0.000000
      2          6           0        0.000000    0.000000    0.000000
      3          6           0       -0.934501   -1.209541    0.003878
      4          6           0       -2.095565   -0.652703    0.861972
      5          6           0       -1.588915   -1.298429   -1.428952
      6          6           0       -0.555203   -1.235033   -2.566285
      7          6           0       -2.378363   -2.613527   -1.562894
      8          6           0       -2.549453   -0.050169   -1.414329
      9          6           0       -2.322965    0.594428   -0.026048
     10          6           0       -0.919740    1.237104    0.003878
     11          1           0       -0.441278   -2.129677    0.324243
     12          1           0       -2.962720   -1.318077    0.908958
     13          1           0       -1.794333   -0.405442    1.886921
     14          1           0        0.008846   -0.296728   -2.567674
     15          1           0        0.170495   -2.053104   -2.485298
     16          1           0       -1.054208   -1.324679   -3.538768
     17          1           0       -3.113272   -2.742932   -0.761282
     18          1           0       -2.923039   -2.633701   -2.515018
     19          1           0       -1.704757   -3.478767   -1.545202
     20          1           0       -3.594220   -0.362276   -1.528423
     21          1           0       -2.329889    0.646685   -2.231658
     22          1           0       -3.126204    1.265970    0.289611
     23          1           0       -0.696303    1.900823   -0.838988
     24          1           0       -0.748364    1.808211    0.925776
 ---------------------------------------------------------------------
                    Distance matrix (angstroms):
                    1          2          3          4          5
     1  O    0.000000
     2  C    1.211414   0.000000
     3  C    2.463322   1.528495   0.000000
     4  C    3.479242   2.358052   1.547405   0.000000
     5  C    3.401421   2.500494   1.577707   2.433514   0.000000
     6  C    3.351427   2.901616   2.598125   3.803258   1.538215
     7  C    4.707405   3.863906   2.551605   3.131259   1.539692
     8  C    4.018329   2.915914   2.442033   2.398042   1.575119
     9  C    3.584112   2.397955   2.276627   1.547781   2.467768
    10  C    2.464195   1.541546   2.446690   2.385427   2.988264
    11  H    2.715152   2.198951   1.092041   2.281944   2.254271
    12  H    4.470674   3.367676   2.223651   1.094024   2.711743
    13  H    3.572026   2.635239   2.220751   1.096540   3.440151
    14  H    2.850819   2.584778   2.887215   4.039522   2.202937
    15  H    3.387544   3.228159   2.851072   4.277893   2.186533
    16  H    4.405757   3.922883   3.546537   4.571924   2.176677
    17  H    5.177464   4.218494   2.771967   2.835443   2.203642
    18  H    5.509573   4.669674   3.511033   4.001641   2.177700
    19  H    4.795156   4.170811   2.853477   3.732808   2.186506
    20  H    5.055832   3.922466   3.184322   2.836248   2.215293
    21  H    4.235484   3.290423   3.223399   3.363609   2.230885
    22  H    4.527857   3.385219   3.318638   2.251915   3.448602
    23  H    2.820711   2.191316   3.231335   3.372194   3.373430
    24  H    2.822662   2.164887   3.160913   2.806264   3.987792
                    6          7          8          9         10
     6  C    0.000000
     7  C    2.496187   0.000000
     8  C    2.589969   2.573353   0.000000
     9  C    3.595096   3.557519   1.547296   0.000000
    10  C    3.584702   4.405646   2.514826   1.543687   0.000000
    11  H    3.027956   2.747307   3.433859   3.329294   3.415666
    12  H    4.228516   2.851266   2.678814   2.222881   3.394391
    13  H    4.696244   4.137385   3.405096   2.222306   2.647399
    14  H    1.094792   3.475041   2.817071   3.562494   3.134931
    15  H    1.096557   2.767956   3.543563   4.390294   4.267327
    16  H    1.096707   2.705290   2.893678   4.199038   4.373918
    17  H    3.474984   1.095180   2.827602   3.507581   4.608442
    18  H    2.750554   1.097096   2.832970   4.120179   5.034002
    19  H    2.720005   1.096676   3.533543   4.391005   5.025469
    20  H    3.327835   2.558833   1.096342   2.188265   3.472579
    21  H    2.608131   3.328450   1.096285   2.206240   2.708272
    22  H    4.584889   4.363661   2.228963   1.093527   2.225075
    23  H    3.582884   4.871624   2.751645   2.239100   1.095842
    24  H    4.636069   5.329366   3.489067   2.204225   1.097920
                   11         12         13         14         15
    11  H    0.000000
    12  H    2.712611   0.000000
    13  H    2.691785   1.776075   0.000000
    14  H    3.453331   4.686185   4.806942   0.000000
    15  H    2.876395   4.677422   5.068692   1.765722   0.000000
    16  H    3.993314   4.839910   5.552556   1.769121   1.772089
    17  H    2.948559   2.200586   3.770469   4.358278   3.772429
    18  H    3.804547   3.668249   5.061243   3.749689   3.147686
    19  H    2.628925   3.503420   4.607908   3.755963   2.536309
    20  H    4.061665   2.693172   3.860833   3.750523   4.236459
    21  H    4.219913   3.758222   4.284447   2.544134   3.688511
    22  H    4.329024   2.662258   2.668126   4.520469   5.439172
    23  H    4.202746   4.307352   3.735654   2.883543   4.369807
    24  H    3.995386   3.831101   2.630230   4.148292   5.233496
                   16         17         18         19         20
    16  H    0.000000
    17  H    3.737060   0.000000
    18  H    2.500826   1.767402   0.000000
    19  H    3.006263   1.771976   1.771691   0.000000
    20  H    3.379255   2.547026   2.565780   3.644567   0.000000
    21  H    2.687410   3.776930   3.345602   4.228636   1.763824
    22  H    5.065680   4.144374   4.807770   5.282005   2.485050
    23  H    4.221466   5.235670   5.322531   5.518669   3.740971
    24  H    5.462664   5.399246   6.024853   5.913760   4.339701
                   21         22         23         24
    21  H    0.000000
    22  H    2.715590   0.000000
    23  H    2.486161   2.753397   0.000000
    24  H    3.717493   2.520487   1.767959   0.000000
 Stoichiometry    C9H14O
 Framework group  C1[X(C9H14O)]
 Deg. of freedom    66
 Full point group                 C1      NOp   1
 Largest Abelian subgroup         C1      NOp   1
 Largest concise Abelian subgroup C1      NOp   1
                         Standard orientation:                         
 ---------------------------------------------------------------------
 Center     Atomic      Atomic             Coordinates (Angstroms)
 Number     Number       Type             X           Y           Z
 ---------------------------------------------------------------------
      1          8           0        1.950016    1.681216   -0.403016
      2          6           0        1.355721    0.636981   -0.248382
      3          6           0        0.089452    0.167520   -0.964250
      4          6           0        0.371198   -1.351837   -1.045705
      5          6           0       -1.090018    0.234451    0.081471
      6          6           0       -1.174588    1.589000    0.805454
      7          6           0       -2.432658   -0.022192   -0.627121
      8          6           0       -0.717173   -0.948242    1.052667
      9          6           0        0.599663   -1.520355    0.475818
     10          6           0        1.735119   -0.502883    0.717604
     11          1           0       -0.106137    0.714045   -1.889241
     12          1           0       -0.473588   -1.933422   -1.426472
     13          1           0        1.256039   -1.594859   -1.646036
     14          1           0       -0.270305    1.813811    1.380172
     15          1           0       -1.321251    2.408697    0.091996
     16          1           0       -2.021650    1.595336    1.502026
     17          1           0       -2.432893   -0.958703   -1.194894
     18          1           0       -3.244251   -0.083235    0.108549
     19          1           0       -2.671755    0.792552   -1.321184
     20          1           0       -1.502337   -1.713412    1.052731
     21          1           0       -0.598521   -0.607744    2.087956
     22          1           0        0.831318   -2.533797    0.815043
     23          1           0        1.819243   -0.138991    1.747835
     24          1           0        2.715663   -0.904662    0.430315
 ---------------------------------------------------------------------
 Rotational constants (GHZ):           1.9266566           1.3786533           1.1131063
 Standard basis: 6-31G(d) (6D, 7F)
 There are   178 symmetry adapted cartesian basis functions of A   symmetry.
 There are   178 symmetry adapted basis functions of A   symmetry.
   178 basis functions,   336 primitive gaussians,   178 cartesian basis functions
    38 alpha electrons       38 beta electrons
       nuclear repulsion energy       573.1028787856 Hartrees.
 NAtoms=   24 NActive=   24 NUniq=   24 SFac= 1.00D+00 NAtFMM=   60 NAOKFM=F Big=F
 Integral buffers will be    131072 words long.
 Raffenetti 2 integral format.
 Two-electron integral symmetry is turned on.
 One-electron integrals computed using PRISM.
 NBasis=   178 RedAO= T EigKep=  1.52D-03  NBF=   178
 NBsUse=   178 1.00D-06 EigRej= -1.00D+00 NBFU=   178
 ExpMin= 1.61D-01 ExpMax= 5.48D+03 ExpMxC= 8.25D+02 IAcc=3 IRadAn=         5 AccDes= 0.00D+00
 Harris functional with IExCor=  402 and IRadAn=       5 diagonalized for initial guess.
 HarFok:  IExCor=  402 AccDes= 0.00D+00 IRadAn=         5 IDoV= 1 UseB2=F ITyADJ=14
 ICtDFT=  3500011 ScaDFX=  1.000000  1.000000  1.000000  1.000000
 FoFCou: FMM=F IPFlag=           0 FMFlag=      100000 FMFlg1=           0
         NFxFlg=           0 DoJE=T BraDBF=F KetDBF=T FulRan=T
         wScrn=  0.000000 ICntrl=       500 IOpCl=  0 I1Cent=   200000004 NGrid=           0
         NMat0=    1 NMatS0=      1 NMatT0=    0 NMatD0=    1 NMtDS0=    0 NMtDT0=    0
 Petite list used in FoFCou.
 Requested convergence on RMS density matrix=1.00D-08 within 128 cycles.
 Requested convergence on MAX density matrix=1.00D-06.
 Requested convergence on             energy=1.00D-06.
 No special actions if energy rises.
 Integral accuracy reduced to 1.0D-05 until final iterations.
 Initial convergence to 1.0D-05 achieved.  Increase integral accuracy.
 SCF Done:  E(RB3LYP) =  -426.608763866     A.U. after   13 cycles
            NFock= 13  Conv=0.83D-08     -V/T= 2.0096
 DoSCS=F DFT=T ScalE2(SS,OS)=  1.000000  1.000000
 Range of M.O.s used for correlation:     1   178
 NBasis=   178 NAE=    38 NBE=    38 NFC=     0 NFV=     0
 NROrb=    178 NOA=    38 NOB=    38 NVA=   140 NVB=   140
 Symmetrizing basis deriv contribution to polar:
 IMax=3 JMax=2 DiffMx= 0.00D+00
 G2DrvN: will do    25 centers at a time, making    1 passes.
 Calling FoFCou, ICntrl=  3107 FMM=F I1Cent=   0 AccDes= 0.00D+00.
 End of G2Drv F.D. properties file   721 does not exist.
 End of G2Drv F.D. properties file   722 does not exist.
 End of G2Drv F.D. properties file   788 does not exist.
          IDoAtm=111111111111111111111111
          Differentiating once with respect to electric field.
                with respect to dipole field.
          Differentiating once with respect to nuclear coordinates.
 Keep R1 ints in memory in canonical form, NReq=134943922.
          There are    75 degrees of freedom in the 1st order CPHF.  IDoFFX=6 NUNeed=     3.
     72 vectors produced by pass  0 Test12= 7.09D-15 1.33D-09 XBig12= 6.33D+01 2.28D+00.
 AX will form    72 AO Fock derivatives at one time.
     72 vectors produced by pass  1 Test12= 7.09D-15 1.33D-09 XBig12= 6.79D+00 5.63D-01.
     72 vectors produced by pass  2 Test12= 7.09D-15 1.33D-09 XBig12= 4.64D-02 2.80D-02.
     72 vectors produced by pass  3 Test12= 7.09D-15 1.33D-09 XBig12= 1.43D-04 1.65D-03.
     72 vectors produced by pass  4 Test12= 7.09D-15 1.33D-09 XBig12= 1.73D-07 6.05D-05.
     34 vectors produced by pass  5 Test12= 7.09D-15 1.33D-09 XBig12= 1.04D-10 1.16D-06.
      3 vectors produced by pass  6 Test12= 7.09D-15 1.33D-09 XBig12= 6.58D-14 2.76D-08.
 InvSVY:  IOpt=1 It=  1 EMax= 8.88D-15
 Solved reduced A of dimension   397 with    75 vectors.
 Isotropic polarizability for W=    0.000000       88.67 Bohr**3.
 End of Minotr F.D. properties file   721 does not exist.
 End of Minotr F.D. properties file   722 does not exist.
 End of Minotr F.D. properties file   788 does not exist.

 **********************************************************************

            Population analysis using the SCF density.

 **********************************************************************

 Orbital symmetries:
       Occupied  (A) (A) (A) (A) (A) (A) (A) (A) (A) (A) (A) (A)
                 (A) (A) (A) (A) (A) (A) (A) (A) (A) (A) (A) (A)
                 (A) (A) (A) (A) (A) (A) (A) (A) (A) (A) (A) (A)
                 (A) (A)
       Virtual   (A) (A) (A) (A) (A) (A) (A) (A) (A) (A) (A) (A)
                 (A) (A) (A) (A) (A) (A) (A) (A) (A) (A) (A) (A)
                 (A) (A) (A) (A) (A) (A) (A) (A) (A) (A) (A) (A)
                 (A) (A) (A) (A) (A) (A) (A) (A) (A) (A) (A) (A)
                 (A) (A) (A) (A) (A) (A) (A) (A) (A) (A) (A) (A)
                 (A) (A) (A) (A) (A) (A) (A) (A) (A) (A) (A) (A)
                 (A) (A) (A) (A) (A) (A) (A) (A) (A) (A) (A) (A)
                 (A) (A) (A) (A) (A) (A) (A) (A) (A) (A) (A) (A)
                 (A) (A) (A) (A) (A) (A) (A) (A) (A) (A) (A) (A)
                 (A) (A) (A) (A) (A) (A) (A) (A) (A) (A) (A) (A)
                 (A) (A) (A) (A) (A) (A) (A) (A) (A) (A) (A) (A)
                 (A) (A) (A) (A) (A) (A) (A) (A)
 The electronic state is 1-A.
 Alpha  occ. eigenvalues --  -19.13269 -10.26633 -10.20804 -10.19770 -10.19120
 Alpha  occ. eigenvalues --  -10.19096 -10.18876 -10.18522 -10.17938 -10.17486
 Alpha  occ. eigenvalues --   -1.03191  -0.87987  -0.78604  -0.72466  -0.70747
 Alpha  occ. eigenvalues --   -0.68583  -0.65523  -0.56695  -0.55167  -0.52434
 Alpha  occ. eigenvalues --   -0.48639  -0.46974  -0.45869  -0.43285  -0.42329
 Alpha  occ. eigenvalues --   -0.41112  -0.39890  -0.39385  -0.38097  -0.37430
 Alpha  occ. eigenvalues --   -0.35930  -0.35605  -0.34602  -0.33313  -0.31909
 Alpha  occ. eigenvalues --   -0.31266  -0.30762  -0.23012
 Alpha virt. eigenvalues --   -0.00994   0.07357   0.10757   0.11652   0.12533
 Alpha virt. eigenvalues --    0.13661   0.14031   0.15338   0.15894   0.16233
 Alpha virt. eigenvalues --    0.16923   0.17829   0.18655   0.18756   0.19666
 Alpha virt. eigenvalues --    0.20347   0.21641   0.21941   0.23147   0.24908
 Alpha virt. eigenvalues --    0.26352   0.27509   0.27697   0.30550   0.33433
 Alpha virt. eigenvalues --    0.35607   0.49345   0.50583   0.51816   0.54942
 Alpha virt. eigenvalues --    0.55910   0.56539   0.57714   0.60103   0.60985
 Alpha virt. eigenvalues --    0.63559   0.63603   0.65139   0.66460   0.67732
 Alpha virt. eigenvalues --    0.69502   0.71699   0.73047   0.75267   0.76233
 Alpha virt. eigenvalues --    0.77318   0.78684   0.81328   0.83593   0.84371
 Alpha virt. eigenvalues --    0.84483   0.85678   0.86583   0.89721   0.90420
 Alpha virt. eigenvalues --    0.90775   0.91366   0.91931   0.92741   0.93654
 Alpha virt. eigenvalues --    0.95474   0.96044   0.96846   0.99752   1.00468
 Alpha virt. eigenvalues --    1.02071   1.03607   1.08120   1.09852   1.15103
 Alpha virt. eigenvalues --    1.22365   1.25676   1.31902   1.34192   1.43660
 Alpha virt. eigenvalues --    1.45667   1.46998   1.51636   1.53745   1.57613
 Alpha virt. eigenvalues --    1.61932   1.66122   1.67674   1.72917   1.74134
 Alpha virt. eigenvalues --    1.75491   1.77128   1.79873   1.80333   1.84480
 Alpha virt. eigenvalues --    1.87430   1.90396   1.90417   1.90583   1.93593
 Alpha virt. eigenvalues --    1.97562   2.00198   2.01121   2.05490   2.08069
 Alpha virt. eigenvalues --    2.08814   2.11147   2.12074   2.15597   2.17478
 Alpha virt. eigenvalues --    2.20138   2.21909   2.23528   2.27138   2.29005
 Alpha virt. eigenvalues --    2.30944   2.32022   2.37648   2.38997   2.42742
 Alpha virt. eigenvalues --    2.47097   2.49546   2.51566   2.53599   2.57486
 Alpha virt. eigenvalues --    2.64898   2.67060   2.69030   2.72226   2.75547
 Alpha virt. eigenvalues --    2.75797   2.81353   2.83781   3.03654   3.06150
 Alpha virt. eigenvalues --    4.11740   4.17173   4.26760   4.30867   4.35585
 Alpha virt. eigenvalues --    4.44485   4.52418   4.65892   4.75451   4.84428
          Condensed to atoms (all electrons):
               1          2          3          4          5          6
     1  O    8.029055   0.563469  -0.060125   0.002072  -0.003173   0.000848
     2  C    0.563469   4.513526   0.361531  -0.047904  -0.028642  -0.001463
     3  C   -0.060125   0.361531   5.237006   0.310041   0.391107  -0.060884
     4  C    0.002072  -0.047904   0.310041   5.197830  -0.053436   0.006460
     5  C   -0.003173  -0.028642   0.391107  -0.053436   4.800804   0.384939
     6  C    0.000848  -0.001463  -0.060884   0.006460   0.384939   5.153333
     7  C   -0.000064   0.002769  -0.048624  -0.005572   0.378193  -0.066534
     8  C   -0.000118  -0.018392  -0.076336  -0.079183   0.356188  -0.046452
     9  C    0.003438  -0.050305  -0.005125   0.348046  -0.057167   0.001358
    10  C   -0.073716   0.306828  -0.172453  -0.062302  -0.009358   0.000989
    11  H    0.001528  -0.030520   0.347983  -0.032638  -0.032095  -0.000901
    12  H   -0.000062   0.003856  -0.027658   0.367007  -0.007798   0.000063
    13  H    0.000082  -0.003742  -0.032524   0.366735   0.004892  -0.000162
    14  H    0.001019   0.006759  -0.005930   0.000311  -0.027522   0.364777
    15  H    0.000323  -0.000531  -0.004280   0.000002  -0.029781   0.368094
    16  H    0.000049   0.000361   0.005007  -0.000206  -0.028408   0.364127
    17  H    0.000001   0.000119  -0.004780   0.001663  -0.029108   0.005639
    18  H    0.000000  -0.000096   0.005031  -0.000029  -0.028546  -0.004222
    19  H   -0.000004   0.000025  -0.004700  -0.000183  -0.030539  -0.004660
    20  H    0.000002   0.000435   0.002186  -0.001655  -0.032674   0.003886
    21  H   -0.000015  -0.000091   0.003175   0.006247  -0.033740  -0.006569
    22  H   -0.000059   0.003752   0.004538  -0.033463   0.005823  -0.000122
    23  H    0.000193  -0.021467   0.004192   0.005830  -0.000351  -0.000011
    24  H   -0.000521  -0.019310   0.003503  -0.000990   0.000243  -0.000003
               7          8          9         10         11         12
     1  O   -0.000064  -0.000118   0.003438  -0.073716   0.001528  -0.000062
     2  C    0.002769  -0.018392  -0.050305   0.306828  -0.030520   0.003856
     3  C   -0.048624  -0.076336  -0.005125  -0.172453   0.347983  -0.027658
     4  C   -0.005572  -0.079183   0.348046  -0.062302  -0.032638   0.367007
     5  C    0.378193   0.356188  -0.057167  -0.009358  -0.032095  -0.007798
     6  C   -0.066534  -0.046452   0.001358   0.000989  -0.000901   0.000063
     7  C    5.156778  -0.040586  -0.000196  -0.000024  -0.005479   0.002254
     8  C   -0.040586   5.167936   0.375059  -0.033142   0.007175  -0.001481
     9  C   -0.000196   0.375059   4.987732   0.327602   0.003545  -0.029625
    10  C   -0.000024  -0.033142   0.327602   5.387659   0.009348   0.004216
    11  H   -0.005479   0.007175   0.003545   0.009348   0.595710  -0.000768
    12  H    0.002254  -0.001481  -0.029625   0.004216  -0.000768   0.573054
    13  H    0.000108   0.005759  -0.034793  -0.000607  -0.000592  -0.033271
    14  H    0.005718  -0.003945  -0.000197  -0.000177  -0.000098  -0.000005
    15  H   -0.004728   0.005214  -0.000186   0.000130   0.002214  -0.000004
    16  H   -0.005010  -0.005317   0.000098   0.000012  -0.000088  -0.000006
    17  H    0.364314  -0.004535   0.000213  -0.000008  -0.000056   0.005405
    18  H    0.365303  -0.006069   0.000126   0.000017   0.000065  -0.000271
    19  H    0.366949   0.005308  -0.000108  -0.000007   0.003278   0.000138
    20  H   -0.010110   0.358918  -0.028516   0.004263  -0.000167   0.001422
    21  H    0.003691   0.362327  -0.032682  -0.007615  -0.000137  -0.000018
    22  H   -0.000249  -0.035870   0.366727  -0.031425  -0.000141  -0.001824
    23  H    0.000029  -0.006218  -0.028907   0.351972  -0.000107  -0.000160
    24  H    0.000004   0.004442  -0.031166   0.350459  -0.000238   0.000069
              13         14         15         16         17         18
     1  O    0.000082   0.001019   0.000323   0.000049   0.000001   0.000000
     2  C   -0.003742   0.006759  -0.000531   0.000361   0.000119  -0.000096
     3  C   -0.032524  -0.005930  -0.004280   0.005007  -0.004780   0.005031
     4  C    0.366735   0.000311   0.000002  -0.000206   0.001663  -0.000029
     5  C    0.004892  -0.027522  -0.029781  -0.028408  -0.029108  -0.028546
     6  C   -0.000162   0.364777   0.368094   0.364127   0.005639  -0.004222
     7  C    0.000108   0.005718  -0.004728  -0.005010   0.364314   0.365303
     8  C    0.005759  -0.003945   0.005214  -0.005317  -0.004535  -0.006069
     9  C   -0.034793  -0.000197  -0.000186   0.000098   0.000213   0.000126
    10  C   -0.000607  -0.000177   0.000130   0.000012  -0.000008   0.000017
    11  H   -0.000592  -0.000098   0.002214  -0.000088  -0.000056   0.000065
    12  H   -0.033271  -0.000005  -0.000004  -0.000006   0.005405  -0.000271
    13  H    0.581874  -0.000003  -0.000002   0.000003  -0.000133   0.000003
    14  H   -0.000003   0.561131  -0.028684  -0.030221  -0.000192  -0.000091
    15  H   -0.000002  -0.028684   0.567623  -0.030752  -0.000062  -0.000144
    16  H    0.000003  -0.030221  -0.030752   0.582414  -0.000000   0.004586
    17  H   -0.000133  -0.000192  -0.000062  -0.000000   0.575828  -0.030164
    18  H    0.000003  -0.000091  -0.000144   0.004586  -0.030164   0.576150
    19  H   -0.000013  -0.000022   0.004314  -0.000286  -0.029925  -0.030178
    20  H   -0.000076  -0.000130  -0.000179   0.000250   0.002483   0.002895
    21  H   -0.000164   0.002759   0.000167   0.001609  -0.000071   0.000277
    22  H   -0.000771  -0.000023   0.000004   0.000002  -0.000055   0.000009
    23  H   -0.000042   0.000961   0.000005  -0.000045  -0.000001  -0.000003
    24  H    0.002697   0.000046  -0.000003   0.000001  -0.000000  -0.000000
              19         20         21         22         23         24
     1  O   -0.000004   0.000002  -0.000015  -0.000059   0.000193  -0.000521
     2  C    0.000025   0.000435  -0.000091   0.003752  -0.021467  -0.019310
     3  C   -0.004700   0.002186   0.003175   0.004538   0.004192   0.003503
     4  C   -0.000183  -0.001655   0.006247  -0.033463   0.005830  -0.000990
     5  C   -0.030539  -0.032674  -0.033740   0.005823  -0.000351   0.000243
     6  C   -0.004660   0.003886  -0.006569  -0.000122  -0.000011  -0.000003
     7  C    0.366949  -0.010110   0.003691  -0.000249   0.000029   0.000004
     8  C    0.005308   0.358918   0.362327  -0.035870  -0.006218   0.004442
     9  C   -0.000108  -0.028516  -0.032682   0.366727  -0.028907  -0.031166
    10  C   -0.000007   0.004263  -0.007615  -0.031425   0.351972   0.350459
    11  H    0.003278  -0.000167  -0.000137  -0.000141  -0.000107  -0.000238
    12  H    0.000138   0.001422  -0.000018  -0.001824  -0.000160   0.000069
    13  H   -0.000013  -0.000076  -0.000164  -0.000771  -0.000042   0.002697
    14  H   -0.000022  -0.000130   0.002759  -0.000023   0.000961   0.000046
    15  H    0.004314  -0.000179   0.000167   0.000004   0.000005  -0.000003
    16  H   -0.000286   0.000250   0.001609   0.000002  -0.000045   0.000001
    17  H   -0.029925   0.002483  -0.000071  -0.000055  -0.000001  -0.000000
    18  H   -0.030178   0.002895   0.000277   0.000009  -0.000003  -0.000000
    19  H    0.574881   0.000254  -0.000177   0.000005  -0.000000  -0.000000
    20  H    0.000254   0.595987  -0.034954  -0.003644   0.000028  -0.000168
    21  H   -0.000177  -0.034954   0.592165   0.000615   0.004808   0.000130
    22  H    0.000005  -0.003644   0.000615   0.603226   0.000412  -0.003707
    23  H   -0.000000   0.000028   0.004808   0.000412   0.548824  -0.024129
    24  H   -0.000000  -0.000168   0.000130  -0.003707  -0.024129   0.549841
 Mulliken charges:
               1
     1  O   -0.464223
     2  C    0.459033
     3  C   -0.171879
     4  C   -0.294684
     5  C    0.110148
     6  C   -0.462530
     7  C   -0.458937
     8  C   -0.290682
     9  C   -0.114971
    10  C   -0.352662
    11  H    0.133180
    12  H    0.145466
    13  H    0.144740
    14  H    0.153760
    15  H    0.151246
    16  H    0.141820
    17  H    0.143425
    18  H    0.145348
    19  H    0.145650
    20  H    0.139264
    21  H    0.138263
    22  H    0.126239
    23  H    0.164186
    24  H    0.168799
 Sum of Mulliken charges =  -0.00000
 Mulliken charges with hydrogens summed into heavy atoms:
               1
     1  O   -0.464223
     2  C    0.459033
     3  C   -0.038699
     4  C   -0.004478
     5  C    0.110148
     6  C   -0.015705
     7  C   -0.024514
     8  C   -0.013155
     9  C    0.011269
    10  C   -0.019676
 APT charges:
               1
     1  O   -0.660511
     2  C    0.758461
     3  C   -0.128353
     4  C    0.059149
     5  C    0.140761
     6  C    0.049088
     7  C    0.064735
     8  C    0.043344
     9  C    0.114072
    10  C   -0.065383
    11  H   -0.028615
    12  H   -0.022089
    13  H   -0.033893
    14  H   -0.016140
    15  H   -0.017790
    16  H   -0.027373
    17  H   -0.019667
    18  H   -0.033687
    19  H   -0.023852
    20  H   -0.045003
    21  H   -0.039998
    22  H   -0.052614
    23  H   -0.007002
    24  H   -0.007643
 Sum of APT charges =  -0.00000
 APT charges with hydrogens summed into heavy atoms:
               1
     1  O   -0.660511
     2  C    0.758461
     3  C   -0.156967
     4  C    0.003166
     5  C    0.140761
     6  C   -0.012214
     7  C   -0.012470
     8  C   -0.041656
     9  C    0.061458
    10  C   -0.080028
 Electronic spatial extent (au):  <R**2>=           1287.5279
 Charge=             -0.0000 electrons
 Dipole moment (field-independent basis, Debye):
    X=             -1.6647    Y=             -2.4786    Z=              0.4648  Tot=              3.0216
 Quadrupole moment (field-independent basis, Debye-Ang):
   XX=            -64.1391   YY=            -65.3170   ZZ=            -60.1802
   XY=             -5.8554   XZ=              1.2586   YZ=              1.2065
 Traceless Quadrupole moment (field-independent basis, Debye-Ang):
   XX=             -0.9270   YY=             -2.1049   ZZ=              3.0319
   XY=             -5.8554   XZ=              1.2586   YZ=              1.2065
 Octapole moment (field-independent basis, Debye-Ang**2):
  XXX=              1.2144  YYY=             -4.4999  ZZZ=             -1.0315  XYY=             -8.1776
  XXY=            -11.0895  XXZ=              2.3973  XZZ=              3.1923  YZZ=              2.6898
  YYZ=              0.6297  XYZ=              2.9699
 Hexadecapole moment (field-independent basis, Debye-Ang**3):
 XXXX=           -841.8701 YYYY=           -556.3816 ZZZZ=           -328.0149 XXXY=            -16.9684
 XXXZ=             -5.3721 YYYX=             -6.4412 YYYZ=             -1.4413 ZZZX=             -0.9261
 ZZZY=             -2.3350 XXYY=           -247.1409 XXZZ=           -190.8364 YYZZ=           -146.2677
 XXYZ=              4.0896 YYXZ=              6.5244 ZZXY=              2.4875
 N-N= 5.731028787856D+02 E-N=-2.135869257482D+03  KE= 4.225541858781D+02
  Exact polarizability:  95.369   0.339  89.443   1.105  -0.902  81.209
 Approx polarizability: 130.680   7.640 133.975   0.119  -3.000 120.991
 Calling FoFJK, ICntrl=    100127 FMM=F ISym2X=0 I1Cent= 0 IOpClX= 0 NMat=1 NMatS=1 NMatT=0.
 Full mass-weighted force constant matrix:
 Low frequencies ---    0.0008    0.0008    0.0009    5.6892    9.6944   14.6822
 Low frequencies ---  110.8092  140.3207  231.9919
 Diagonal vibrational polarizability:
        6.7278248       3.4678344       6.4875396
 Harmonic frequencies (cm**-1), IR intensities (KM/Mole), Raman scattering
 activities (A**4/AMU), depolarization ratios for plane and unpolarized
 incident light, reduced masses (AMU), force constants (mDyne/A),
 and normal coordinates:
                      1                      2                      3
                      A                      A                      A
 Frequencies --    110.8085               140.3203               231.9918
 Red. masses --      3.1537                 3.9287                 1.2188
 Frc consts  --      0.0228                 0.0456                 0.0386
 IR Inten    --      2.6592                 2.2588                 0.2898
  Atom  AN      X      Y      Z        X      Y      Z        X      Y      Z
     1   8    -0.09   0.05   0.21     0.26  -0.13  -0.09     0.04  -0.02   0.01
     2   6     0.01  -0.04   0.03     0.07   0.01   0.03    -0.00   0.01   0.02
     3   6     0.01  -0.00  -0.01    -0.02   0.13   0.07    -0.01   0.02   0.01
     4   6    -0.07  -0.02  -0.03    -0.02   0.13  -0.03     0.01   0.03  -0.02
     5   6     0.02   0.04  -0.01    -0.05   0.02   0.03    -0.01  -0.01   0.00
     6   6    -0.05   0.10  -0.14    -0.24   0.01   0.01     0.01   0.03  -0.07
     7   6     0.02  -0.09   0.03    -0.01  -0.15  -0.00    -0.03  -0.05   0.06
     8   6     0.08   0.12   0.06     0.02   0.05   0.04     0.00  -0.01  -0.00
     9   6    -0.02  -0.03  -0.04    -0.03   0.02  -0.04    -0.00  -0.00  -0.02
    10   6     0.09  -0.13  -0.12     0.01  -0.03   0.01    -0.01  -0.00   0.01
    11   1     0.04   0.02  -0.00     0.00   0.19   0.10    -0.01   0.04   0.02
    12   1    -0.11   0.03  -0.00    -0.02   0.16  -0.09     0.02   0.03  -0.04
    13   1    -0.10  -0.07  -0.05    -0.02   0.17  -0.04     0.02   0.05  -0.02
    14   1    -0.04   0.23  -0.21    -0.19   0.21  -0.13    -0.14  -0.15   0.26
    15   1    -0.14   0.01  -0.22    -0.53  -0.04   0.02     0.47   0.03  -0.16
    16   1    -0.02   0.11  -0.11    -0.13  -0.16   0.15    -0.24   0.27  -0.38
    17   1     0.02  -0.17   0.17     0.07  -0.21   0.09     0.06   0.08  -0.16
    18   1     0.03   0.00   0.05    -0.03  -0.14  -0.02     0.05  -0.37   0.13
    19   1    -0.00  -0.19  -0.08    -0.05  -0.24  -0.09    -0.24   0.07   0.28
    20   1     0.03   0.17   0.26     0.00   0.06   0.14     0.01  -0.01  -0.01
    21   1     0.25   0.22   0.01     0.12   0.08   0.01     0.01  -0.02  -0.00
    22   1    -0.09  -0.05  -0.04    -0.06  -0.01  -0.11    -0.00  -0.01  -0.04
    23   1     0.28  -0.22  -0.11    -0.01  -0.07   0.03    -0.03  -0.02   0.02
    24   1     0.01  -0.19  -0.32     0.00  -0.04   0.02    -0.00   0.01   0.02
                      4                      5                      6
                      A                      A                      A
 Frequencies --    243.6869               267.3627               341.1067
 Red. masses --      1.8718                 1.0881                 2.5708
 Frc consts  --      0.0655                 0.0458                 0.1762
 IR Inten    --      0.1651                 0.0526                 0.0523
  Atom  AN      X      Y      Z        X      Y      Z        X      Y      Z
     1   8     0.03  -0.01   0.04    -0.00   0.00  -0.03    -0.05   0.01  -0.02
     2   6    -0.02   0.01   0.03    -0.01   0.01   0.00    -0.04   0.00  -0.02
     3   6    -0.00   0.01  -0.03    -0.01   0.02   0.03    -0.01   0.03  -0.02
     4   6     0.06   0.03  -0.06    -0.01   0.02  -0.00    -0.08   0.03  -0.05
     5   6     0.00  -0.01  -0.02    -0.01  -0.01   0.03     0.06   0.03   0.05
     6   6     0.10   0.03  -0.09    -0.00  -0.01   0.02     0.14   0.03   0.06
     7   6    -0.07  -0.05   0.14     0.03  -0.01  -0.03     0.18  -0.16  -0.06
     8   6    -0.01  -0.04  -0.05    -0.00  -0.01   0.02     0.00   0.04   0.05
     9   6    -0.00  -0.01  -0.05    -0.00  -0.00  -0.01    -0.09  -0.02  -0.05
    10   6    -0.08   0.03   0.07     0.01  -0.00  -0.02    -0.14   0.02   0.04
    11   1     0.01   0.03  -0.02    -0.03   0.03   0.04    -0.06   0.06   0.02
    12   1     0.10   0.01  -0.12    -0.01   0.03  -0.01    -0.09   0.06  -0.08
    13   1     0.10   0.08  -0.02    -0.02   0.03  -0.01    -0.08   0.00  -0.04
    14   1     0.20   0.12  -0.29    -0.13  -0.18   0.29     0.20  -0.03  -0.01
    15   1    -0.06  -0.04  -0.14     0.36   0.03  -0.01     0.12   0.05   0.10
    16   1     0.23   0.08   0.06    -0.20   0.13  -0.22     0.20   0.04   0.14
    17   1    -0.23  -0.23   0.44    -0.09  -0.22   0.31     0.44  -0.14  -0.09
    18   1    -0.01   0.28   0.24    -0.08   0.42  -0.11     0.10  -0.36  -0.16
    19   1    -0.04  -0.24  -0.10     0.27  -0.22  -0.37     0.09  -0.19  -0.07
    20   1    -0.02  -0.04  -0.11     0.00  -0.02   0.03    -0.08   0.13   0.17
    21   1    -0.03  -0.10  -0.03     0.02  -0.02   0.02     0.15   0.07   0.03
    22   1     0.01  -0.02  -0.07     0.01  -0.00  -0.02    -0.07  -0.03  -0.08
    23   1    -0.24   0.04   0.08     0.04  -0.02  -0.01    -0.32   0.05   0.05
    24   1    -0.01   0.10   0.21    -0.00  -0.01  -0.05    -0.07   0.06   0.22
                      7                      8                      9
                      A                      A                      A
 Frequencies --    369.6577               393.6542               421.2291
 Red. masses --      2.6191                 2.0922                 2.2837
 Frc consts  --      0.2109                 0.1910                 0.2387
 IR Inten    --      1.1357                 0.0315                 1.3280
  Atom  AN      X      Y      Z        X      Y      Z        X      Y      Z
     1   8    -0.09  -0.03  -0.09     0.04   0.02  -0.00    -0.10  -0.05  -0.09
     2   6    -0.05  -0.02   0.06    -0.01   0.05   0.04    -0.05  -0.04   0.06
     3   6    -0.04   0.01   0.12    -0.05   0.05   0.08    -0.01   0.00   0.03
     4   6     0.01   0.05  -0.03    -0.02   0.06   0.06     0.20   0.05  -0.03
     5   6     0.01  -0.03   0.12    -0.08  -0.04   0.02    -0.04   0.04  -0.04
     6   6    -0.04   0.10  -0.11     0.14  -0.00  -0.04     0.03   0.01   0.05
     7   6     0.08   0.10  -0.03    -0.04  -0.08  -0.08    -0.05  -0.00  -0.01
     8   6     0.05  -0.12   0.05    -0.10  -0.06   0.00    -0.00   0.11   0.00
     9   6     0.06  -0.08  -0.05    -0.02   0.05   0.06    -0.04  -0.01   0.00
    10   6     0.01  -0.04   0.05     0.07  -0.01  -0.07     0.03  -0.10   0.03
    11   1    -0.07   0.09   0.18    -0.07   0.05   0.09     0.11   0.05   0.03
    12   1     0.04   0.03  -0.07    -0.01   0.06   0.05     0.41  -0.08  -0.32
    13   1     0.01   0.16  -0.08    -0.01   0.08   0.07     0.41   0.28   0.18
    14   1    -0.02   0.36  -0.24     0.30  -0.06  -0.28     0.06  -0.11   0.06
    15   1    -0.16  -0.12  -0.34     0.09  -0.05  -0.09     0.05   0.10   0.15
    16   1    -0.01   0.23  -0.08     0.30   0.17   0.15     0.06  -0.03   0.09
    17   1     0.09   0.19  -0.17     0.08  -0.07  -0.10     0.00  -0.02   0.00
    18   1    -0.04   0.08  -0.17    -0.10  -0.16  -0.15    -0.04  -0.04   0.00
    19   1     0.26   0.22   0.04    -0.03  -0.08  -0.09    -0.10  -0.03  -0.02
    20   1     0.05  -0.12   0.01    -0.02  -0.14  -0.16    -0.05   0.16   0.18
    21   1     0.10  -0.21   0.08    -0.26  -0.13   0.05     0.13   0.22  -0.05
    22   1     0.09  -0.10  -0.14     0.00   0.04   0.04    -0.15  -0.03   0.01
    23   1    -0.08  -0.09   0.08     0.39  -0.09  -0.07     0.15  -0.18   0.04
    24   1     0.06   0.06   0.09    -0.05  -0.11  -0.36    -0.03  -0.13  -0.12
                     10                     11                     12
                      A                      A                      A
 Frequencies --    431.1759               489.5847               519.9023
 Red. masses --      2.2158                 2.7697                 3.5502
 Frc consts  --      0.2427                 0.3912                 0.5654
 IR Inten    --      0.9428                 5.6670                 1.3895
  Atom  AN      X      Y      Z        X      Y      Z        X      Y      Z
     1   8     0.05  -0.04   0.05    -0.11   0.02  -0.11     0.01   0.17  -0.10
     2   6    -0.05   0.02   0.04     0.07  -0.04   0.13     0.10   0.11   0.01
     3   6    -0.07   0.00   0.00     0.07   0.04   0.06     0.14   0.04   0.02
     4   6    -0.03   0.02  -0.03    -0.14   0.04   0.00    -0.01   0.04  -0.01
     5   6    -0.07  -0.09  -0.04    -0.01   0.03  -0.10     0.08  -0.13  -0.01
     6   6     0.07  -0.11  -0.04     0.03  -0.03  -0.01    -0.00  -0.18  -0.10
     7   6    -0.11   0.05  -0.09    -0.06  -0.04  -0.02     0.04   0.04   0.06
     8   6     0.12   0.06   0.09     0.03   0.04  -0.09    -0.08  -0.02   0.11
     9   6     0.06   0.01  -0.03     0.06   0.01  -0.02    -0.18  -0.04   0.01
    10   6    -0.02   0.05   0.02     0.12  -0.06   0.15    -0.07  -0.06   0.01
    11   1    -0.07   0.02   0.01     0.29   0.15   0.08     0.06   0.06   0.05
    12   1    -0.06   0.01   0.04    -0.35   0.18   0.27    -0.06   0.22  -0.16
    13   1    -0.07   0.03  -0.09    -0.35  -0.15  -0.23     0.04  -0.10   0.12
    14   1     0.14  -0.22  -0.11     0.05  -0.13  -0.00    -0.04  -0.08  -0.09
    15   1     0.12  -0.08  -0.02     0.05   0.06   0.09    -0.04  -0.24  -0.16
    16   1     0.13  -0.02   0.03     0.05  -0.07   0.03    -0.02  -0.20  -0.13
    17   1    -0.20   0.11  -0.20    -0.10  -0.08   0.04    -0.21   0.09  -0.01
    18   1    -0.16   0.09  -0.14     0.03  -0.04   0.08     0.13   0.13   0.18
    19   1     0.04   0.15  -0.02    -0.19  -0.09  -0.04     0.08   0.15   0.18
    20   1     0.12   0.05   0.49     0.07   0.00  -0.14    -0.17   0.07   0.33
    21   1     0.38   0.32  -0.02    -0.06   0.05  -0.08     0.09   0.14   0.04
    22   1     0.08   0.01  -0.05    -0.04  -0.03  -0.06    -0.13  -0.05  -0.04
    23   1    -0.14   0.05   0.04    -0.04  -0.14   0.19     0.07  -0.19   0.04
    24   1     0.05   0.18   0.09     0.16  -0.04   0.25    -0.16  -0.24  -0.08
                     13                     14                     15
                      A                      A                      A
 Frequencies --    584.0146               632.0779               757.6425
 Red. masses --      2.6675                 3.8988                 3.2639
 Frc consts  --      0.5360                 0.9177                 1.1039
 IR Inten    --      0.8521                 1.0196                 1.0470
  Atom  AN      X      Y      Z        X      Y      Z        X      Y      Z
     1   8    -0.02   0.10   0.03    -0.11  -0.14   0.07    -0.07  -0.09   0.00
     2   6     0.22  -0.07  -0.17     0.01  -0.20  -0.11    -0.02  -0.10  -0.01
     3   6     0.01  -0.02   0.03    -0.06   0.08  -0.01     0.24   0.05  -0.13
     4   6     0.02   0.01  -0.03    -0.03   0.21  -0.00     0.03   0.10  -0.03
     5   6    -0.10  -0.01   0.07     0.07  -0.05  -0.01     0.01  -0.00  -0.00
     6   6    -0.00   0.06   0.04     0.01  -0.17  -0.09    -0.01   0.10   0.05
     7   6    -0.12  -0.02  -0.05     0.11   0.02   0.06    -0.11  -0.02  -0.06
     8   6    -0.04  -0.02   0.06    -0.04   0.06   0.01     0.00  -0.15   0.16
     9   6    -0.02  -0.01  -0.02    -0.01   0.16   0.08    -0.01   0.03   0.04
    10   6     0.08  -0.05   0.00     0.07   0.03  -0.02    -0.07   0.08  -0.01
    11   1    -0.06  -0.02   0.04    -0.08   0.21   0.08     0.40   0.13  -0.12
    12   1     0.10  -0.04  -0.13     0.06   0.11  -0.03    -0.13   0.31   0.01
    13   1     0.10   0.09   0.05     0.03   0.28   0.05    -0.04  -0.22   0.00
    14   1     0.06  -0.00  -0.04    -0.03  -0.11  -0.06    -0.00   0.11   0.05
    15   1     0.05   0.02  -0.01    -0.01  -0.20  -0.11    -0.00   0.10   0.05
    16   1     0.04   0.21   0.09    -0.02  -0.21  -0.13    -0.00   0.11   0.05
    17   1    -0.04  -0.01  -0.07    -0.01   0.04   0.04    -0.17  -0.02  -0.06
    18   1    -0.19  -0.05  -0.14     0.17   0.08   0.12    -0.07  -0.01  -0.02
    19   1    -0.06  -0.02  -0.06     0.14   0.07   0.11    -0.15  -0.02  -0.04
    20   1    -0.02  -0.05   0.12     0.04  -0.02  -0.17     0.02  -0.17   0.20
    21   1     0.03  -0.03   0.05    -0.27   0.04   0.05     0.06  -0.12   0.15
    22   1    -0.04  -0.02  -0.04    -0.06   0.12  -0.02     0.20   0.02  -0.13
    23   1    -0.36   0.27  -0.07    -0.02   0.41  -0.14     0.24   0.11  -0.05
    24   1     0.17  -0.23   0.59     0.07  -0.12   0.21    -0.16   0.03  -0.28
                     16                     17                     18
                      A                      A                      A
 Frequencies --    762.5819               817.3037               850.3821
 Red. masses --      4.6376                 2.9071                 2.6743
 Frc consts  --      1.5890                 1.1441                 1.1394
 IR Inten    --      4.9141                 1.9059                 2.3023
  Atom  AN      X      Y      Z        X      Y      Z        X      Y      Z
     1   8     0.00   0.03   0.00    -0.02  -0.04   0.01     0.03   0.01   0.01
     2   6    -0.06   0.04  -0.14    -0.01  -0.04   0.03    -0.01   0.03   0.01
     3   6    -0.07   0.15  -0.02     0.09   0.05   0.25    -0.10  -0.08  -0.03
     4   6     0.01   0.16   0.30     0.02  -0.08   0.03    -0.05   0.04  -0.10
     5   6     0.07   0.07  -0.13     0.02   0.02  -0.04     0.05   0.05  -0.12
     6   6     0.01   0.01  -0.03     0.00  -0.01  -0.02     0.02   0.04  -0.03
     7   6    -0.03   0.00  -0.05    -0.01   0.00  -0.02     0.04   0.02  -0.02
     8   6     0.15  -0.10  -0.01    -0.07   0.02  -0.04    -0.15  -0.07   0.15
     9   6     0.05  -0.21   0.10    -0.00  -0.13  -0.02     0.04  -0.12   0.04
    10   6    -0.10  -0.16  -0.04    -0.02   0.13  -0.21     0.15   0.05   0.07
    11   1    -0.10  -0.18  -0.21     0.20   0.17   0.31    -0.13  -0.15  -0.07
    12   1     0.04   0.18   0.20    -0.06   0.15  -0.14     0.04  -0.04  -0.19
    13   1     0.01   0.22   0.29     0.01  -0.04   0.01    -0.03   0.28  -0.17
    14   1    -0.01  -0.06   0.03     0.01  -0.05  -0.01    -0.05  -0.03   0.10
    15   1    -0.00   0.13   0.10     0.01   0.03   0.03    -0.07   0.23   0.20
    16   1     0.00  -0.13  -0.04     0.02  -0.05  -0.00    -0.00  -0.26  -0.05
    17   1    -0.12  -0.04   0.02    -0.09  -0.04   0.04     0.01  -0.04   0.08
    18   1     0.12   0.03   0.11     0.15   0.00   0.14     0.19  -0.02   0.15
    19   1    -0.20  -0.04  -0.05    -0.18  -0.03  -0.01    -0.19  -0.05  -0.03
    20   1     0.06  -0.01  -0.05    -0.18   0.13   0.11    -0.27   0.05   0.22
    21   1     0.09  -0.05  -0.02     0.05   0.13  -0.09    -0.15   0.09   0.10
    22   1     0.03  -0.30  -0.16     0.12  -0.04   0.16     0.13  -0.17  -0.18
    23   1    -0.26   0.00  -0.08    -0.25   0.37  -0.27     0.17   0.11   0.04
    24   1    -0.02  -0.09   0.15     0.13   0.32   0.06     0.20   0.20   0.01
                     19                     20                     21
                      A                      A                      A
 Frequencies --    898.0747               915.0000               923.8904
 Red. masses --      1.9721                 2.1230                 2.2402
 Frc consts  --      0.9371                 1.0473                 1.1266
 IR Inten    --      2.4290                 7.7607                 0.8353
  Atom  AN      X      Y      Z        X      Y      Z        X      Y      Z
     1   8     0.00   0.02  -0.01    -0.01   0.01   0.01    -0.00   0.02   0.01
     2   6     0.02   0.01   0.05     0.11  -0.06  -0.00     0.02  -0.01  -0.09
     3   6    -0.04   0.01   0.06    -0.06  -0.08   0.11    -0.05   0.10   0.02
     4   6    -0.06  -0.07  -0.08    -0.02   0.02   0.05     0.02  -0.04  -0.14
     5   6     0.08   0.04  -0.05     0.02   0.01  -0.07     0.04  -0.04  -0.00
     6   6     0.03   0.00  -0.04     0.00   0.05  -0.00     0.00   0.03   0.04
     7   6    -0.06  -0.01  -0.06     0.03   0.01  -0.03    -0.01  -0.02  -0.03
     8   6     0.12  -0.00   0.12     0.02  -0.11  -0.07     0.03  -0.01  -0.09
     9   6    -0.03   0.08   0.04    -0.04   0.11  -0.08     0.03  -0.09   0.18
    10   6    -0.05  -0.03  -0.04    -0.08   0.07   0.04    -0.05  -0.00   0.09
    11   1    -0.02   0.18   0.15    -0.07  -0.15   0.07    -0.21   0.28   0.16
    12   1     0.10  -0.17  -0.28     0.08  -0.18   0.15    -0.08   0.06  -0.07
    13   1     0.12   0.07   0.13    -0.00   0.21   0.01    -0.11   0.02  -0.36
    14   1    -0.06   0.00   0.11    -0.02   0.02   0.04     0.00   0.10   0.01
    15   1    -0.07   0.14   0.14    -0.03   0.11   0.08     0.01  -0.04  -0.05
    16   1    -0.01  -0.30  -0.09    -0.00  -0.07  -0.01    -0.02   0.10   0.01
    17   1    -0.13  -0.02  -0.04    -0.06  -0.03   0.05    -0.15  -0.01  -0.05
    18   1     0.02   0.01   0.03     0.20   0.02   0.16     0.04   0.04   0.04
    19   1    -0.15  -0.02  -0.04    -0.16  -0.03  -0.01    -0.01   0.03   0.03
    20   1     0.22  -0.10  -0.36    -0.00  -0.09   0.32    -0.03   0.06   0.08
    21   1    -0.18  -0.32   0.27     0.40   0.06  -0.18     0.06   0.16  -0.14
    22   1     0.05   0.14   0.19     0.16   0.15  -0.12     0.02   0.00   0.49
    23   1    -0.15  -0.10  -0.01     0.25  -0.01   0.03     0.32   0.15   0.01
    24   1    -0.06  -0.11   0.07    -0.28  -0.31  -0.15    -0.19  -0.20  -0.13
                     22                     23                     24
                      A                      A                      A
 Frequencies --    943.4525               961.6921               968.1083
 Red. masses --      2.1011                 1.5820                 2.0949
 Frc consts  --      1.1019                 0.8621                 1.1568
 IR Inten    --      1.4029                 1.0473                 0.7333
  Atom  AN      X      Y      Z        X      Y      Z        X      Y      Z
     1   8    -0.01  -0.00  -0.01    -0.01  -0.00   0.00    -0.00   0.01  -0.00
     2   6    -0.02   0.01   0.02     0.02  -0.02  -0.02    -0.00   0.01  -0.03
     3   6    -0.05   0.16  -0.06    -0.02   0.07  -0.02     0.01  -0.05   0.06
     4   6     0.04  -0.12  -0.00     0.01  -0.05   0.01     0.13   0.04  -0.03
     5   6    -0.09   0.02  -0.07     0.02   0.10   0.05    -0.00   0.02   0.01
     6   6    -0.05   0.02  -0.02     0.06  -0.10  -0.03     0.02  -0.01  -0.02
     7   6     0.10   0.03   0.03    -0.08   0.08   0.01    -0.01   0.02  -0.00
     8   6    -0.04  -0.09   0.05    -0.01  -0.03   0.00    -0.10   0.06   0.07
     9   6     0.02   0.06  -0.00    -0.00  -0.03  -0.02     0.15   0.05  -0.02
    10   6     0.02  -0.05  -0.02     0.01   0.03   0.04    -0.12  -0.10  -0.05
    11   1     0.06   0.46   0.09     0.02   0.20   0.04    -0.11  -0.12   0.05
    12   1     0.06  -0.30   0.20     0.05  -0.18   0.12    -0.13   0.13   0.40
    13   1     0.05  -0.29   0.09     0.01  -0.08   0.02    -0.20  -0.03  -0.48
    14   1     0.09  -0.29  -0.14    -0.08   0.19   0.07    -0.03  -0.01   0.04
    15   1     0.09   0.16   0.11    -0.09  -0.24  -0.16    -0.04   0.04   0.05
    16   1     0.08   0.14   0.14    -0.08  -0.21  -0.20    -0.01  -0.15  -0.05
    17   1     0.07   0.00   0.08     0.47  -0.03   0.19     0.08  -0.02   0.06
    18   1     0.20   0.04   0.14    -0.20  -0.21  -0.16     0.01  -0.05   0.01
    19   1    -0.00   0.01   0.04    -0.25  -0.19  -0.25    -0.10  -0.05  -0.05
    20   1     0.03  -0.17   0.24    -0.11   0.08   0.08    -0.07   0.03  -0.01
    21   1     0.05   0.08  -0.01     0.14  -0.05  -0.00    -0.21   0.07   0.08
    22   1     0.12   0.07  -0.01     0.03  -0.04  -0.08     0.34   0.11   0.03
    23   1    -0.14  -0.05  -0.01     0.14   0.04   0.02    -0.20  -0.25   0.00
    24   1     0.05  -0.12   0.16    -0.04  -0.00  -0.07    -0.14  -0.20   0.03
                     25                     26                     27
                      A                      A                      A
 Frequencies --    977.9671              1008.5742              1028.6489
 Red. masses --      1.8498                 1.5228                 1.4736
 Frc consts  --      1.0424                 0.9126                 0.9187
 IR Inten    --      1.9409                 0.2523                 4.2602
  Atom  AN      X      Y      Z        X      Y      Z        X      Y      Z
     1   8     0.00  -0.02   0.00     0.01  -0.00  -0.01    -0.01   0.01  -0.00
     2   6    -0.05   0.02   0.00    -0.04   0.04   0.06     0.06  -0.03  -0.00
     3   6    -0.04   0.04  -0.01     0.01  -0.04  -0.03     0.01   0.03  -0.03
     4   6     0.05  -0.03   0.04    -0.05   0.03  -0.02    -0.09  -0.02   0.02
     5   6     0.13  -0.09   0.00    -0.01  -0.03  -0.03     0.03  -0.01   0.01
     6   6     0.08   0.06   0.07     0.03   0.00   0.06    -0.03  -0.04   0.07
     7   6    -0.05  -0.06  -0.07     0.01   0.05  -0.00     0.00  -0.01  -0.05
     8   6    -0.06   0.01  -0.01    -0.01  -0.06  -0.04    -0.03   0.06   0.02
     9   6    -0.02   0.06  -0.06     0.00   0.06   0.08     0.09  -0.03  -0.02
    10   6     0.06  -0.02  -0.00     0.02  -0.06  -0.08    -0.06   0.01   0.01
    11   1    -0.27   0.22   0.14     0.12  -0.12  -0.11     0.09   0.08  -0.02
    12   1    -0.01  -0.08   0.26    -0.01   0.11  -0.22     0.18  -0.33  -0.09
    13   1     0.02  -0.27   0.11     0.01   0.12   0.03     0.08   0.28   0.14
    14   1    -0.11   0.45   0.21    -0.05   0.33   0.07     0.06   0.09  -0.11
    15   1    -0.12  -0.09  -0.07    -0.05  -0.22  -0.18     0.09  -0.27  -0.22
    16   1    -0.09  -0.11  -0.14    -0.08   0.09  -0.08    -0.02   0.34   0.07
    17   1    -0.35  -0.02  -0.13     0.19  -0.04   0.14    -0.17  -0.04   0.00
    18   1     0.06   0.08   0.07     0.06  -0.09   0.03     0.18   0.05   0.15
    19   1    -0.03   0.05   0.06    -0.18  -0.10  -0.11    -0.15   0.01   0.02
    20   1    -0.10   0.05   0.07     0.17  -0.24   0.25    -0.06   0.09  -0.07
    21   1    -0.02   0.10  -0.05    -0.00   0.28  -0.15    -0.23   0.14   0.02
    22   1    -0.10  -0.02  -0.25     0.05   0.14   0.30     0.30  -0.02  -0.13
    23   1    -0.08   0.00   0.00    -0.26  -0.05  -0.05    -0.00  -0.25   0.09
    24   1     0.11   0.00   0.11     0.09  -0.08   0.21    -0.05   0.13  -0.14
                     28                     29                     30
                      A                      A                      A
 Frequencies --   1043.0083              1106.4395              1130.7054
 Red. masses --      1.4646                 1.2935                 1.3811
 Frc consts  --      0.9387                 0.9330                 1.0403
 IR Inten    --     12.8785                 3.5243                 2.9750
  Atom  AN      X      Y      Z        X      Y      Z        X      Y      Z
     1   8    -0.01   0.01  -0.01     0.00   0.00  -0.01    -0.01  -0.03   0.01
     2   6     0.06  -0.02   0.06    -0.01   0.02   0.09    -0.03  -0.00  -0.04
     3   6    -0.02   0.02  -0.04    -0.03  -0.00  -0.04     0.01   0.07  -0.02
     4   6    -0.05   0.01   0.02     0.03   0.01  -0.01    -0.02  -0.04   0.04
     5   6     0.01  -0.03  -0.03     0.03   0.04  -0.01     0.03   0.05   0.05
     6   6     0.04   0.04  -0.02    -0.02  -0.04   0.03     0.00  -0.02  -0.03
     7   6    -0.03  -0.06   0.09    -0.00  -0.03  -0.02    -0.01  -0.04  -0.02
     8   6    -0.04  -0.01  -0.03     0.00  -0.01   0.03    -0.06  -0.03  -0.02
     9   6     0.04  -0.03   0.03    -0.04  -0.00   0.01     0.02   0.03  -0.04
    10   6    -0.04   0.01  -0.05     0.02  -0.01  -0.05     0.06   0.01   0.02
    11   1     0.24   0.14  -0.03     0.26  -0.09  -0.16    -0.09  -0.18  -0.14
    12   1     0.10  -0.20   0.01     0.05  -0.21   0.29    -0.04   0.19  -0.23
    13   1     0.02   0.17   0.06    -0.11   0.24  -0.31     0.00   0.11   0.01
    14   1    -0.07   0.07   0.13     0.04   0.03  -0.08     0.00  -0.08  -0.01
    15   1    -0.09   0.15   0.12     0.06  -0.16  -0.13     0.00   0.02   0.02
    16   1    -0.02  -0.23  -0.09    -0.01   0.18   0.04     0.02  -0.08  -0.01
    17   1     0.07   0.10  -0.17    -0.14   0.00  -0.07    -0.15   0.00  -0.08
    18   1    -0.38   0.03  -0.28     0.04   0.06   0.04    -0.01   0.05  -0.00
    19   1     0.47   0.09   0.09     0.02   0.04   0.04     0.04   0.05   0.06
    20   1    -0.11   0.07   0.08    -0.20   0.20  -0.07    -0.23   0.15   0.08
    21   1    -0.05   0.17  -0.09     0.22  -0.30   0.10     0.31  -0.21   0.00
    22   1     0.29   0.03   0.01    -0.07   0.02   0.11     0.22   0.25   0.46
    23   1    -0.05   0.01  -0.05     0.00   0.33  -0.16    -0.10  -0.39   0.18
    24   1    -0.05  -0.07   0.03    -0.02  -0.23   0.16     0.07   0.00   0.04
                     31                     32                     33
                      A                      A                      A
 Frequencies --   1151.9020              1174.1083              1186.5910
 Red. masses --      1.1020                 2.4017                 1.8984
 Frc consts  --      0.8615                 1.9507                 1.5748
 IR Inten    --      0.6980                34.1301                 8.7159
  Atom  AN      X      Y      Z        X      Y      Z        X      Y      Z
     1   8     0.00  -0.01  -0.00    -0.04  -0.00  -0.02     0.00  -0.00   0.01
     2   6    -0.03   0.02   0.04     0.19  -0.09   0.14    -0.02  -0.00  -0.08
     3   6    -0.02  -0.02   0.00    -0.13   0.06  -0.06    -0.07   0.08   0.09
     4   6    -0.01  -0.01  -0.01     0.09   0.04   0.01     0.04  -0.09   0.01
     5   6     0.03   0.01  -0.01     0.02  -0.02  -0.08    -0.07   0.04  -0.11
     6   6    -0.03  -0.01   0.01    -0.01  -0.00   0.04     0.06  -0.02   0.06
     7   6    -0.01   0.01   0.01     0.01   0.02   0.02     0.03  -0.04   0.03
     8   6     0.03   0.01  -0.01     0.02   0.00   0.04     0.01   0.01   0.07
     9   6     0.01  -0.00   0.01    -0.07  -0.06  -0.02    -0.01  -0.00  -0.07
    10   6     0.02   0.01   0.00    -0.03   0.05  -0.05     0.01   0.03   0.05
    11   1    -0.16  -0.05   0.02    -0.49  -0.23  -0.16     0.48  -0.29  -0.25
    12   1    -0.08   0.23  -0.21    -0.10   0.27   0.08    -0.10   0.23  -0.18
    13   1     0.08  -0.29   0.23    -0.02  -0.35   0.01    -0.03  -0.05  -0.12
    14   1     0.04  -0.06  -0.08     0.02   0.07  -0.05    -0.03   0.30   0.06
    15   1     0.06  -0.03  -0.03     0.04  -0.08  -0.06    -0.07  -0.22  -0.15
    16   1     0.02   0.13   0.07    -0.02   0.15   0.02    -0.11   0.02  -0.14
    17   1     0.05   0.01   0.01     0.09   0.01   0.02    -0.04   0.04  -0.09
    18   1    -0.05  -0.03  -0.04    -0.04  -0.03  -0.04    -0.01   0.07  -0.01
    19   1    -0.01  -0.02  -0.03     0.02  -0.03  -0.04     0.21   0.07   0.09
    20   1    -0.19   0.23  -0.10     0.03  -0.01  -0.07     0.15  -0.13  -0.06
    21   1    -0.06   0.05  -0.02    -0.09  -0.03   0.06    -0.21   0.07   0.07
    22   1     0.48   0.02  -0.24     0.06   0.07   0.28     0.01  -0.01  -0.10
    23   1     0.08   0.17  -0.05    -0.07  -0.16   0.03     0.12  -0.00   0.05
    24   1    -0.12  -0.44   0.18     0.08   0.35  -0.12    -0.09  -0.16  -0.01
                     34                     35                     36
                      A                      A                      A
 Frequencies --   1220.4567              1241.1782              1252.1551
 Red. masses --      2.1798                 1.5905                 2.1083
 Frc consts  --      1.9130                 1.4436                 1.9476
 IR Inten    --      5.4487                 0.6361                 2.4834
  Atom  AN      X      Y      Z        X      Y      Z        X      Y      Z
     1   8     0.00  -0.01   0.01    -0.02  -0.02  -0.01    -0.00   0.01  -0.01
     2   6    -0.04   0.01  -0.07    -0.01   0.01   0.06     0.02  -0.00   0.03
     3   6     0.02  -0.02   0.07     0.09   0.13   0.00     0.02  -0.01   0.03
     4   6     0.02  -0.03  -0.01    -0.03  -0.08   0.02    -0.01   0.01  -0.08
     5   6     0.19   0.04  -0.12     0.05  -0.04   0.03    -0.02   0.22   0.03
     6   6    -0.09  -0.02   0.04    -0.01   0.02  -0.03     0.02  -0.06  -0.00
     7   6    -0.08  -0.00   0.07    -0.02   0.02   0.00     0.01  -0.09  -0.01
     8   6     0.00  -0.07   0.02    -0.02   0.02   0.01    -0.04  -0.04  -0.04
     9   6    -0.05   0.08   0.03     0.02   0.00  -0.07     0.04   0.06   0.08
    10   6     0.02  -0.01  -0.00    -0.01  -0.03   0.03    -0.05  -0.11   0.01
    11   1    -0.08  -0.00   0.11    -0.41  -0.45  -0.23    -0.24  -0.23  -0.05
    12   1    -0.01  -0.03   0.06     0.05  -0.13  -0.09     0.01  -0.06  -0.03
    13   1    -0.04   0.16  -0.18    -0.03   0.26  -0.13     0.10  -0.26   0.19
    14   1     0.12  -0.13  -0.24    -0.00  -0.08   0.00     0.02   0.02  -0.04
    15   1     0.21  -0.05  -0.07     0.03   0.11   0.08    -0.01  -0.16  -0.11
    16   1     0.04   0.36   0.18     0.05  -0.03   0.05    -0.04  -0.06  -0.08
    17   1     0.19   0.09  -0.09     0.04  -0.00   0.03    -0.25   0.02  -0.18
    18   1    -0.34  -0.06  -0.24    -0.06  -0.05  -0.04    -0.00   0.19   0.00
    19   1     0.17  -0.06  -0.09    -0.04  -0.03  -0.05     0.15   0.12   0.17
    20   1    -0.07   0.00   0.06     0.20  -0.21   0.05     0.09  -0.16   0.18
    21   1    -0.08   0.18  -0.05    -0.18   0.18  -0.03     0.15   0.02  -0.07
    22   1    -0.17  -0.01  -0.17    -0.08   0.01   0.00     0.09  -0.04  -0.26
    23   1    -0.13  -0.24   0.09     0.14   0.40  -0.14     0.02   0.27  -0.13
    24   1     0.09   0.19  -0.05    -0.06  -0.13   0.01     0.11   0.37  -0.13
                     37                     38                     39
                      A                      A                      A
 Frequencies --   1282.5894              1293.0876              1313.7708
 Red. masses --      1.5404                 1.7288                 1.9331
 Frc consts  --      1.4930                 1.7032                 1.9658
 IR Inten    --      0.7711                 2.1574                 7.3385
  Atom  AN      X      Y      Z        X      Y      Z        X      Y      Z
     1   8    -0.00  -0.00   0.00    -0.01  -0.02  -0.00    -0.01  -0.03   0.01
     2   6     0.01  -0.01  -0.01     0.00  -0.00   0.04    -0.03   0.01  -0.03
     3   6    -0.07   0.06   0.04     0.02  -0.02  -0.05     0.14   0.05   0.06
     4   6     0.01   0.02  -0.08     0.04  -0.02   0.02    -0.03   0.04  -0.07
     5   6     0.05  -0.02   0.12    -0.02   0.13   0.07    -0.14  -0.04  -0.09
     6   6    -0.01   0.01  -0.04     0.01  -0.03  -0.02     0.04   0.00   0.02
     7   6    -0.01   0.01  -0.04     0.01  -0.04  -0.02     0.02   0.00   0.03
     8   6     0.06  -0.07  -0.02     0.03  -0.02  -0.01     0.07  -0.02   0.01
     9   6    -0.03   0.02   0.03    -0.05  -0.06   0.03    -0.05  -0.01   0.05
    10   6     0.01   0.01  -0.02     0.04   0.14  -0.06     0.04   0.03  -0.02
    11   1     0.42  -0.36  -0.30    -0.23   0.10   0.07    -0.43  -0.30  -0.01
    12   1     0.03  -0.17   0.17     0.00   0.01   0.04     0.14  -0.45   0.29
    13   1     0.05  -0.25   0.09    -0.08   0.15  -0.22     0.02  -0.01   0.02
    14   1    -0.01  -0.14   0.01     0.00  -0.04  -0.01    -0.04   0.17   0.08
    15   1     0.02   0.10   0.06    -0.01  -0.04  -0.02    -0.11  -0.04  -0.00
    16   1     0.06  -0.10   0.05    -0.01  -0.07  -0.04    -0.06   0.03  -0.10
    17   1    -0.06  -0.04   0.04    -0.16  -0.00  -0.07     0.11   0.01   0.02
    18   1     0.05  -0.01   0.03     0.01   0.11   0.01     0.02   0.03   0.03
    19   1    -0.13  -0.01  -0.01     0.01   0.06   0.10     0.08   0.02   0.03
    20   1    -0.21   0.21  -0.01     0.23  -0.23   0.09    -0.24   0.30  -0.11
    21   1    -0.28   0.36  -0.12    -0.26   0.27  -0.07    -0.00  -0.10   0.05
    22   1    -0.07  -0.01  -0.02    -0.11  -0.15  -0.18     0.10   0.00  -0.02
    23   1    -0.06  -0.13   0.04    -0.11  -0.38   0.13    -0.10  -0.23   0.09
    24   1     0.03   0.06  -0.00    -0.12  -0.41   0.19     0.03  -0.03   0.05
                     40                     41                     42
                      A                      A                      A
 Frequencies --   1329.4721              1348.7456              1361.5569
 Red. masses --      1.6221                 1.6495                 1.5050
 Frc consts  --      1.6892                 1.7679                 1.6439
 IR Inten    --      0.0618                 9.0227                 0.6805
  Atom  AN      X      Y      Z        X      Y      Z        X      Y      Z
     1   8     0.01  -0.01   0.01    -0.01  -0.01  -0.00     0.00  -0.00   0.01
     2   6    -0.04   0.02  -0.03     0.02  -0.01   0.02    -0.02   0.01  -0.03
     3   6     0.01  -0.04   0.03    -0.02   0.05   0.03    -0.01   0.02   0.02
     4   6    -0.03   0.11  -0.04    -0.03   0.00  -0.05     0.02   0.02  -0.03
     5   6     0.05   0.06  -0.03     0.04  -0.05  -0.02     0.05  -0.03   0.02
     6   6    -0.02  -0.02   0.01    -0.01   0.01   0.01    -0.02   0.02  -0.01
     7   6    -0.01  -0.02   0.01    -0.02   0.01   0.00    -0.02   0.01  -0.01
     8   6    -0.03   0.00   0.03    -0.09   0.06  -0.02    -0.04   0.09  -0.03
     9   6     0.04  -0.08  -0.12     0.13   0.00   0.09    -0.13  -0.06   0.04
    10   6     0.01   0.02   0.02    -0.02   0.08  -0.05     0.04  -0.00   0.01
    11   1     0.01   0.01   0.06     0.06  -0.23  -0.15     0.16  -0.09  -0.08
    12   1     0.08  -0.24   0.27     0.02  -0.05  -0.10     0.04  -0.16   0.18
    13   1     0.12  -0.30   0.35     0.06  -0.21   0.16    -0.03  -0.04  -0.07
    14   1     0.03  -0.01  -0.07     0.01  -0.01  -0.01     0.01  -0.08  -0.01
    15   1     0.06  -0.05  -0.04     0.04   0.00  -0.01     0.04   0.01  -0.02
    16   1    -0.01   0.05   0.02     0.02   0.01   0.04     0.03  -0.05   0.04
    17   1    -0.01   0.03  -0.07     0.07   0.00   0.02     0.05  -0.01   0.03
    18   1    -0.06   0.04  -0.04     0.00  -0.05   0.01     0.03  -0.04   0.03
    19   1     0.06   0.00   0.01     0.03  -0.01  -0.04     0.02   0.00  -0.03
    20   1     0.16  -0.20   0.06     0.09  -0.12   0.09     0.42  -0.38   0.03
    21   1    -0.12   0.09   0.01     0.37  -0.36   0.08     0.18  -0.18   0.03
    22   1    -0.13   0.11   0.58    -0.43  -0.24  -0.25     0.63   0.06  -0.12
    23   1     0.11   0.06  -0.00    -0.04  -0.24   0.07     0.02  -0.08   0.05
    24   1    -0.08  -0.22   0.07    -0.12  -0.26   0.11     0.09   0.09   0.05
                     43                     44                     45
                      A                      A                      A
 Frequencies --   1432.0368              1454.6160              1481.6821
 Red. masses --      1.2319                 1.2152                 1.0906
 Frc consts  --      1.4885                 1.5150                 1.4107
 IR Inten    --      4.6563                 2.4664                 8.6791
  Atom  AN      X      Y      Z        X      Y      Z        X      Y      Z
     1   8     0.00   0.00  -0.00    -0.00  -0.00   0.00    -0.00  -0.00   0.00
     2   6     0.00   0.00   0.00     0.00   0.00  -0.01    -0.01   0.00  -0.00
     3   6    -0.01  -0.01  -0.00    -0.01   0.00   0.01     0.00   0.00  -0.00
     4   6     0.00   0.00   0.01     0.00   0.00  -0.01     0.00  -0.01  -0.00
     5   6     0.01   0.02   0.01     0.00   0.00   0.01    -0.00   0.00   0.00
     6   6     0.00  -0.07  -0.04     0.01  -0.10  -0.05     0.00  -0.00  -0.00
     7   6    -0.10  -0.02  -0.05     0.07   0.01   0.03    -0.01  -0.00  -0.00
     8   6     0.00  -0.01  -0.00    -0.01   0.01  -0.00    -0.00  -0.01   0.01
     9   6     0.00   0.00  -0.00    -0.00  -0.01   0.01    -0.00   0.01  -0.01
    10   6     0.00  -0.00   0.00     0.00   0.00  -0.00    -0.07  -0.01  -0.04
    11   1     0.00   0.01   0.00     0.04  -0.02  -0.01    -0.01   0.00   0.00
    12   1     0.02   0.01  -0.05    -0.01  -0.00   0.03    -0.05   0.04   0.04
    13   1    -0.03  -0.04  -0.03     0.02  -0.00   0.02     0.04   0.07   0.03
    14   1    -0.13   0.27   0.07    -0.19   0.38   0.11     0.00  -0.02   0.01
    15   1    -0.00   0.20   0.26    -0.06   0.30   0.40    -0.04  -0.00   0.01
    16   1     0.07   0.30   0.06     0.08   0.46   0.05    -0.01   0.02  -0.01
    17   1     0.44  -0.10   0.11    -0.28   0.06  -0.07     0.02  -0.00  -0.00
    18   1     0.30   0.07   0.37    -0.20  -0.01  -0.25     0.02  -0.01   0.03
    19   1     0.41   0.23   0.09    -0.29  -0.14  -0.03     0.03   0.00  -0.01
    20   1     0.00  -0.01   0.02     0.05  -0.05  -0.04    -0.02   0.01  -0.09
    21   1    -0.02   0.03  -0.01     0.07  -0.00  -0.01     0.05   0.08  -0.03
    22   1    -0.01   0.00   0.01     0.04  -0.01  -0.02    -0.02   0.01  -0.00
    23   1    -0.03   0.02  -0.00     0.01  -0.02   0.01     0.67  -0.19  -0.02
    24   1    -0.01  -0.01  -0.03     0.01   0.01   0.01     0.23   0.19   0.62
                     46                     47                     48
                      A                      A                      A
 Frequencies --   1514.7197              1517.6622              1526.2696
 Red. masses --      1.0465                 1.0587                 1.0752
 Frc consts  --      1.4147                 1.4368                 1.4758
 IR Inten    --      0.5602                 1.8028                 7.1289
  Atom  AN      X      Y      Z        X      Y      Z        X      Y      Z
     1   8     0.00   0.00  -0.00    -0.00  -0.00   0.00    -0.00  -0.00   0.00
     2   6    -0.00  -0.00  -0.00    -0.00   0.00  -0.00     0.00   0.00  -0.00
     3   6     0.00   0.00   0.00     0.00  -0.00   0.00    -0.00   0.00   0.00
     4   6    -0.00   0.00   0.00    -0.00   0.02   0.02     0.00  -0.02  -0.02
     5   6    -0.01  -0.00  -0.00    -0.01  -0.01  -0.01     0.01  -0.00  -0.02
     6   6    -0.03  -0.02   0.03    -0.02   0.01  -0.02    -0.01   0.00  -0.02
     7   6     0.02   0.01  -0.03     0.01  -0.04   0.00     0.01  -0.01  -0.01
     8   6    -0.00  -0.00   0.00    -0.01  -0.01   0.02     0.03   0.02  -0.05
     9   6     0.00   0.00   0.00    -0.00   0.00  -0.00    -0.00   0.00  -0.00
    10   6    -0.00  -0.00  -0.00    -0.00  -0.00  -0.00    -0.01  -0.00  -0.00
    11   1    -0.00  -0.00   0.00     0.00   0.01   0.01     0.01   0.00   0.00
    12   1     0.03  -0.02  -0.02     0.15  -0.08  -0.16    -0.15   0.10   0.15
    13   1    -0.02  -0.02  -0.02    -0.14  -0.15  -0.13     0.13   0.15   0.12
    14   1     0.15   0.33  -0.37    -0.14   0.09   0.17    -0.13   0.04   0.18
    15   1     0.43   0.16   0.11     0.22  -0.06  -0.14     0.08  -0.05  -0.09
    16   1    -0.12  -0.26  -0.11     0.21  -0.14   0.26     0.17  -0.02   0.21
    17   1    -0.06  -0.23   0.37     0.31   0.05  -0.12     0.09  -0.08   0.11
    18   1    -0.13  -0.11  -0.18    -0.09   0.52  -0.06    -0.09   0.12  -0.10
    19   1    -0.03   0.26   0.29    -0.34   0.03   0.19    -0.12   0.11   0.18
    20   1    -0.01   0.00  -0.04     0.01  -0.01  -0.20    -0.04   0.07   0.55
    21   1     0.03   0.02  -0.01     0.15   0.12  -0.05    -0.40  -0.37   0.15
    22   1    -0.00   0.00  -0.00    -0.00   0.00   0.01     0.01   0.01  -0.00
    23   1     0.03  -0.01   0.00     0.03  -0.01   0.00     0.06  -0.01  -0.00
    24   1     0.01   0.01   0.03     0.01   0.01   0.02     0.02   0.02   0.04
                     49                     50                     51
                      A                      A                      A
 Frequencies --   1532.7295              1539.2945              1546.7577
 Red. masses --      1.0603                 1.0554                 1.0898
 Frc consts  --      1.4675                 1.4734                 1.5361
 IR Inten    --      1.1037                 3.2007                 4.8492
  Atom  AN      X      Y      Z        X      Y      Z        X      Y      Z
     1   8     0.00   0.00  -0.00    -0.00  -0.00   0.00     0.00   0.00  -0.00
     2   6     0.00  -0.00   0.00     0.00   0.00  -0.00     0.00  -0.00   0.00
     3   6     0.00   0.00  -0.01     0.00  -0.00   0.00    -0.00   0.00  -0.01
     4   6     0.00  -0.02  -0.02     0.00   0.00   0.00    -0.00  -0.04  -0.05
     5   6    -0.03   0.01   0.01     0.00   0.02  -0.03     0.01  -0.01   0.00
     6   6    -0.03  -0.01  -0.02     0.00   0.01  -0.03     0.01   0.01   0.01
     7   6    -0.01   0.01   0.02     0.01   0.02  -0.02    -0.00  -0.02  -0.01
     8   6    -0.00  -0.01   0.01    -0.01  -0.01   0.02    -0.02  -0.00   0.03
     9   6     0.00  -0.00   0.00     0.00  -0.00  -0.00     0.00  -0.01   0.01
    10   6     0.00   0.00   0.00     0.00   0.00   0.00     0.01   0.01   0.00
    11   1    -0.02   0.00  -0.00    -0.03   0.01   0.02     0.00  -0.01  -0.02
    12   1    -0.15   0.09   0.16     0.02  -0.02  -0.00    -0.35   0.22   0.36
    13   1     0.14   0.16   0.13    -0.01  -0.02  -0.00     0.32   0.34   0.29
    14   1    -0.13   0.32   0.04    -0.21  -0.12   0.38     0.05  -0.09  -0.03
    15   1     0.47   0.01  -0.10    -0.11  -0.17  -0.19    -0.12  -0.00   0.02
    16   1     0.21  -0.29   0.27     0.25   0.07   0.28    -0.07   0.05  -0.09
    17   1    -0.13   0.14  -0.21    -0.21  -0.22   0.37     0.21  -0.05   0.05
    18   1     0.14  -0.17   0.16    -0.08  -0.36  -0.14    -0.05   0.24  -0.04
    19   1     0.18  -0.20  -0.29     0.16   0.21   0.16    -0.14   0.10   0.17
    20   1    -0.01   0.00  -0.10     0.01  -0.03  -0.21     0.03  -0.05  -0.27
    21   1     0.06   0.07  -0.02     0.15   0.14  -0.05     0.21   0.16  -0.07
    22   1     0.00  -0.01  -0.01    -0.01  -0.00   0.01    -0.00  -0.02  -0.01
    23   1    -0.03  -0.00   0.00    -0.03   0.00   0.00    -0.10   0.02   0.01
    24   1    -0.01  -0.01  -0.02    -0.01  -0.01  -0.02    -0.04  -0.04  -0.09
                     52                     53                     54
                      A                      A                      A
 Frequencies --   1846.7810              3040.9134              3046.4952
 Red. masses --     12.2753                 1.0359                 1.0387
 Frc consts  --     24.6669                 5.6439                 5.6801
 IR Inten    --    225.9781                19.3734                21.8191
  Atom  AN      X      Y      Z        X      Y      Z        X      Y      Z
     1   8    -0.26  -0.45   0.07    -0.00   0.00  -0.00    -0.00  -0.00  -0.00
     2   6     0.40   0.69  -0.10    -0.00  -0.00   0.00     0.00   0.00   0.00
     3   6    -0.02  -0.04   0.00     0.00  -0.00   0.00     0.00  -0.00   0.00
     4   6    -0.01  -0.02  -0.00     0.00   0.00   0.00     0.00   0.00   0.00
     5   6    -0.02   0.00   0.01     0.00   0.00   0.00    -0.00  -0.00  -0.00
     6   6    -0.00   0.00   0.00     0.01  -0.02  -0.01    -0.01   0.04   0.02
     7   6     0.00  -0.00  -0.00    -0.04   0.00  -0.01    -0.02  -0.00  -0.01
     8   6     0.00   0.00  -0.00     0.00   0.00  -0.00     0.01   0.01  -0.02
     9   6    -0.00  -0.02   0.01     0.00  -0.00   0.00     0.00  -0.00   0.00
    10   6    -0.02  -0.04   0.01     0.00   0.00   0.00    -0.00   0.00   0.00
    11   1     0.15   0.13   0.03    -0.00   0.00  -0.01    -0.00   0.01  -0.01
    12   1    -0.03   0.00  -0.01    -0.03  -0.02  -0.01    -0.01  -0.01  -0.01
    13   1     0.01   0.03   0.00     0.02  -0.01  -0.02     0.01  -0.00  -0.01
    14   1     0.03   0.02  -0.04     0.17   0.03   0.10    -0.34  -0.07  -0.21
    15   1     0.03   0.01   0.00    -0.03   0.20  -0.18     0.07  -0.37   0.34
    16   1    -0.02  -0.04  -0.03    -0.23  -0.01   0.18     0.43   0.01  -0.35
    17   1    -0.01  -0.00  -0.00    -0.02   0.36   0.22    -0.01   0.17   0.10
    18   1     0.02   0.01   0.02     0.41   0.03  -0.39     0.19   0.01  -0.18
    19   1    -0.00   0.00  -0.00     0.10  -0.40   0.34     0.05  -0.18   0.15
    20   1     0.01  -0.01  -0.01    -0.04  -0.04  -0.00    -0.17  -0.17  -0.01
    21   1    -0.00   0.01  -0.00     0.00   0.01   0.03     0.03   0.08   0.21
    22   1    -0.01  -0.03   0.01    -0.00   0.01  -0.00    -0.01   0.03  -0.01
    23   1    -0.00   0.10  -0.04    -0.00  -0.00  -0.01     0.00   0.00   0.00
    24   1     0.01   0.07  -0.06    -0.00   0.00   0.00     0.01  -0.00  -0.00
                     55                     56                     57
                      A                      A                      A
 Frequencies --   3054.9325              3055.6572              3068.6395
 Red. masses --      1.0578                 1.0624                 1.0623
 Frc consts  --      5.8163                 5.8447                 5.8936
 IR Inten    --     43.3572                10.2017                22.1022
  Atom  AN      X      Y      Z        X      Y      Z        X      Y      Z
     1   8     0.00   0.00   0.00     0.00   0.00  -0.00     0.00   0.00   0.00
     2   6    -0.00  -0.00  -0.00    -0.00  -0.00   0.00    -0.00  -0.00  -0.00
     3   6    -0.00   0.00  -0.00    -0.00   0.00  -0.00    -0.00   0.00  -0.01
     4   6    -0.00  -0.00  -0.00     0.01  -0.01  -0.01    -0.03   0.04   0.05
     5   6     0.00  -0.00   0.00     0.00  -0.00   0.00     0.00  -0.00  -0.00
     6   6     0.00  -0.01  -0.00     0.00  -0.00  -0.00     0.00  -0.00  -0.00
     7   6     0.01  -0.00   0.00     0.00   0.00   0.00     0.00  -0.00  -0.00
     8   6     0.03   0.02  -0.05     0.01   0.01  -0.01     0.00   0.00  -0.00
     9   6     0.00  -0.00   0.00     0.00  -0.01   0.00     0.00  -0.01   0.00
    10   6     0.02  -0.00   0.01    -0.06   0.01  -0.02    -0.01   0.00  -0.00
[...]
 ,-0.00263804,0.00007003,0.00272958,0.00060395,0.00021868,0.00148559,0.
 01011320,0.00157648,0.02087863,-0.10590644,-0.00976402,-0.10848094,0.0
 0109999,0.00040376,0.00068358,0.00121225,-0.00035743,-0.00025918,0.000
 19412,-0.00035050,-0.00002467,0.00004185,-0.00003424,-0.00001076,0.000
 06800,-0.00007848,0.00027808,0.00005714,-0.00004376,-0.00006630,-0.000
 38740,0.00023219,0.00031757,-0.00789025,-0.00000369,-0.01398363,-0.009
 94906,-0.00339246,-0.01860924,0.11412798,0.00048197,0.00006285,-0.0004
 7251,-0.00071221,-0.00008212,0.00037848,-0.00027623,0.00038345,0.00032
 925,0.00016708,0.00033254,0.00001539,0.00047728,-0.00111971,0.00071187
 ,-0.00993360,-0.05182191,-0.01903215,0.00022585,0.00012760,0.00096300,
 -0.00043316,0.00041232,-0.00041150,-0.00016367,-0.00011719,0.00010838,
 -0.00002947,0.00009367,0.00001700,-0.00001174,0.00003144,-0.00040177,0
 .00002973,-0.00001550,-0.00002096,0.00002668,0.00004003,0.00001633,-0.
 01293455,-0.00140324,-0.02636741,0.01123278,0.00295031,0.02330836,0.01
 203463,0.05030600,-0.00041007,-0.00022328,0.00020682,0.00116620,0.0014
 0292,0.00018913,0.00438097,-0.00071512,-0.00164418,-0.00106970,0.00003
 525,-0.00135301,-0.01187329,-0.00180083,-0.02282256,-0.10758546,-0.018
 85081,-0.25037642,-0.00165250,-0.00080649,0.00056775,-0.00035649,0.001
 11704,0.00078048,-0.00024445,0.00007656,-0.00015414,-0.00006939,-0.000
 05415,0.00006294,-0.00009353,0.00009613,-0.00005463,0.00011984,0.00003
 744,-0.00001217,0.00057266,-0.00035272,-0.00024371,0.00016044,-0.00037
 491,0.00071524,-0.00089255,0.00021864,-0.00141748,0.11617152,0.0206995
 1,0.27407560,0.00035940,0.00002872,-0.00005102,-0.00041505,0.00007260,
 0.00011776,0.00015540,0.00039835,0.00097247,-0.00042140,-0.00016089,0.
 00025901,-0.01198355,-0.00050665,0.01189919,-0.00126575,-0.00410150,-0
 .00139443,-0.16601283,-0.01794607,0.12914819,-0.00003654,0.00082036,-0
 .00080385,0.00043094,-0.00022382,0.00024666,-0.00000654,0.00014980,-0.
 00011195,-0.00022637,0.00006369,-0.00013930,0.00107232,0.00001809,-0.0
 0030052,0.00029812,0.00026069,-0.00007981,-0.00055542,-0.00031369,0.00
 122210,0.00047247,0.00003980,-0.00027792,0.00021343,0.00012064,0.00015
 192,0.17824109,0.00038514,0.00004922,-0.00007149,-0.00021238,-0.000031
 19,0.00033484,0.00056625,0.00118364,0.00042732,-0.00072116,-0.00071646
 ,-0.00032897,-0.01763689,-0.00250261,0.02219486,-0.00257267,-0.0053560
 9,-0.00137020,-0.01704758,-0.05258234,0.01988492,-0.00113241,0.0014664
 7,0.00032955,0.00006119,-0.00011965,0.00003414,-0.00002967,0.00004006,
 -0.00007189,0.00003096,0.00000589,-0.00024984,0.00025179,-0.00057310,-
 0.00136292,0.00033595,0.00027749,-0.00001767,-0.00159135,0.00016488,0.
 00133905,-0.00031823,0.00019772,-0.00009592,0.00029614,-0.00009066,-0.
 00022265,0.02169174,0.05538380,0.00010270,0.00013961,0.00000953,0.0000
 3607,-0.00032950,0.00014715,0.00007180,0.00041006,0.00016109,-0.000131
 76,-0.00099431,-0.00071867,-0.00293746,-0.00032678,0.00237885,-0.00040
 189,0.00019719,0.00044862,0.12989031,0.02121300,-0.19259963,0.00055325
 ,0.00008852,0.00041868,-0.00025142,-0.00002129,-0.00002410,-0.00000921
 ,-0.00002339,-0.00008661,0.00001426,0.00010222,0.00002788,-0.00058838,
 -0.00141483,-0.00106089,-0.00015576,-0.00001204,0.00005361,0.00011162,
 -0.00010882,0.00039256,0.00001882,-0.00013303,-0.00007186,-0.00010460,
 -0.00017689,0.00053872,-0.14348119,-0.02061146,0.20929294,-0.00070178,
 -0.00036797,0.00035386,0.00084853,0.00109487,-0.00129260,-0.00221477,-
 0.00372791,0.00021558,-0.00019892,0.00023404,0.00036143,-0.00928054,-0
 .00026815,-0.01481586,0.00021383,0.00058148,-0.00132809,-0.11157234,0.
 00025098,-0.11110483,0.00035116,0.00063524,0.00088169,0.00005943,0.000
 04798,-0.00002711,-0.00001039,-0.00011101,0.00026487,0.00023019,0.0000
 0050,0.00040272,0.00033799,-0.00009419,-0.00020821,0.00014773,0.000022
 79,-0.00005442,0.00031406,0.00014511,0.00034439,-0.00004303,-0.0000798
 9,-0.00001966,-0.00015607,-0.00037195,0.00094231,0.01234910,0.00029040
 ,0.02005475,0.11886488,-0.00093540,-0.00053472,0.00051499,0.00056357,0
 .00170124,-0.00199276,-0.00354116,-0.00579062,-0.00050620,-0.00030702,
 0.00028642,0.00044707,-0.01442864,-0.00242092,-0.02527706,0.00080366,0
 .00083704,-0.00098304,0.00066248,-0.04819115,-0.00071925,-0.00078535,0
 .00174138,-0.00020532,0.00000734,0.00028407,-0.00018810,0.00000360,-0.
 00005948,0.00052259,-0.00015482,0.00021797,-0.00000615,0.00018871,0.00
 001669,0.00003694,0.00010157,0.00000596,-0.00002146,0.00039506,0.00003
 435,-0.00002025,-0.00003073,-0.00001125,0.00016677,-0.00009959,0.00015
 259,0.00063320,0.00206487,-0.00084392,0.00245900,0.00289704,0.05157074
 ,-0.00048128,-0.00027103,0.00011676,0.00068427,0.00075890,-0.00038609,
 -0.00044494,-0.00136802,0.00092339,-0.00011312,0.00021538,0.00016246,-
 0.00108359,-0.00017988,-0.00358629,0.00080137,0.00045961,0.00047062,-0
 .11151102,-0.00114424,-0.24649427,-0.00042722,0.00015831,0.00071601,0.
 00020305,0.00013096,-0.00026021,-0.00006563,-0.00011820,0.00034734,0.0
 0023670,0.00008425,0.00015685,-0.00028165,0.00011359,0.00020676,-0.000
 04789,-0.00011967,0.00000326,0.00005524,-0.00012152,0.00026474,0.00009
 732,-0.00001640,0.00000039,-0.00007488,0.00014585,0.00060263,-0.012329
 10,0.00019127,-0.02059048,0.12298087,0.00130316,0.26679631,0.00011403,
 0.00008473,-0.00001888,0.00007909,-0.00022425,0.00025830,0.00083197,0.
 00026424,0.00062151,-0.00032645,-0.00017338,0.00020975,0.01011022,-0.0
 1389677,0.00033711,0.00095123,-0.00055134,-0.00024240,-0.15220068,0.12
 797104,-0.00270352,-0.00161447,-0.00264855,-0.00002684,0.00055757,-0.0
 0030182,-0.00001850,-0.00002456,0.00010942,0.00002829,0.00008754,0.000
 08817,0.00009186,0.00015536,0.00016859,-0.00010495,0.00012952,0.000111
 36,-0.00001306,0.00024357,0.00009287,-0.00018879,-0.00005399,-0.000032
 66,-0.00004644,-0.00008794,0.00011393,0.00008856,-0.01327361,0.0163614
 6,-0.00201357,-0.01009482,0.01165765,0.00087720,0.16336217,-0.00026756
 ,0.00013387,0.00008789,0.00010739,-0.00007681,0.00005741,0.00119534,0.
 00063220,0.00106850,-0.00005394,0.00006055,-0.00005298,0.01798012,-0.0
 2270556,0.00059561,0.00170645,0.00077933,-0.00054785,0.12672240,-0.207
 22925,0.00371820,-0.00383499,-0.00336088,-0.00037808,0.00065297,-0.000
 70773,0.00081804,0.00015040,0.00034790,-0.00009485,-0.00056375,0.00036
 734,-0.00081020,-0.00000710,0.00001993,0.00003974,-0.00004600,0.000027
 20,-0.00006642,-0.00021350,0.00051037,-0.00021037,-0.00110175,0.000363
 58,0.00043731,-0.00011339,-0.00004811,0.00009915,-0.00270975,0.0037125
 9,-0.00076743,-0.00084213,0.00095446,0.00050000,-0.13855035,0.22721697
 ,0.00007072,0.00006357,-0.00006188,-0.00018522,-0.00007532,0.00006054,
 0.00096655,-0.00063671,0.00068154,0.00036242,0.00007705,-0.00052494,0.
 00176144,-0.00288379,-0.00132978,-0.00020131,0.00067293,0.00002471,-0.
 00224495,0.00386480,-0.05050566,-0.00034391,-0.00044868,0.00144704,0.0
 0003416,0.00028181,-0.00011263,0.00003389,0.00010381,0.00005441,-0.000
 33628,0.00002269,-0.00015304,-0.00025662,-0.00013563,0.00010598,-0.000
 12034,-0.00016855,-0.00000540,0.00001318,-0.00016412,-0.00015423,0.000
 27918,0.00020478,0.00024314,-0.00013822,0.00013190,-0.00004645,0.01522
 851,-0.02038719,0.00139753,-0.01812025,0.02362150,0.00067855,0.0031269
 5,-0.00379231,0.04837164,-0.00026991,-0.00002933,0.00001895,0.00094752
 ,0.00013699,0.00028435,-0.00104583,0.00166955,0.00059629,-0.00015347,-
 0.00022192,0.00034220,-0.01601405,-0.00431012,-0.00111688,-0.00124581,
 0.00209978,-0.00129374,0.00084404,-0.00261214,-0.00004789,-0.28476343,
 -0.07366450,-0.02330447,-0.00217395,-0.00079255,0.00038361,0.00111476,
 -0.00040112,-0.00090418,-0.00028947,-0.00008885,-0.00060916,0.00019844
 ,0.00042479,-0.00033902,0.00022660,0.00015176,-0.00015068,0.00030712,-
 0.00000415,-0.00015397,-0.00051567,0.00025728,0.00071240,0.00003565,-0
 .00004709,0.00021258,0.00049226,0.00074133,-0.00047627,0.00030963,0.00
 076550,0.00064775,0.00049499,-0.00045057,0.00003362,0.30700073,-0.0002
 6497,0.00053022,0.00006197,0.00023513,-0.00160963,-0.00013793,0.001812
 55,-0.00224314,-0.00046485,0.00033385,0.00027542,0.00054512,0.02471872
 ,0.00547353,0.00268031,0.00144233,-0.00221905,0.00091081,0.00180931,0.
 00058595,0.00001790,-0.07404328,-0.06889489,-0.00487176,-0.01469821,-0
 .00559329,-0.00059042,-0.00015318,-0.00078299,-0.00381926,0.00034398,0
 .00022308,0.00079131,-0.00003399,0.00041651,0.00017212,0.00006404,-0.0
 0005159,-0.00005312,0.00010693,0.00004550,0.00007352,0.00060871,0.0000
 1940,-0.00091923,-0.00013016,0.00005905,-0.00020715,0.00001149,-0.0000
 9672,0.00036328,-0.00004242,0.00008442,-0.00040455,-0.00015687,0.00028
 565,-0.00000506,0.07865513,0.07897393,-0.00035338,0.00036080,0.0001586
 0,0.00074411,-0.00088299,-0.00020448,-0.00026039,0.00063949,-0.0004195
 0,-0.00024593,-0.00076888,0.00157452,0.00167999,0.00141803,-0.00089438
 ,0.00078876,-0.00071224,0.00013900,-0.00002197,-0.00012889,0.00151291,
 -0.02247311,-0.00442402,-0.05261970,-0.02959818,-0.00927856,-0.0021332
 9,0.00021733,-0.00136984,-0.00561188,-0.00011380,0.00006771,-0.0001044
 6,0.00016373,0.00052846,-0.00032800,0.00035879,-0.00005252,0.00007491,
 -0.00034765,-0.00014127,0.00009871,0.00016210,-0.00036502,-0.00034071,
 -0.00001498,0.00003214,-0.00002791,-0.00015321,0.00013030,-0.00015079,
 0.00016340,0.00004249,-0.00014479,-0.00000063,0.00002647,-0.00001415,0
 .02583928,0.00828920,0.05418957,-0.00008913,-0.00027490,0.00012337,0.0
 0010461,0.00080298,-0.00030822,-0.00131297,0.00166104,-0.00075360,-0.0
 0054273,0.00044150,-0.00097055,0.00320922,0.01176580,-0.01374352,0.001
 17195,0.00092273,-0.00042863,-0.00139676,0.00066544,-0.00024119,-0.062
 19135,-0.03735571,0.04231893,-0.00007645,0.00199893,-0.00349658,0.0006
 5327,0.00059862,-0.00122765,-0.00034864,-0.00014132,-0.00066819,0.0000
 4501,0.00033156,-0.00016629,0.00027998,0.00029054,-0.00025605,-0.00035
 196,-0.00012673,-0.00014721,0.00019693,-0.00017811,-0.00012196,0.00006
 616,-0.00003560,0.00015236,0.00009189,0.00019776,-0.00023587,0.0000953
 5,-0.00003457,0.00017982,0.00051725,0.00044095,0.00001137,-0.00618708,
 -0.02004781,0.02455210,0.06594327,0.00031482,0.00023786,-0.00015760,-0
 .00049195,-0.00072312,0.00031757,0.00100457,-0.00156454,0.00019314,-0.
 00047941,-0.00119656,-0.00308910,-0.00641072,-0.01453784,0.01562984,-0
 .00148531,0.00118284,0.00118037,0.00318239,-0.00191000,0.00057531,-0.0
 3603783,-0.15440599,0.12409772,0.00302316,0.01073096,-0.01150311,0.000
 53206,0.00129043,-0.00023990,0.00026225,0.00011722,0.00069536,0.000096
 03,-0.00007338,-0.00015730,-0.00032503,0.00094723,-0.00040965,0.000812
 86,0.00039751,-0.00024926,-0.00027379,0.00051253,-0.00010178,0.0000184
 7,-0.00039024,-0.00066905,0.00011768,0.00036385,-0.00007095,-0.0001873
 4,-0.00000072,-0.00016539,-0.00038910,-0.00123465,-0.00039588,-0.00232
 018,-0.00584802,0.00725901,0.03828910,0.16582606,-0.00024822,-0.000260
 34,0.00002085,0.00001785,0.00099047,-0.00009765,0.00048846,-0.00044781
 ,-0.00041247,-0.00116503,-0.00352717,-0.00541393,-0.00057361,-0.002732
 32,0.00183529,0.00117200,-0.00087592,0.00063514,0.00018616,-0.00062056
 ,0.00000245,0.04032414,0.12346936,-0.19015257,0.00480276,0.01876870,-0
 .02015707,0.00194918,0.00144224,0.00152058,-0.00015656,0.00001886,0.00
 008558,0.00014439,-0.00018101,0.00023023,-0.00066055,0.00167399,-0.000
 85677,-0.00044627,-0.00010764,0.00017171,0.00001727,-0.00019664,0.0000
 5102,-0.00025467,0.00001827,0.00030906,0.00005098,-0.00001910,-0.00001
 329,-0.00000427,0.00005338,-0.00001994,-0.00008611,-0.00025559,-0.0001
 5022,-0.00024475,-0.00241658,0.00357801,-0.04479840,-0.13336956,0.2082
 2260,-0.00198664,0.00240317,0.00000511,-0.00352663,-0.00543561,0.00008
 414,0.00083967,0.00035431,-0.00049294,-0.00080190,-0.00010918,-0.00005
 537,0.00065840,-0.00064878,-0.00203136,0.00016956,-0.00044294,0.000171
 30,0.00013967,-0.00011923,0.00016187,0.00545041,-0.00533086,-0.0018190
 3,-0.19440593,0.12076132,0.05767063,-0.01743623,0.01796075,0.00642294,
 0.00009560,-0.00005497,0.00018072,0.00037099,0.00030617,-0.00037050,-0
 .00010741,0.00022486,-0.00021192,0.00002861,0.00007367,-0.00005933,0.0
 0013355,-0.00000318,-0.00013749,0.00000205,0.00003699,0.00006034,-0.00
 002495,-0.00001029,-0.00001333,0.00004794,0.00006650,0.00002942,-0.000
 02017,-0.00008909,0.00000479,0.00079658,0.00017217,0.00061805,-0.00001
 475,0.00023953,0.00024925,0.20846496,-0.00120538,0.00200949,0.00001660
 ,-0.00295145,-0.00408245,0.00005316,0.00100764,-0.00440741,0.00239112,
 0.01586842,-0.01100144,-0.00966541,0.00033728,-0.00051927,-0.00108128,
 0.00012901,-0.00061299,0.00005363,0.00030533,-0.00010220,-0.00012711,0
 .00686241,-0.00602211,-0.00122663,0.12033748,-0.14911203,-0.04711374,-
 0.01244321,0.01234685,0.00446683,0.00124063,0.00006082,-0.00094487,-0.
 00053130,0.00045948,-0.00047287,-0.00011914,0.00070437,0.00034691,0.00
 001847,0.00007527,-0.00003351,0.00010073,0.00003966,-0.00017433,0.0000
 1241,0.00002574,-0.00005985,0.00000022,0.00000743,0.00004150,-0.000023
 23,-0.00003194,-0.00007017,-0.00009816,-0.00011866,-0.00000746,-0.0002
 1025,0.00016089,0.00019818,-0.00005211,-0.00003293,-0.00034333,-0.1301
 3192,0.15956342,-0.00010276,-0.00018051,0.00001774,-0.00112965,0.00122
 604,0.00035435,-0.00107149,0.00373675,-0.00285981,-0.01579881,0.010163
 69,0.00782443,-0.00183888,-0.00113240,-0.00498742,0.00040633,-0.000874
 87,0.00041365,0.00107976,-0.00046243,0.00003272,0.02130785,-0.01745090
 ,-0.00514012,0.05841845,-0.04834246,-0.07270548,-0.00041604,0.00031907
 ,-0.00021643,-0.00087155,0.00027502,0.00115660,0.00057554,-0.00078741,
 0.00041851,0.00010294,-0.00090251,0.00033344,-0.00001907,0.00006112,-0
 .00000951,0.00039087,-0.00008044,-0.00028496,-0.00004936,-0.00000025,0
 .00009479,-0.00013142,-0.00003982,0.00005964,0.00002153,0.00008257,0.0
 0001804,-0.00018237,-0.00043791,-0.00000131,-0.00048527,0.00050672,0.0
 0153975,0.00010481,0.00049991,-0.00029424,-0.06036244,0.05342952,0.073
 82489,-0.00068656,-0.00077468,0.00302167,0.00566518,0.00867885,-0.0195
 9878,-0.00075128,0.00202620,0.00214494,-0.00689489,-0.00274834,-0.0003
 2202,0.00053425,0.00056178,-0.00033465,0.00008850,0.00010715,-0.000129
 87,-0.00000287,-0.00008934,0.00038863,0.00182463,0.00089146,0.00204147
 ,-0.00151442,-0.01731102,0.02252388,-0.05888497,-0.03000094,0.03709861
 ,0.00034393,0.00030011,0.00003448,0.00062998,-0.00182755,0.00102601,-0
 .00009341,0.00023805,-0.00001271,0.00000556,-0.00000727,0.00004659,-0.
 00001011,-0.00004573,-0.00001403,0.00001254,-0.00003826,-0.00000960,0.
 00006954,0.00004517,-0.00001302,0.00008058,0.00012380,-0.00003462,0.00
 000353,-0.00000144,-0.00001348,0.00011119,0.00047180,0.00011606,0.0001
 3521,0.00018155,-0.00109940,-0.00024598,0.00034236,0.00014984,0.058403
 69,-0.00041736,0.00224771,-0.00239125,-0.00634030,-0.01523982,0.019566
 68,0.00063961,-0.00268128,-0.00147294,-0.00168131,-0.00126311,-0.00054
 572,-0.00020949,-0.00085306,0.00060642,-0.00051148,-0.00046016,0.00005
 334,-0.00017428,0.00009692,-0.00043477,0.00032820,0.00009058,0.0012574
 7,-0.00017355,-0.00596890,0.00581285,-0.03161430,-0.14013135,0.1275364
 7,-0.00036247,-0.00062679,-0.00026310,0.00036865,-0.00045110,0.0004989
 3,0.00017438,0.00012757,0.00016321,0.00039420,0.00006914,-0.00022244,0
 .00007087,0.00021777,0.00002190,0.00007920,0.00011413,-0.00006149,0.00
 010941,0.00007292,-0.00001841,-0.00008237,-0.00011751,-0.00008060,0.00
 000640,0.00004916,0.00002901,0.00019391,0.00029700,-0.00025706,-0.0002
 3295,0.00011872,-0.00093592,-0.00022014,-0.00000396,-0.00005152,0.0362
 8817,0.15253775,-0.00096990,0.00014676,0.00064383,0.00036381,-0.002692
 81,0.00118330,-0.00006685,-0.00071976,-0.00087102,0.00024637,-0.000747
 40,0.00045788,0.00014382,-0.00015001,0.00002703,0.00010664,-0.00000997
 ,-0.00001857,-0.00001751,-0.00005594,0.00005686,-0.00065851,-0.0008321
 2,0.00115975,-0.00053360,-0.00203243,0.00101011,0.04017930,0.12512534,
 -0.20584735,-0.00001573,-0.00003105,-0.00003129,-0.00008419,-0.0000058
 1,0.00042283,-0.00001192,-0.00026732,0.00035087,-0.00004129,-0.0001179
 7,-0.00004848,-0.00005259,-0.00003484,-0.00000984,-0.00000031,0.000014
 97,0.00001510,-0.00002761,-0.00001313,-0.00000166,-0.00000029,0.000017
 73,0.00001901,-0.00001106,0.00001542,-0.00000324,0.00004924,-0.0001105
 8,0.00013142,0.00002902,0.00021634,0.00041222,0.00034239,0.00025482,-0
 .00009943,-0.04395423,-0.13503397,0.22226541,-0.00077732,-0.00072990,-
 0.00340275,0.00423879,0.00913139,0.02131710,-0.00109881,0.00171973,-0.
 00188908,0.00104760,0.00183077,-0.00090608,-0.00115585,0.00024955,-0.0
 0027719,-0.00004239,-0.00024862,0.00016602,0.00004671,-0.00002005,-0.0
 0008189,-0.00615757,-0.00292913,0.00119309,-0.00331810,-0.01684106,-0.
 02749208,-0.05024517,-0.01970797,-0.02769212,0.00053051,0.00039909,-0.
 00017816,0.00013140,0.00020254,0.00008873,0.00035676,-0.00021119,0.000
 49979,0.00006142,0.00006664,-0.00011477,0.00012525,0.00000899,-0.00007
 146,-0.00000089,0.00003996,0.00007734,-0.00002396,0.00001736,-0.000039
 85,0.00002223,0.00001593,0.00010193,0.00005863,-0.00011070,0.00003381,
 -0.00022086,-0.00121526,-0.00182046,0.00000170,0.00032618,0.00033542,0
 .00137258,0.00120376,-0.00009883,0.00117619,0.00336698,0.00498499,0.05
 387116,0.00015447,0.00216084,0.00261706,-0.00534981,-0.01566094,-0.022
 62143,0.00313869,-0.00248215,0.00362449,-0.00049486,0.00027313,-0.0013
 1426,0.00044181,0.00136306,0.00034685,-0.00005223,0.00000286,-0.000015
 32,0.00012924,-0.00003375,0.00027675,-0.00166379,-0.00004121,0.0008991
 4,-0.00070743,-0.00538736,-0.00764470,-0.02091812,-0.11536867,-0.11918
 628,-0.00076628,-0.00081991,0.00014677,-0.00000438,0.00022710,0.000322
 99,-0.00012503,-0.00040190,0.00074348,0.00006554,-0.00000904,0.0000201
 1,0.00002185,0.00003316,0.00002194,-0.00000492,-0.00000306,-0.00001733
 ,-0.00000576,-0.00001322,-0.00000524,-0.00000188,0.00011488,-0.0000016
 1,-0.00000661,0.00002054,0.00002686,0.00005677,-0.00009122,-0.00061101
 ,0.00007284,0.00019278,-0.00014576,-0.00000325,0.00059394,0.00044302,0
 .00258812,0.01175768,0.01706373,0.02343499,0.12357245,0.00029023,-0.00
 009101,0.00108356,0.00003009,0.00087594,0.00004706,-0.00009349,-0.0000
 8043,-0.00089336,0.00063317,0.00024964,0.00031444,-0.00000899,0.000180
 14,-0.00002550,0.00015442,0.00011778,0.00001616,0.00004890,-0.00005221
 ,0.00002100,-0.00111958,0.00035794,0.00048939,-0.00011148,0.00119820,-
 0.00032120,-0.03171970,-0.11332106,-0.23140837,0.00000494,0.00003194,-
 0.00001629,0.00001775,-0.00011975,0.00025587,0.00018024,0.00001758,0.0
 0033333,-0.00013015,-0.00002650,0.00002206,-0.00002144,-0.00009855,-0.
 00000936,-0.00000695,-0.00000725,-0.00000559,-0.00001546,-0.00000401,-
 0.00000882,-0.00001181,0.00001820,-0.00000107,0.00001760,-0.00004977,-
 0.00000215,0.00000601,-0.00041176,-0.00000337,0.00009213,-0.00008602,0
 .00049342,-0.00044724,0.00006828,0.00051016,-0.00305575,-0.01377708,-0
 .02122473,0.03526653,0.12500976,0.25033336\\0.00005786,-0.00001655,-0.
 00001215,-0.00000436,0.00003867,-0.00000020,-0.00001909,-0.00006484,-0
 .00004766,-0.00001782,-0.00000305,0.00002777,0.00001607,0.00001336,0.0
 0003724,0.00000125,-0.00002621,-0.00004504,-0.00001073,-0.00001142,-0.
 00000064,-0.00003679,0.00000145,0.00001940,0.00004655,-0.00001444,-0.0
 0002257,-0.00002201,0.00000176,0.00002611,-0.00000459,0.00001241,0.000
 01129,0.00000135,0.00000706,0.00000374,-0.00000746,0.00000633,0.000000
 34,-0.00000394,0.00000059,-0.00000472,-0.00000791,0.00000968,0.0000094
 6,0.00000986,0.00000247,0.00001360,0.00000894,-0.00000209,-0.00001197,
 0.00000519,0.00000759,0.00000268,0.00000377,0.00000829,0.00000211,-0.0
 0000608,0.00001774,-0.00000639,0.00000806,0.00000131,0.00000099,-0.000
 00939,0.00000108,0.00000429,-0.00000239,0.00000009,0.00000093,-0.00000
 636,0.00000872,-0.00000860\\\@


 FIREWORKS ENDED
 AND SPECTATORS GONE AWAY....
 AH, HOW VAST AND DARK
                     SHIKI
 Job cpu time:       0 days  0 hours  2 minutes  3.6 seconds.
 Elapsed time:       0 days  0 hours  2 minutes  3.8 seconds.
 File lengths (MBytes):  RWF=     95 Int=      0 D2E=      0 Chk=      5 Scr=      1
 Normal termination of Gaussian 16 at Wed Feb 21 19:22:13 2024.
