 Entering Gaussian System, Link 0=g16
 Input=/Volumes/SSD-PMU3/b3lyp_6-31gd_freq/JPFUEZPXKCRLTQ-OPRDCNLKSA-N_calculating/gaussianinput0.gjf
 Output=/Volumes/SSD-PMU3/b3lyp_6-31gd_freq/JPFUEZPXKCRLTQ-OPRDCNLKSA-N_calculating/gaussianinput0.log
 Initial command:
 /Applications/g16/l1.exe "/Users/macmini_m1_2022/PycharmProjects/sphere_model/sphere_model_lib/Gau-81708.inp" -scrdir="/Users/macmini_m1_2022/PycharmProjects/sphere_model/sphere_model_lib/"
 Entering Link 1 = /Applications/g16/l1.exe PID=     81709.
  
 Copyright (c) 1988,1990,1992,1993,1995,1998,2003,2009,2016,
            Gaussian, Inc.  All Rights Reserved.
  
 This is part of the Gaussian(R) 16 program.  It is based on
 the Gaussian(R) 09 system (copyright 2009, Gaussian, Inc.),
 the Gaussian(R) 03 system (copyright 2003, Gaussian, Inc.),
 the Gaussian(R) 98 system (copyright 1998, Gaussian, Inc.),
 the Gaussian(R) 94 system (copyright 1995, Gaussian, Inc.),
 the Gaussian 92(TM) system (copyright 1992, Gaussian, Inc.),
 the Gaussian 90(TM) system (copyright 1990, Gaussian, Inc.),
 the Gaussian 88(TM) system (copyright 1988, Gaussian, Inc.),
 the Gaussian 86(TM) system (copyright 1986, Carnegie Mellon
 University), and the Gaussian 82(TM) system (copyright 1983,
 Carnegie Mellon University). Gaussian is a federally registered
 trademark of Gaussian, Inc.
  
 This software contains proprietary and confidential information,
 including trade secrets, belonging to Gaussian, Inc.
  
 This software is provided under written license and may be
 used, copied, transmitted, or stored only in accord with that
 written license.
  
 The following legend is applicable only to US Government
 contracts under FAR:
  
                    RESTRICTED RIGHTS LEGEND
  
 Use, reproduction and disclosure by the US Government is
 subject to restrictions as set forth in subparagraphs (a)
 and (c) of the Commercial Computer Software - Restricted
 Rights clause in FAR 52.227-19.
  
 Gaussian, Inc.
 340 Quinnipiac St., Bldg. 40, Wallingford CT 06492
  
  
 ---------------------------------------------------------------
 Warning -- This program may not be used in any manner that
 competes with the business of Gaussian, Inc. or will provide
 assistance to any competitor of Gaussian, Inc.  The licensee
 of this program is prohibited from giving any competitor of
 Gaussian, Inc. access to this program.  By using this program,
 the user acknowledges that Gaussian, Inc. is engaged in the
 business of creating and licensing software in the field of
 computational chemistry and represents and warrants to the
 licensee that it is not a competitor of Gaussian, Inc. and that
 it will not use this program in any manner prohibited above.
 ---------------------------------------------------------------
  

 Cite this work as:
 Gaussian 16, Revision A.03,
 M. J. Frisch, G. W. Trucks, H. B. Schlegel, G. E. Scuseria, 
 M. A. Robb, J. R. Cheeseman, G. Scalmani, V. Barone, 
 G. A. Petersson, H. Nakatsuji, X. Li, M. Caricato, A. V. Marenich, 
 J. Bloino, B. G. Janesko, R. Gomperts, B. Mennucci, H. P. Hratchian, 
 J. V. Ortiz, A. F. Izmaylov, J. L. Sonnenberg, D. Williams-Young, 
 F. Ding, F. Lipparini, F. Egidi, J. Goings, B. Peng, A. Petrone, 
 T. Henderson, D. Ranasinghe, V. G. Zakrzewski, J. Gao, N. Rega, 
 G. Zheng, W. Liang, M. Hada, M. Ehara, K. Toyota, R. Fukuda, 
 J. Hasegawa, M. Ishida, T. Nakajima, Y. Honda, O. Kitao, H. Nakai, 
 T. Vreven, K. Throssell, J. A. Montgomery, Jr., J. E. Peralta, 
 F. Ogliaro, M. J. Bearpark, J. J. Heyd, E. N. Brothers, K. N. Kudin, 
 V. N. Staroverov, T. A. Keith, R. Kobayashi, J. Normand, 
 K. Raghavachari, A. P. Rendell, J. C. Burant, S. S. Iyengar, 
 J. Tomasi, M. Cossi, J. M. Millam, M. Klene, C. Adamo, R. Cammi, 
 J. W. Ochterski, R. L. Martin, K. Morokuma, O. Farkas, 
 J. B. Foresman, and D. J. Fox, Gaussian, Inc., Wallingford CT, 2016.
 
 ******************************************
 Gaussian 16:  EM64M-G16RevA.03 25-Dec-2016
                24-Feb-2024 
 ******************************************
 %nprocshared=10
 Will use up to   10 processors via shared memory.
 %mem=12GB
 %chk= 0.chk
 ---------------------
 # freq b3lyp/6-31g(d)
 ---------------------
 1/10=4,30=1,38=1/1,3;
 2/12=2,17=6,18=5,40=1/2;
 3/5=1,6=6,7=1,11=2,25=1,30=1,71=2,74=-5,140=1/1,2,3;
 4//1;
 5/5=2,38=5,98=1/2;
 8/6=4,10=90,11=11/1;
 11/6=1,8=1,9=11,15=111,16=1/1,2,10;
 10/6=1/2;
 6/7=2,8=2,9=2,10=2,28=1/1;
 7/8=1,10=1,25=1/1,2,3,16;
 1/10=4,30=1/3;
 99//99;
 ---------
 good luck
 ---------
 Symbolic Z-matrix:
 Charge =  0 Multiplicity = 1
 O                     1.21688   0.        0. 
 C                     0.        0.        0. 
 C                    -0.81272  -1.2871    0.00614 
 C                    -1.85173  -1.28278   1.143 
 C                    -2.73179  -0.01417   1.09904 
 C                    -3.77975  -0.05564   2.20104 
 O                    -4.97726  -0.11788   2.02627 
 O                    -3.20994  -0.02783   3.42994 
 C                    -4.12573  -0.08016   4.5365 
 C                    -1.86539   1.26798   1.16306 
 C                    -2.70737   2.55734   1.13343 
 C                    -1.83332   3.81978   1.16761 
 C                    -0.80172   3.82264   0.03077 
 C                     0.04987   2.54643   0.04552 
 C                    -0.82461   1.28616   0.00614 
 H                    -0.12659  -2.13466   0.09098 
 H                    -1.33274  -1.36976  -0.95998 
 H                    -2.4795   -2.1792    1.07343 
 H                    -1.33874  -1.32736   2.11086 
 H                    -3.30423  -0.00791   0.16292 
 H                    -4.71107  -1.00286   4.50645 
 H                    -3.50474  -0.04814   5.43213 
 H                    -4.80864   0.77301   4.51053 
 H                    -1.31011   1.24543   2.11243 
 H                    -3.32239   2.56073   0.22092 
 H                    -3.40711   2.56548   1.97868 
 H                    -1.30875   3.86918   2.13301 
 H                    -2.46793   4.71301   1.11149 
 H                    -1.32565   3.90194  -0.93352 
 H                    -0.15522   4.70583   0.1063 
 H                     0.74965   2.53188  -0.79692 
 H                     0.66879   2.51931   0.95212 
 H                    -1.40219   1.28294  -0.93569 
 

 GradGradGradGradGradGradGradGradGradGradGradGradGradGradGradGradGradGrad
 Berny optimization.
 Initialization pass.
 Trust Radius=3.00D-01 FncErr=1.00D-07 GrdErr=1.00D-07 EigMax=2.50D+02 EigMin=1.00D-04
 Number of steps in this run=      2 maximum allowed number of steps=      2.
 GradGradGradGradGradGradGradGradGradGradGradGradGradGradGradGradGradGrad

                          Input orientation:                          
 ---------------------------------------------------------------------
 Center     Atomic      Atomic             Coordinates (Angstroms)
 Number     Number       Type             X           Y           Z
 ---------------------------------------------------------------------
      1          8           0        1.216881    0.000000    0.000000
      2          6           0        0.000000    0.000000    0.000000
      3          6           0       -0.812723   -1.287096    0.006136
      4          6           0       -1.851731   -1.282781    1.143003
      5          6           0       -2.731785   -0.014172    1.099038
      6          6           0       -3.779748   -0.055639    2.201042
      7          8           0       -4.977257   -0.117875    2.026272
      8          8           0       -3.209941   -0.027825    3.429940
      9          6           0       -4.125727   -0.080162    4.536498
     10          6           0       -1.865386    1.267979    1.163057
     11          6           0       -2.707366    2.557336    1.133430
     12          6           0       -1.833316    3.819783    1.167606
     13          6           0       -0.801724    3.822642    0.030767
     14          6           0        0.049868    2.546428    0.045524
     15          6           0       -0.824611    1.286163    0.006136
     16          1           0       -0.126592   -2.134661    0.090979
     17          1           0       -1.332740   -1.369759   -0.959980
     18          1           0       -2.479495   -2.179198    1.073425
     19          1           0       -1.338741   -1.327364    2.110861
     20          1           0       -3.304230   -0.007910    0.162921
     21          1           0       -4.711070   -1.002863    4.506447
     22          1           0       -3.504736   -0.048138    5.432131
     23          1           0       -4.808637    0.773008    4.510532
     24          1           0       -1.310112    1.245433    2.112430
     25          1           0       -3.322389    2.560732    0.220919
     26          1           0       -3.407113    2.565484    1.978680
     27          1           0       -1.308752    3.869183    2.133013
     28          1           0       -2.467929    4.713010    1.111491
     29          1           0       -1.325654    3.901939   -0.933520
     30          1           0       -0.155224    4.705827    0.106298
     31          1           0        0.749646    2.531878   -0.796917
     32          1           0        0.668793    2.519310    0.952116
     33          1           0       -1.402190    1.282941   -0.935690
 ---------------------------------------------------------------------
                    Distance matrix (angstroms):
                    1          2          3          4          5
     1  O    0.000000
     2  C    1.216881   0.000000
     3  C    2.403320   1.522226   0.000000
     4  C    3.516868   2.526042   1.540137   0.000000
     5  C    4.098786   2.944611   2.549033   1.544602   0.000000
     6  C    5.460218   4.374263   3.890673   2.518447   1.521302
     7  O    6.518207   5.375199   4.774031   3.450519   2.431597
     8  O    5.600180   4.697764   4.365186   2.941042   2.379480
     9  C    7.009258   6.132525   5.740807   4.258305   3.709927
    10  C    3.529992   2.537743   2.995826   2.550875   1.548760
    11  C    4.819164   3.892873   4.431718   3.934298   2.571854
    12  C    5.025709   4.394894   5.335807   5.102657   3.938421
    13  C    4.322997   3.905931   5.109809   5.329627   4.425775
    14  C    2.801479   2.547323   3.929570   4.413998   3.924813
    15  C    2.412870   1.527821   2.573286   2.991139   2.553942
    16  H    2.523881   2.140346   1.093774   2.192843   3.507091
    17  H    3.049323   2.138691   1.100287   2.167822   2.834519
    18  H    4.423160   3.471173   2.170963   1.096582   2.179827
    19  H    3.570551   2.830169   2.169835   1.096310   2.165371
    20  H    4.524052   3.308254   2.805086   2.166936   1.097291
    21  H    7.513614   6.596058   5.960763   4.423452   4.062698
    22  H    7.197502   6.464792   6.182505   4.759558   4.401625
    23  H    7.566327   6.638180   6.364035   4.930498   4.070781
    24  H    3.521244   2.780262   3.331302   2.761341   2.152841
    25  H    5.216428   4.200526   4.598949   4.217306   2.783889
    26  H    5.646079   4.701628   5.046203   4.233995   2.807929
    27  H    5.089120   4.607945   5.599720   5.274247   4.263165
    28  H    6.084875   5.434938   6.321613   6.027454   4.734556
    29  H    4.749850   4.225393   5.298314   5.609815   4.630812
    30  H    4.902936   4.709586   6.029715   6.310017   5.468326
    31  H    2.695142   2.758161   4.203624   5.008201   4.711409
    32  H    2.748426   2.775019   4.192672   4.565674   4.243118
    33  H    3.062840   2.118393   2.799928   3.332564   2.755076
                    6          7          8          9         10
     6  C    0.000000
     7  O    1.211794   0.000000
     8  O    1.354859   2.258716   0.000000
     9  C    2.361071   2.650992   1.437315   0.000000
    10  C    2.548364   3.514182   2.936953   4.278636   0.000000
    11  C    3.019509   3.620266   3.494223   4.533102   1.540211
    12  C    4.458193   5.111440   4.670903   5.640404   2.552010
    13  C    5.349746   6.078223   5.672740   6.825136   2.989943
    14  C    5.107149   6.024438   5.357929   6.671088   2.559592
    15  C    3.918020   4.826670   4.374791   5.769609   1.556281
    16  H    4.703217   5.598369   5.009437   6.322712   3.968717
    17  H    4.207947   4.875184   4.959442   6.298818   3.427632
    18  H    2.733438   3.375764   3.273396   4.371374   3.502598
    19  H    2.753894   3.835208   2.632520   3.899554   2.812738
    20  H    2.093402   2.506629   3.268440   4.450646   2.167588
    21  H    2.660730   2.646758   2.088769   1.093118   4.942964
    22  H    3.242780   3.711207   2.023879   1.090327   4.758637
    23  H    2.660641   2.644552   2.089220   1.093133   4.484787
    24  H    2.792802   3.913309   2.639388   3.944743   1.100067
    25  H    3.312923   3.629438   4.124450   5.122880   2.163722
    26  H    2.656800   3.109346   2.978302   3.749438   2.173863
    27  H    4.638392   5.419036   4.525838   5.413817   2.831416
    28  H    5.064386   5.520054   5.329287   6.119924   3.497707
    29  H    5.613420   6.184940   6.167120   7.322475   3.409500
    30  H    6.340086   7.085648   6.541051   7.635264   3.982486
    31  H    6.016512   6.912959   6.332198   7.683575   3.503902
    32  H    5.289584   6.323483   5.260426   6.526291   2.834147
    33  H    4.157363   4.849393   4.903549   6.262631   2.149305
                   11         12         13         14         15
    11  C    0.000000
    12  C    1.535872   0.000000
    13  C    2.539357   1.535120   0.000000
    14  C    2.964118   2.535130   1.534324   0.000000
    15  C    2.536028   2.964073   2.536702   1.534449   0.000000
    16  H    5.455450   6.287085   5.995739   4.684634   3.492344
    17  H    4.657686   5.631034   5.312682   4.273074   2.871497
    18  H    4.742392   6.034417   6.318555   5.457637   3.985784
    19  H    4.233131   5.256183   5.580120   4.604358   3.394808
    20  H    2.806888   4.221873   4.577459   4.217629   2.801378
    21  H    5.297838   6.533547   7.655076   7.427236   6.371578
    22  H    5.089511   5.995051   7.173838   6.955754   6.197165
    23  H    4.359356   5.413920   6.739727   6.832744   6.035344
    24  H    2.152173   2.791722   3.351684   2.795395   2.161908
    25  H    1.100428   2.167663   2.825301   3.376845   2.812393
    26  H    1.097342   2.169780   3.487530   3.960830   3.492407
    27  H    2.162459   1.099827   2.163026   2.820131   3.380827
    28  H    2.169042   1.097150   2.176456   3.488505   3.957977
    29  H    2.826547   2.163146   1.100291   2.165179   2.824231
    30  H    3.490622   2.174268   1.097125   2.169968   3.486002
    31  H    3.959523   3.491381   2.181257   1.095266   2.162171
    32  H    3.381238   2.828112   2.170248   1.098049   2.155408
    33  H    2.758410   3.323446   2.782926   2.160475   1.104828
                   16         17         18         19         20
    16  H    0.000000
    17  H    1.773241   0.000000
    18  H    2.550164   2.470825   0.000000
    19  H    2.490172   3.071139   1.761594   0.000000
    20  H    3.824347   2.646188   2.494734   3.065710   0.000000
    21  H    6.464887   6.436579   4.260203   4.149305   4.672831
    22  H    6.655324   6.879196   4.958917   4.166388   5.273177
    23  H    7.064597   6.826405   5.094519   4.712766   4.666347
    24  H    4.112423   4.034779   3.764981   2.572957   3.057443
    25  H    5.681260   4.560919   4.889189   4.756473   2.569361
    26  H    6.034616   5.331499   4.918533   4.410204   3.151178
    27  H    6.450856   6.083888   6.251102   5.196681   4.784877
    28  H    7.308481   6.525314   6.892323   6.225747   4.887358
    29  H    6.239222   5.271769   6.506874   6.050953   4.517064
    30  H    6.840565   6.279828   7.330835   6.466713   5.669106
    31  H    4.830397   4.425573   6.009972   5.264056   4.879111
    32  H    4.799337   4.773584   5.657067   4.491078   4.774367
    33  H    3.789618   2.653720   4.145303   4.012380   2.547744
                   21         22         23         24         25
    21  H    0.000000
    22  H    1.795448   0.000000
    23  H    1.778554   1.795490   0.000000
    24  H    4.727861   4.184509   4.267758   0.000000
    25  H    5.743988   5.830625   4.879105   3.058935   0.000000
    26  H    4.563224   4.332075   3.404044   2.481499   1.759808
    27  H    6.398890   5.572426   5.242909   2.623831   3.069671
    28  H    7.016310   6.512406   5.705787   3.790318   2.481032
    29  H    8.069161   7.802116   7.180465   4.041668   2.668055
    30  H    8.526792   7.885678   7.517885   4.163251   3.826945
    31  H    8.392823   7.972282   7.883980   3.789702   4.197415
    32  H    7.347237   6.639327   6.761223   2.623958   4.057819
    33  H    6.766864   6.836784   6.444009   3.049741   2.580244
                   26         27         28         29         30
    26  H    0.000000
    27  H    2.475191   0.000000
    28  H    2.499190   1.760467   0.000000
    29  H    3.820928   3.066755   2.478850   0.000000
    30  H    4.319915   2.477534   2.521719   1.759933   0.000000
    31  H    4.998371   3.822287   4.330375   2.490501   2.522031
    32  H    4.203448   2.669711   3.831024   3.073289   2.485009
    33  H    3.762736   4.014264   4.134262   2.620117   3.789038
                   31         32         33
    31  H    0.000000
    32  H    1.750946   0.000000
    33  H    2.491887   3.062906   0.000000
 Stoichiometry    C12H18O3
 Framework group  C1[X(C12H18O3)]
 Deg. of freedom    93
 Full point group                 C1      NOp   1
 Largest Abelian subgroup         C1      NOp   1
 Largest concise Abelian subgroup C1      NOp   1
                         Standard orientation:                         
 ---------------------------------------------------------------------
 Center     Atomic      Atomic             Coordinates (Angstroms)
 Number     Number       Type             X           Y           Z
 ---------------------------------------------------------------------
      1          8           0       -2.632506    2.093432    0.875660
      2          6           0       -1.760889    1.678704    0.134659
      3          6           0       -0.674099    2.583814   -0.428224
      4          6           0        0.726812    2.002300   -0.161180
      5          6           0        0.837801    0.544702   -0.660065
      6          6           0        2.242761    0.009079   -0.428649
      7          8           0        3.023521   -0.307481   -1.299654
      8          8           0        2.535471   -0.063823    0.892203
      9          6           0        3.852626   -0.545300    1.207094
     10          6           0       -0.244882   -0.351356   -0.009270
     11          6           0       -0.160939   -1.817871   -0.472452
     12          6           0       -1.258713   -2.687342    0.158275
     13          6           0       -2.657089   -2.114956   -0.112856
     14          6           0       -2.761646   -0.654326    0.345157
     15          6           0       -1.667432    0.214016   -0.289831
     16          1           0       -0.786439    3.580196    0.008745
     17          1           0       -0.828937    2.672463   -1.513949
     18          1           0        1.485170    2.626154   -0.649230
     19          1           0        0.937232    2.027899    0.914442
     20          1           0        0.703268    0.527833   -1.748947
     21          1           0        4.613723    0.109406    0.774663
     22          1           0        3.914036   -0.539128    2.295674
     23          1           0        3.994573   -1.557310    0.818987
     24          1           0       -0.084033   -0.327974    1.078722
     25          1           0       -0.250188   -1.851256   -1.568746
     26          1           0        0.826597   -2.229970   -0.229330
     27          1           0       -1.094593   -2.743721    1.244325
     28          1           0       -1.184415   -3.713792   -0.222010
     29          1           0       -2.871121   -2.176900   -1.190351
     30          1           0       -3.420268   -2.721429    0.390563
     31          1           0       -3.745084   -0.236883    0.103914
     32          1           0       -2.669383   -0.596639    1.437802
     33          1           0       -1.797902    0.205239   -1.386893
 ---------------------------------------------------------------------
 Rotational constants (GHZ):           0.8239700           0.4589018           0.3377097
 Standard basis: 6-31G(d) (6D, 7F)
 There are   261 symmetry adapted cartesian basis functions of A   symmetry.
 There are   261 symmetry adapted basis functions of A   symmetry.
   261 basis functions,   492 primitive gaussians,   261 cartesian basis functions
    57 alpha electrons       57 beta electrons
       nuclear repulsion energy      1069.5463493789 Hartrees.
 NAtoms=   33 NActive=   33 NUniq=   33 SFac= 1.00D+00 NAtFMM=   60 NAOKFM=F Big=F
 Integral buffers will be    131072 words long.
 Raffenetti 2 integral format.
 Two-electron integral symmetry is turned on.
 One-electron integrals computed using PRISM.
 NBasis=   261 RedAO= T EigKep=  2.11D-03  NBF=   261
 NBsUse=   261 1.00D-06 EigRej= -1.00D+00 NBFU=   261
 ExpMin= 1.61D-01 ExpMax= 5.48D+03 ExpMxC= 8.25D+02 IAcc=3 IRadAn=         5 AccDes= 0.00D+00
 Harris functional with IExCor=  402 and IRadAn=       5 diagonalized for initial guess.
 HarFok:  IExCor=  402 AccDes= 0.00D+00 IRadAn=         5 IDoV= 1 UseB2=F ITyADJ=14
 ICtDFT=  3500011 ScaDFX=  1.000000  1.000000  1.000000  1.000000
 FoFCou: FMM=F IPFlag=           0 FMFlag=      100000 FMFlg1=           0
         NFxFlg=           0 DoJE=T BraDBF=F KetDBF=T FulRan=T
         wScrn=  0.000000 ICntrl=       500 IOpCl=  0 I1Cent=   200000004 NGrid=           0
         NMat0=    1 NMatS0=      1 NMatT0=    0 NMatD0=    1 NMtDS0=    0 NMtDT0=    0
 Petite list used in FoFCou.
 Requested convergence on RMS density matrix=1.00D-08 within 128 cycles.
 Requested convergence on MAX density matrix=1.00D-06.
 Requested convergence on             energy=1.00D-06.
 No special actions if energy rises.
 Integral accuracy reduced to 1.0D-05 until final iterations.
 Initial convergence to 1.0D-05 achieved.  Increase integral accuracy.
 SCF Done:  E(RB3LYP) =  -693.815897539     A.U. after   14 cycles
            NFock= 14  Conv=0.61D-08     -V/T= 2.0094
 DoSCS=F DFT=T ScalE2(SS,OS)=  1.000000  1.000000
 Range of M.O.s used for correlation:     1   261
 NBasis=   261 NAE=    57 NBE=    57 NFC=     0 NFV=     0
 NROrb=    261 NOA=    57 NOB=    57 NVA=   204 NVB=   204
 Symmetrizing basis deriv contribution to polar:
 IMax=3 JMax=2 DiffMx= 0.00D+00
 G2DrvN: will do    34 centers at a time, making    1 passes.
 Calling FoFCou, ICntrl=  3107 FMM=F I1Cent=   0 AccDes= 0.00D+00.
 End of G2Drv F.D. properties file   721 does not exist.
 End of G2Drv F.D. properties file   722 does not exist.
 End of G2Drv F.D. properties file   788 does not exist.
          IDoAtm=111111111111111111111111111111111
          Differentiating once with respect to electric field.
                with respect to dipole field.
          Differentiating once with respect to nuclear coordinates.
 Keep R1 ints in memory in canonical form, NReq=595457178.
          There are   102 degrees of freedom in the 1st order CPHF.  IDoFFX=6 NUNeed=     3.
     99 vectors produced by pass  0 Test12= 1.16D-14 1.00D-09 XBig12= 8.77D+01 2.96D+00.
 AX will form    99 AO Fock derivatives at one time.
     99 vectors produced by pass  1 Test12= 1.16D-14 1.00D-09 XBig12= 1.24D+01 9.07D-01.
     99 vectors produced by pass  2 Test12= 1.16D-14 1.00D-09 XBig12= 9.77D-02 3.55D-02.
     99 vectors produced by pass  3 Test12= 1.16D-14 1.00D-09 XBig12= 3.31D-04 2.50D-03.
     99 vectors produced by pass  4 Test12= 1.16D-14 1.00D-09 XBig12= 4.81D-07 7.61D-05.
     54 vectors produced by pass  5 Test12= 1.16D-14 1.00D-09 XBig12= 3.87D-10 1.91D-06.
      7 vectors produced by pass  6 Test12= 1.16D-14 1.00D-09 XBig12= 2.67D-13 5.41D-08.
      1 vectors produced by pass  7 Test12= 1.16D-14 1.00D-09 XBig12= 1.85D-16 2.47D-09.
 InvSVY:  IOpt=1 It=  1 EMax= 7.11D-15
 Solved reduced A of dimension   557 with   102 vectors.
 Isotropic polarizability for W=    0.000000      126.31 Bohr**3.
 End of Minotr F.D. properties file   721 does not exist.
 End of Minotr F.D. properties file   722 does not exist.
 End of Minotr F.D. properties file   788 does not exist.

 **********************************************************************

            Population analysis using the SCF density.

 **********************************************************************

 Orbital symmetries:
       Occupied  (A) (A) (A) (A) (A) (A) (A) (A) (A) (A) (A) (A)
                 (A) (A) (A) (A) (A) (A) (A) (A) (A) (A) (A) (A)
                 (A) (A) (A) (A) (A) (A) (A) (A) (A) (A) (A) (A)
                 (A) (A) (A) (A) (A) (A) (A) (A) (A) (A) (A) (A)
                 (A) (A) (A) (A) (A) (A) (A) (A) (A)
       Virtual   (A) (A) (A) (A) (A) (A) (A) (A) (A) (A) (A) (A)
                 (A) (A) (A) (A) (A) (A) (A) (A) (A) (A) (A) (A)
                 (A) (A) (A) (A) (A) (A) (A) (A) (A) (A) (A) (A)
                 (A) (A) (A) (A) (A) (A) (A) (A) (A) (A) (A) (A)
                 (A) (A) (A) (A) (A) (A) (A) (A) (A) (A) (A) (A)
                 (A) (A) (A) (A) (A) (A) (A) (A) (A) (A) (A) (A)
                 (A) (A) (A) (A) (A) (A) (A) (A) (A) (A) (A) (A)
                 (A) (A) (A) (A) (A) (A) (A) (A) (A) (A) (A) (A)
                 (A) (A) (A) (A) (A) (A) (A) (A) (A) (A) (A) (A)
                 (A) (A) (A) (A) (A) (A) (A) (A) (A) (A) (A) (A)
                 (A) (A) (A) (A) (A) (A) (A) (A) (A) (A) (A) (A)
                 (A) (A) (A) (A) (A) (A) (A) (A) (A) (A) (A) (A)
                 (A) (A) (A) (A) (A) (A) (A) (A) (A) (A) (A) (A)
                 (A) (A) (A) (A) (A) (A) (A) (A) (A) (A) (A) (A)
                 (A) (A) (A) (A) (A) (A) (A) (A) (A) (A) (A) (A)
                 (A) (A) (A) (A) (A) (A) (A) (A) (A) (A) (A) (A)
                 (A) (A) (A) (A) (A) (A) (A) (A) (A) (A) (A) (A)
 The electronic state is 1-A.
 Alpha  occ. eigenvalues --  -19.19728 -19.13874 -19.13801 -10.31547 -10.27110
 Alpha  occ. eigenvalues --  -10.24490 -10.20902 -10.20470 -10.20309 -10.19816
 Alpha  occ. eigenvalues --  -10.19597 -10.18711 -10.18365 -10.18181 -10.17977
 Alpha  occ. eigenvalues --   -1.10472  -1.03663  -1.01607  -0.85842  -0.81217
 Alpha  occ. eigenvalues --   -0.76906  -0.74804  -0.73770  -0.70642  -0.63272
 Alpha  occ. eigenvalues --   -0.62355  -0.60634  -0.56885  -0.56056  -0.53431
 Alpha  occ. eigenvalues --   -0.50588  -0.48854  -0.47681  -0.47278  -0.46041
 Alpha  occ. eigenvalues --   -0.45205  -0.44666  -0.44485  -0.42387  -0.41861
 Alpha  occ. eigenvalues --   -0.41325  -0.39995  -0.39427  -0.37823  -0.37035
 Alpha  occ. eigenvalues --   -0.36547  -0.35964  -0.35619  -0.34994  -0.34339
 Alpha  occ. eigenvalues --   -0.33553  -0.32385  -0.31038  -0.30529  -0.30506
 Alpha  occ. eigenvalues --   -0.26845  -0.23877
 Alpha virt. eigenvalues --   -0.01614   0.00658   0.08176   0.08738   0.09784
 Alpha virt. eigenvalues --    0.10900   0.11679   0.13231   0.13405   0.14333
 Alpha virt. eigenvalues --    0.14926   0.15190   0.15352   0.15810   0.16883
 Alpha virt. eigenvalues --    0.17041   0.17594   0.17912   0.18525   0.18645
 Alpha virt. eigenvalues --    0.19247   0.19481   0.21327   0.21974   0.23111
 Alpha virt. eigenvalues --    0.24078   0.25235   0.26366   0.26910   0.28008
 Alpha virt. eigenvalues --    0.29411   0.30365   0.33812   0.34675   0.36397
 Alpha virt. eigenvalues --    0.38160   0.49709   0.50222   0.51312   0.52108
 Alpha virt. eigenvalues --    0.53194   0.53699   0.54077   0.54726   0.55811
 Alpha virt. eigenvalues --    0.56826   0.58534   0.60020   0.61697   0.62043
 Alpha virt. eigenvalues --    0.62913   0.64068   0.65175   0.66523   0.69101
 Alpha virt. eigenvalues --    0.69798   0.70702   0.71461   0.72009   0.73447
 Alpha virt. eigenvalues --    0.74633   0.75457   0.77285   0.78747   0.80175
 Alpha virt. eigenvalues --    0.81559   0.82711   0.83703   0.83994   0.84925
 Alpha virt. eigenvalues --    0.85657   0.86172   0.86722   0.86938   0.87838
 Alpha virt. eigenvalues --    0.89096   0.89406   0.90401   0.91218   0.92178
 Alpha virt. eigenvalues --    0.93185   0.93309   0.93565   0.94797   0.95495
 Alpha virt. eigenvalues --    0.96504   0.96946   0.99871   1.01025   1.02835
 Alpha virt. eigenvalues --    1.05732   1.07209   1.08346   1.10187   1.10640
 Alpha virt. eigenvalues --    1.12242   1.16707   1.19790   1.21060   1.23346
 Alpha virt. eigenvalues --    1.25219   1.27739   1.32427   1.33905   1.34762
 Alpha virt. eigenvalues --    1.35745   1.41763   1.43127   1.47003   1.48400
 Alpha virt. eigenvalues --    1.50331   1.51119   1.55935   1.56766   1.62141
 Alpha virt. eigenvalues --    1.65117   1.65442   1.66556   1.68503   1.71128
 Alpha virt. eigenvalues --    1.72085   1.73843   1.75391   1.76284   1.78105
 Alpha virt. eigenvalues --    1.80605   1.81092   1.83020   1.84111   1.85498
 Alpha virt. eigenvalues --    1.87775   1.88462   1.89574   1.90203   1.91775
 Alpha virt. eigenvalues --    1.92758   1.93675   1.95689   1.97890   1.99040
 Alpha virt. eigenvalues --    1.99737   2.00669   2.02202   2.02866   2.03062
 Alpha virt. eigenvalues --    2.06260   2.06696   2.08825   2.10559   2.10984
 Alpha virt. eigenvalues --    2.13352   2.13647   2.17417   2.20751   2.25022
 Alpha virt. eigenvalues --    2.26509   2.29500   2.30229   2.30778   2.32565
 Alpha virt. eigenvalues --    2.33286   2.36628   2.38926   2.40105   2.41255
 Alpha virt. eigenvalues --    2.43151   2.45705   2.47939   2.49879   2.53224
 Alpha virt. eigenvalues --    2.57208   2.58054   2.60620   2.61049   2.62684
 Alpha virt. eigenvalues --    2.64818   2.67020   2.71385   2.73882   2.76467
 Alpha virt. eigenvalues --    2.79522   2.80768   2.86601   2.87323   2.95406
 Alpha virt. eigenvalues --    2.98835   3.02651   3.04993   3.14822   4.01188
 Alpha virt. eigenvalues --    4.01475   4.12889   4.19402   4.22774   4.24784
 Alpha virt. eigenvalues --    4.25801   4.30218   4.35097   4.50450   4.55037
 Alpha virt. eigenvalues --    4.56833   4.61926   4.65584   4.72959
          Condensed to atoms (all electrons):
               1          2          3          4          5          6
     1  O    8.004005   0.587190  -0.075047   0.001045   0.000181   0.000001
     2  C    0.587190   4.516814   0.346754  -0.030096  -0.012229   0.000239
     3  C   -0.075047   0.346754   5.291867   0.328656  -0.037320   0.003157
     4  C    0.001045  -0.030096   0.328656   5.075273   0.342385  -0.028841
     5  C    0.000181  -0.012229  -0.037320   0.342385   5.172809   0.358131
     6  C    0.000001   0.000239   0.003157  -0.028841   0.358131   4.377348
     7  O    0.000000  -0.000002  -0.000055  -0.000226  -0.060876   0.549988
     8  O   -0.000000  -0.000015   0.000144   0.001421  -0.102844   0.226774
     9  C   -0.000000   0.000000   0.000004  -0.000123   0.007728  -0.018288
    10  C    0.000111  -0.019150  -0.010012  -0.030590   0.337971  -0.031172
    11  C   -0.000057   0.002389  -0.000072   0.004503  -0.041968   0.000289
    12  C   -0.000012  -0.000027  -0.000019  -0.000125   0.003963   0.000126
    13  C    0.000641   0.004431  -0.000072  -0.000017   0.000150   0.000003
    14  C    0.006675  -0.027531   0.006090   0.000104   0.003549  -0.000095
    15  C   -0.093791   0.284276  -0.137089  -0.004182  -0.033319   0.003424
    16  H    0.005344  -0.023173   0.343005  -0.024966   0.003670  -0.000079
    17  H    0.001308  -0.030563   0.351193  -0.035359  -0.003346  -0.000096
    18  H   -0.000061   0.003359  -0.029016   0.367101  -0.034112  -0.001231
    19  H    0.000454  -0.003005  -0.037879   0.372485  -0.036304  -0.006925
    20  H   -0.000008  -0.001891  -0.002032  -0.040823   0.361619  -0.040137
    21  H    0.000000  -0.000000  -0.000001  -0.000097  -0.000029  -0.005434
    22  H   -0.000000   0.000000  -0.000000  -0.000017  -0.000084   0.005343
    23  H   -0.000000   0.000000   0.000000   0.000021   0.000039  -0.005560
    24  H    0.000468  -0.003404   0.000355  -0.005501  -0.041839  -0.008326
    25  H   -0.000000  -0.000023  -0.000006   0.000049  -0.004327  -0.001096
    26  H    0.000000  -0.000066  -0.000000   0.000047  -0.008501   0.008258
    27  H   -0.000000  -0.000038   0.000000   0.000002   0.000056  -0.000024
    28  H    0.000000   0.000007  -0.000000   0.000001  -0.000124  -0.000003
    29  H   -0.000004  -0.000071  -0.000000   0.000001  -0.000022  -0.000000
    30  H    0.000002  -0.000076   0.000002  -0.000000   0.000007  -0.000000
    31  H    0.004878  -0.003187   0.000196  -0.000011  -0.000125   0.000001
    32  H    0.003991  -0.004532   0.000270  -0.000059   0.000070  -0.000002
    33  H    0.001289  -0.035247   0.002369  -0.001725  -0.004315  -0.000104
               7          8          9         10         11         12
     1  O    0.000000  -0.000000  -0.000000   0.000111  -0.000057  -0.000012
     2  C   -0.000002  -0.000015   0.000000  -0.019150   0.002389  -0.000027
     3  C   -0.000055   0.000144   0.000004  -0.010012  -0.000072  -0.000019
     4  C   -0.000226   0.001421  -0.000123  -0.030590   0.004503  -0.000125
     5  C   -0.060876  -0.102844   0.007728   0.337971  -0.041968   0.003963
     6  C    0.549988   0.226774  -0.018288  -0.031172   0.000289   0.000126
     7  O    8.057086  -0.085114   0.004901  -0.000291   0.000907   0.000014
     8  O   -0.085114   8.277678   0.209144   0.004194  -0.002099  -0.000025
     9  C    0.004901   0.209144   4.892327  -0.000172  -0.000081  -0.000000
    10  C   -0.000291   0.004194  -0.000172   5.010519   0.375143  -0.032425
    11  C    0.000907  -0.002099  -0.000081   0.375143   5.054287   0.373139
    12  C    0.000014  -0.000025  -0.000000  -0.032425   0.373139   5.000533
    13  C   -0.000000  -0.000001   0.000000  -0.013019  -0.045758   0.380522
    14  C    0.000000   0.000001  -0.000000  -0.035623  -0.011341  -0.042067
    15  C   -0.000056   0.000164   0.000004   0.344436  -0.038866  -0.013406
    16  H    0.000000   0.000000  -0.000000   0.000061   0.000011   0.000000
    17  H   -0.000001  -0.000003   0.000000  -0.001221  -0.000015   0.000001
    18  H    0.000840  -0.000009  -0.000063   0.004704  -0.000139   0.000001
    19  H    0.000041   0.006674  -0.000232  -0.006613   0.000035   0.000002
    20  H    0.003136   0.003802  -0.000221  -0.040670  -0.005093   0.000046
    21  H    0.005886  -0.031222   0.374235   0.000040  -0.000007  -0.000000
    22  H    0.000802  -0.032877   0.376587  -0.000023   0.000001  -0.000000
    23  H    0.005861  -0.031289   0.373834  -0.000132   0.000070   0.000001
    24  H    0.000014   0.006855  -0.000188   0.365776  -0.045076  -0.003598
    25  H    0.000046   0.000069  -0.000000  -0.040769   0.367746  -0.039067
    26  H   -0.000289   0.001410   0.000060  -0.032360   0.364465  -0.030882
    27  H    0.000000   0.000002   0.000001  -0.005544  -0.040302   0.371798
    28  H    0.000000   0.000000  -0.000000   0.004342  -0.032102   0.369134
    29  H    0.000000  -0.000000   0.000000  -0.000966  -0.004340  -0.041555
    30  H    0.000000   0.000000  -0.000000   0.000196   0.004762  -0.032870
    31  H   -0.000000   0.000000   0.000000   0.004364   0.000045   0.004622
    32  H   -0.000000  -0.000001   0.000000  -0.006282  -0.000808  -0.004671
    33  H   -0.000005  -0.000002   0.000000  -0.044306  -0.007763  -0.000760
              13         14         15         16         17         18
     1  O    0.000641   0.006675  -0.093791   0.005344   0.001308  -0.000061
     2  C    0.004431  -0.027531   0.284276  -0.023173  -0.030563   0.003359
     3  C   -0.000072   0.006090  -0.137089   0.343005   0.351193  -0.029016
     4  C   -0.000017   0.000104  -0.004182  -0.024966  -0.035359   0.367101
     5  C    0.000150   0.003549  -0.033319   0.003670  -0.003346  -0.034112
     6  C    0.000003  -0.000095   0.003424  -0.000079  -0.000096  -0.001231
     7  O   -0.000000   0.000000  -0.000056   0.000000  -0.000001   0.000840
     8  O   -0.000001   0.000001   0.000164   0.000000  -0.000003  -0.000009
     9  C    0.000000  -0.000000   0.000004  -0.000000   0.000000  -0.000063
    10  C   -0.013019  -0.035623   0.344436   0.000061  -0.001221   0.004704
    11  C   -0.045758  -0.011341  -0.038866   0.000011  -0.000015  -0.000139
    12  C    0.380522  -0.042067  -0.013406   0.000000   0.000001   0.000001
    13  C    5.023345   0.356084  -0.033822   0.000001  -0.000004   0.000000
    14  C    0.356084   5.015928   0.353636  -0.000146  -0.000109   0.000010
    15  C   -0.033822   0.353636   5.326757   0.006702   0.003682  -0.000278
    16  H    0.000001  -0.000146   0.006702   0.555480  -0.026496  -0.002434
    17  H   -0.000004  -0.000109   0.003682  -0.026496   0.579064  -0.006104
    18  H    0.000000   0.000010  -0.000278  -0.002434  -0.006104   0.581076
    19  H   -0.000001  -0.000036   0.000412  -0.003284   0.005350  -0.034274
    20  H   -0.000024   0.000060  -0.004762  -0.000009   0.004313  -0.003651
    21  H   -0.000000  -0.000000   0.000000  -0.000000   0.000000   0.000023
    22  H    0.000000  -0.000000  -0.000000   0.000000   0.000000  -0.000002
    23  H    0.000000  -0.000000  -0.000000  -0.000000  -0.000000  -0.000001
    24  H   -0.000581  -0.004087  -0.047713  -0.000033   0.000093  -0.000030
    25  H   -0.004401  -0.000510  -0.007517  -0.000000  -0.000005   0.000002
    26  H    0.004587  -0.000048   0.005036  -0.000000   0.000000   0.000001
    27  H   -0.040459  -0.003999  -0.001123  -0.000000  -0.000000   0.000000
    28  H   -0.032297   0.004622   0.000194   0.000000  -0.000000  -0.000000
    29  H    0.369659  -0.038164  -0.006077   0.000000  -0.000001  -0.000000
    30  H    0.371291  -0.032810   0.004311  -0.000000  -0.000000   0.000000
    31  H   -0.032389   0.370738  -0.032816  -0.000006  -0.000015   0.000000
    32  H   -0.039630   0.375339  -0.041605  -0.000001  -0.000004   0.000000
    33  H   -0.002704  -0.041678   0.345850  -0.000131   0.001615  -0.000035
              19         20         21         22         23         24
     1  O    0.000454  -0.000008   0.000000  -0.000000  -0.000000   0.000468
     2  C   -0.003005  -0.001891  -0.000000   0.000000   0.000000  -0.003404
     3  C   -0.037879  -0.002032  -0.000001  -0.000000   0.000000   0.000355
     4  C    0.372485  -0.040823  -0.000097  -0.000017   0.000021  -0.005501
     5  C   -0.036304   0.361619  -0.000029  -0.000084   0.000039  -0.041839
     6  C   -0.006925  -0.040137  -0.005434   0.005343  -0.005560  -0.008326
     7  O    0.000041   0.003136   0.005886   0.000802   0.005861   0.000014
     8  O    0.006674   0.003802  -0.031222  -0.032877  -0.031289   0.006855
     9  C   -0.000232  -0.000221   0.374235   0.376587   0.373834  -0.000188
    10  C   -0.006613  -0.040670   0.000040  -0.000023  -0.000132   0.365776
    11  C    0.000035  -0.005093  -0.000007   0.000001   0.000070  -0.045076
    12  C    0.000002   0.000046  -0.000000  -0.000000   0.000001  -0.003598
    13  C   -0.000001  -0.000024  -0.000000   0.000000   0.000000  -0.000581
    14  C   -0.000036   0.000060  -0.000000  -0.000000  -0.000000  -0.004087
    15  C    0.000412  -0.004762   0.000000  -0.000000  -0.000000  -0.047713
    16  H   -0.003284  -0.000009  -0.000000   0.000000  -0.000000  -0.000033
    17  H    0.005350   0.004313   0.000000   0.000000  -0.000000   0.000093
    18  H   -0.034274  -0.003651   0.000023  -0.000002  -0.000001  -0.000030
    19  H    0.567022   0.005450   0.000019   0.000004   0.000015   0.004780
    20  H    0.005450   0.594487   0.000002   0.000003   0.000005   0.005990
    21  H    0.000019   0.000002   0.553516  -0.031361  -0.037245   0.000013
    22  H    0.000004   0.000003  -0.031361   0.547509  -0.031487   0.000007
    23  H    0.000015   0.000005  -0.037245  -0.031487   0.554581   0.000013
    24  H    0.004780   0.005990   0.000013   0.000007   0.000013   0.612198
    25  H    0.000003   0.004936   0.000000   0.000000  -0.000004   0.006171
    26  H    0.000002  -0.000084   0.000021  -0.000011   0.000242  -0.003812
    27  H   -0.000001   0.000004  -0.000000   0.000000  -0.000001   0.004927
    28  H    0.000000   0.000000   0.000000   0.000000  -0.000000  -0.000054
    29  H   -0.000000  -0.000007   0.000000  -0.000000  -0.000000   0.000148
    30  H   -0.000000  -0.000000  -0.000000  -0.000000  -0.000000  -0.000026
    31  H   -0.000000  -0.000000   0.000000   0.000000   0.000000  -0.000031
    32  H   -0.000009   0.000006  -0.000000   0.000000  -0.000000   0.005195
    33  H    0.000096   0.005570  -0.000000   0.000000  -0.000000   0.006863
              25         26         27         28         29         30
     1  O   -0.000000   0.000000  -0.000000   0.000000  -0.000004   0.000002
     2  C   -0.000023  -0.000066  -0.000038   0.000007  -0.000071  -0.000076
     3  C   -0.000006  -0.000000   0.000000  -0.000000  -0.000000   0.000002
     4  C    0.000049   0.000047   0.000002   0.000001   0.000001  -0.000000
     5  C   -0.004327  -0.008501   0.000056  -0.000124  -0.000022   0.000007
     6  C   -0.001096   0.008258  -0.000024  -0.000003  -0.000000  -0.000000
     7  O    0.000046  -0.000289   0.000000   0.000000   0.000000   0.000000
     8  O    0.000069   0.001410   0.000002   0.000000  -0.000000   0.000000
     9  C   -0.000000   0.000060   0.000001  -0.000000   0.000000  -0.000000
    10  C   -0.040769  -0.032360  -0.005544   0.004342  -0.000966   0.000196
    11  C    0.367746   0.364465  -0.040302  -0.032102  -0.004340   0.004762
    12  C   -0.039067  -0.030882   0.371798   0.369134  -0.041555  -0.032870
    13  C   -0.004401   0.004587  -0.040459  -0.032297   0.369659   0.371291
    14  C   -0.000510  -0.000048  -0.003999   0.004622  -0.038164  -0.032810
    15  C   -0.007517   0.005036  -0.001123   0.000194  -0.006077   0.004311
    16  H   -0.000000  -0.000000  -0.000000   0.000000   0.000000  -0.000000
    17  H   -0.000005   0.000000  -0.000000  -0.000000  -0.000001  -0.000000
    18  H    0.000002   0.000001   0.000000  -0.000000  -0.000000   0.000000
    19  H    0.000003   0.000002  -0.000001   0.000000  -0.000000  -0.000000
    20  H    0.004936  -0.000084   0.000004   0.000000  -0.000007  -0.000000
    21  H    0.000000   0.000021  -0.000000   0.000000   0.000000  -0.000000
    22  H    0.000000  -0.000011   0.000000   0.000000  -0.000000  -0.000000
    23  H   -0.000004   0.000242  -0.000001  -0.000000  -0.000000  -0.000000
    24  H    0.006171  -0.003812   0.004927  -0.000054   0.000148  -0.000026
    25  H    0.607688  -0.035501   0.005865  -0.004314   0.004754  -0.000048
    26  H   -0.035501   0.590671  -0.003987  -0.002334  -0.000044  -0.000153
    27  H    0.005865  -0.003987   0.610467  -0.036653   0.006040  -0.004409
    28  H   -0.004314  -0.002334  -0.036653   0.601081  -0.004437  -0.002212
    29  H    0.004754  -0.000044   0.006040  -0.004437   0.617179  -0.036775
    30  H   -0.000048  -0.000153  -0.004409  -0.002212  -0.036775   0.598893
    31  H   -0.000023   0.000014  -0.000049  -0.000152  -0.004073  -0.002113
    32  H    0.000147  -0.000023   0.004658  -0.000054   0.005696  -0.004062
    33  H    0.005792  -0.000013   0.000180  -0.000044   0.005055  -0.000051
              31         32         33
     1  O    0.004878   0.003991   0.001289
     2  C   -0.003187  -0.004532  -0.035247
     3  C    0.000196   0.000270   0.002369
     4  C   -0.000011  -0.000059  -0.001725
     5  C   -0.000125   0.000070  -0.004315
     6  C    0.000001  -0.000002  -0.000104
     7  O   -0.000000  -0.000000  -0.000005
     8  O    0.000000  -0.000001  -0.000002
     9  C    0.000000   0.000000   0.000000
    10  C    0.004364  -0.006282  -0.044306
    11  C    0.000045  -0.000808  -0.007763
    12  C    0.004622  -0.004671  -0.000760
    13  C   -0.032389  -0.039630  -0.002704
    14  C    0.370738   0.375339  -0.041678
    15  C   -0.032816  -0.041605   0.345850
    16  H   -0.000006  -0.000001  -0.000131
    17  H   -0.000015  -0.000004   0.001615
    18  H    0.000000   0.000000  -0.000035
    19  H   -0.000000  -0.000009   0.000096
    20  H   -0.000000   0.000006   0.005570
    21  H    0.000000  -0.000000  -0.000000
    22  H    0.000000   0.000000   0.000000
    23  H    0.000000  -0.000000  -0.000000
    24  H   -0.000031   0.005195   0.006863
    25  H   -0.000023   0.000147   0.005792
    26  H    0.000014  -0.000023  -0.000013
    27  H   -0.000049   0.004658   0.000180
    28  H   -0.000152  -0.000054  -0.000044
    29  H   -0.004073   0.005696   0.005055
    30  H   -0.002113  -0.004062  -0.000051
    31  H    0.578313  -0.033210  -0.003817
    32  H   -0.033210   0.590674   0.006150
    33  H   -0.003817   0.006150   0.625094
 Mulliken charges:
               1
     1  O   -0.448603
     2  C    0.448867
     3  C   -0.345444
     4  C   -0.290336
     5  C   -0.170645
     6  C    0.614330
     7  O   -0.482607
     8  O   -0.452829
     9  C   -0.219454
    10  C   -0.100516
    11  C   -0.271904
    12  C   -0.262394
    13  C   -0.265534
    14  C   -0.254593
    15  C   -0.182461
    16  H    0.166484
    17  H    0.156724
    18  H    0.154324
    19  H    0.165721
    20  H    0.149985
    21  H    0.171642
    22  H    0.165607
    23  H    0.171038
    24  H    0.144435
    25  H    0.134346
    26  H    0.143295
    27  H    0.132589
    28  H    0.135397
    29  H    0.128005
    30  H    0.136143
    31  H    0.148847
    32  H    0.142757
    33  H    0.136781
 Sum of Mulliken charges =  -0.00000
 Mulliken charges with hydrogens summed into heavy atoms:
               1
     1  O   -0.448603
     2  C    0.448867
     3  C   -0.022237
     4  C    0.029710
     5  C   -0.020660
     6  C    0.614330
     7  O   -0.482607
     8  O   -0.452829
     9  C    0.288834
    10  C    0.043919
    11  C    0.005737
    12  C    0.005593
    13  C   -0.001385
    14  C    0.037011
    15  C   -0.045680
 APT charges:
               1
     1  O   -0.638840
     2  C    0.721846
     3  C   -0.055034
     4  C    0.127965
     5  C   -0.048372
     6  C    1.045159
     7  O   -0.677946
     8  O   -0.817819
     9  C    0.500330
    10  C    0.112417
    11  C    0.092229
    12  C    0.123432
    13  C    0.125073
    14  C    0.090947
    15  C   -0.071259
    16  H   -0.030961
    17  H   -0.008041
    18  H   -0.043424
    19  H   -0.012417
    20  H   -0.034469
    21  H   -0.025951
    22  H   -0.008886
    23  H   -0.023475
    24  H   -0.032188
    25  H   -0.041716
    26  H   -0.053596
    27  H   -0.047210
    28  H   -0.061222
    29  H   -0.050488
    30  H   -0.061555
    31  H   -0.036095
    32  H   -0.027944
    33  H   -0.030489
 Sum of APT charges =   0.00000
 APT charges with hydrogens summed into heavy atoms:
               1
     1  O   -0.638840
     2  C    0.721846
     3  C   -0.094036
     4  C    0.072123
     5  C   -0.082841
     6  C    1.045159
     7  O   -0.677946
     8  O   -0.817819
     9  C    0.442018
    10  C    0.080229
    11  C   -0.003083
    12  C    0.015000
    13  C    0.013029
    14  C    0.026908
    15  C   -0.101749
 Electronic spatial extent (au):  <R**2>=           3437.2886
 Charge=             -0.0000 electrons
 Dipole moment (field-independent basis, Debye):
    X=              1.3591    Y=             -0.9437    Z=              0.1968  Tot=              1.6663
 Quadrupole moment (field-independent basis, Debye-Ang):
   XX=            -95.5498   YY=            -89.4830   ZZ=            -91.6317
   XY=              6.5869   XZ=             12.9726   YZ=             -5.5065
 Traceless Quadrupole moment (field-independent basis, Debye-Ang):
   XX=             -3.3283   YY=              2.7385   ZZ=              0.5898
   XY=              6.5869   XZ=             12.9726   YZ=             -5.5065
 Octapole moment (field-independent basis, Debye-Ang**2):
  XXX=             52.1686  YYY=              2.6170  ZZZ=              8.1927  XYY=             22.2942
  XXY=            -20.3640  XXZ=             22.8647  XZZ=              1.7831  YZZ=              0.7996
  YYZ=             -6.9962  XYZ=              4.1889
 Hexadecapole moment (field-independent basis, Debye-Ang**3):
 XXXX=          -2537.2417 YYYY=          -1462.4107 ZZZZ=           -372.6645 XXXY=             25.1149
 XXXZ=            150.1099 YYYX=              4.2267 YYYZ=             -8.7127 ZZZX=             22.4841
 ZZZY=             -1.5383 XXYY=           -708.4092 XXZZ=           -512.8969 YYZZ=           -312.6095
 XXYZ=            -47.8081 YYXZ=             17.2531 ZZXY=             -0.2917
 N-N= 1.069546349379D+03 E-N=-3.753757262344D+03  KE= 6.873637892342D+02
  Exact polarizability: 141.434  -1.781 128.243  -2.942   0.319 109.256
 Approx polarizability: 183.782  -9.140 166.990 -13.825   6.556 186.924
 Calling FoFJK, ICntrl=    100127 FMM=F ISym2X=0 I1Cent= 0 IOpClX= 0 NMat=1 NMatS=1 NMatT=0.
 Full mass-weighted force constant matrix:
 Low frequencies ---   -1.9317   -0.0003    0.0007    0.0009    3.1437    8.6520
 Low frequencies ---   31.4571   55.6361   77.2304
 Diagonal vibrational polarizability:
       27.8518478      50.2073085      25.3870734
 Harmonic frequencies (cm**-1), IR intensities (KM/Mole), Raman scattering
 activities (A**4/AMU), depolarization ratios for plane and unpolarized
 incident light, reduced masses (AMU), force constants (mDyne/A),
 and normal coordinates:
                      1                      2                      3
                      A                      A                      A
 Frequencies --     31.4535                55.6324                77.2287
 Red. masses --      6.1566                 5.3245                 3.2413
 Frc consts  --      0.0036                 0.0097                 0.0114
 IR Inten    --      1.6757                 2.5773                 0.3643
  Atom  AN      X      Y      Z        X      Y      Z        X      Y      Z
     1   8    -0.02   0.03  -0.07     0.24  -0.03   0.27    -0.09   0.04  -0.11
     2   6    -0.01   0.01  -0.04     0.06  -0.02   0.05    -0.03   0.02  -0.02
     3   6    -0.01  -0.01  -0.06    -0.03  -0.03  -0.15    -0.01   0.02   0.01
     4   6    -0.00   0.00  -0.05    -0.01  -0.00  -0.20    -0.01   0.04   0.02
     5   6    -0.01  -0.01  -0.02    -0.00  -0.04  -0.10     0.02   0.06  -0.03
     6   6     0.02   0.05  -0.02    -0.00   0.00   0.01    -0.00   0.01  -0.00
     7   8     0.15   0.41  -0.03     0.08   0.03   0.08    -0.01  -0.08   0.02
     8   8    -0.10  -0.28  -0.01    -0.12   0.03   0.03    -0.04   0.03   0.01
     9   6    -0.07  -0.19  -0.01    -0.12   0.10   0.16    -0.11  -0.14   0.06
    10   6     0.00   0.01   0.02    -0.01  -0.02  -0.08     0.03   0.02  -0.07
    11   6     0.01  -0.01   0.06    -0.05  -0.01  -0.13     0.02   0.05  -0.17
    12   6     0.02   0.01   0.10    -0.02  -0.02  -0.09     0.11  -0.00  -0.08
    13   6     0.01  -0.01   0.09    -0.03   0.01   0.02     0.06  -0.02   0.14
    14   6     0.01   0.01   0.04     0.02  -0.00   0.06     0.10  -0.02   0.17
    15   6    -0.00  -0.01   0.00    -0.02  -0.00   0.00     0.01   0.00   0.04
    16   1    -0.01   0.00  -0.09    -0.00   0.00  -0.22    -0.03   0.02   0.00
    17   1    -0.00  -0.03  -0.07    -0.12  -0.14  -0.15     0.00   0.02   0.00
    18   1    -0.01  -0.01  -0.07    -0.04  -0.03  -0.28    -0.01   0.07   0.06
    19   1    -0.00   0.03  -0.05     0.04   0.07  -0.21    -0.03   0.00   0.03
    20   1    -0.01  -0.03  -0.02     0.04  -0.10  -0.11     0.04   0.09  -0.03
    21   1    -0.12   0.05   0.28    -0.12   0.14   0.23    -0.01  -0.27   0.04
    22   1    -0.20  -0.53  -0.00    -0.23   0.11   0.17    -0.13  -0.09   0.06
    23   1     0.11  -0.05  -0.32    -0.03   0.10   0.18    -0.24  -0.18   0.11
    24   1     0.01   0.04   0.01     0.04  -0.05  -0.09     0.07  -0.05  -0.07
    25   1    -0.00  -0.05   0.07    -0.12   0.02  -0.13    -0.12   0.12  -0.16
    26   1     0.01   0.01   0.08    -0.04  -0.03  -0.20     0.05   0.05  -0.31
    27   1     0.03   0.05   0.10     0.05  -0.06  -0.10     0.26  -0.06  -0.10
    28   1     0.02  -0.01   0.14    -0.06  -0.01  -0.13     0.08   0.02  -0.15
    29   1     0.01  -0.05   0.10    -0.11   0.03   0.04    -0.09  -0.00   0.17
    30   1     0.02   0.01   0.12    -0.00   0.00   0.06     0.15  -0.04   0.24
    31   1     0.00  -0.01   0.03     0.01   0.01   0.15     0.06  -0.04   0.30
    32   1     0.01   0.05   0.04     0.10  -0.02   0.06     0.23  -0.03   0.16
    33   1    -0.01  -0.04   0.00    -0.08   0.02   0.01    -0.09  -0.03   0.05
                      4                      5                      6
                      A                      A                      A
 Frequencies --     86.7990               131.7013               143.9365
 Red. masses --      3.3072                 1.1233                 2.7846
 Frc consts  --      0.0147                 0.0115                 0.0340
 IR Inten    --      0.5040                 0.2609                 1.6973
  Atom  AN      X      Y      Z        X      Y      Z        X      Y      Z
     1   8    -0.06   0.06  -0.12     0.00   0.00  -0.00    -0.02  -0.05  -0.01
     2   6     0.01   0.00  -0.01    -0.00  -0.00  -0.00     0.02  -0.01   0.02
     3   6     0.06  -0.04   0.02    -0.00  -0.01  -0.02     0.07   0.03   0.18
     4   6     0.03  -0.08   0.05    -0.01  -0.00  -0.00     0.06  -0.05   0.04
     5   6     0.01  -0.08   0.02    -0.00  -0.01   0.01     0.01  -0.01  -0.09
     6   6     0.03  -0.03   0.02     0.01   0.01   0.01    -0.01  -0.03  -0.06
     7   8     0.06   0.07   0.01     0.02   0.07   0.00     0.05  -0.01  -0.03
     8   8     0.03  -0.04   0.02     0.00  -0.02   0.01    -0.09  -0.04  -0.05
     9   6     0.13   0.20   0.00     0.01  -0.02  -0.01    -0.07   0.10   0.06
    10   6    -0.01  -0.07  -0.01    -0.00  -0.01   0.01    -0.01  -0.00  -0.11
    11   6    -0.10  -0.05  -0.11    -0.01  -0.01   0.00    -0.03  -0.02  -0.06
    12   6    -0.10  -0.05  -0.11    -0.02  -0.01  -0.01     0.03   0.04   0.12
    13   6    -0.10   0.03   0.05    -0.01   0.00  -0.01     0.02  -0.02   0.09
    14   6     0.00   0.02   0.12    -0.00  -0.00   0.01    -0.02   0.03  -0.09
    15   6    -0.00  -0.02   0.06    -0.00  -0.00   0.01     0.00   0.02  -0.09
    16   1     0.08  -0.03   0.01    -0.01  -0.00  -0.04     0.11  -0.04   0.36
    17   1     0.08  -0.04   0.02     0.00  -0.03  -0.02     0.04   0.24   0.20
    18   1     0.06  -0.09   0.09    -0.00  -0.01  -0.00     0.05  -0.02   0.06
    19   1    -0.01  -0.11   0.06    -0.01   0.01  -0.00     0.12  -0.16   0.03
    20   1     0.02  -0.05   0.02    -0.00  -0.01   0.01     0.01   0.06  -0.09
    21   1    -0.00   0.38   0.05     0.01  -0.34  -0.49    -0.10   0.08  -0.04
    22   1     0.12   0.15   0.00     0.21   0.51  -0.02    -0.09   0.30   0.06
    23   1     0.34   0.26  -0.06    -0.20  -0.24   0.48     0.01   0.04   0.24
    24   1     0.01  -0.15  -0.01    -0.00  -0.01   0.01     0.00  -0.00  -0.11
    25   1    -0.16   0.04  -0.11     0.00   0.00   0.00    -0.15  -0.08  -0.05
    26   1    -0.10  -0.10  -0.19    -0.01  -0.01   0.01    -0.00   0.00  -0.13
    27   1    -0.02  -0.15  -0.12    -0.02  -0.02  -0.01     0.09   0.21   0.12
    28   1    -0.17  -0.02  -0.20    -0.02  -0.00  -0.03     0.03  -0.02   0.27
    29   1    -0.20   0.10   0.06    -0.01   0.02  -0.01    -0.01  -0.17   0.11
    30   1    -0.08   0.04   0.08    -0.02   0.00  -0.01     0.04   0.03   0.19
    31   1     0.01   0.07   0.22    -0.00   0.01   0.02    -0.01  -0.01  -0.19
    32   1     0.10  -0.03   0.12     0.00  -0.01   0.01    -0.09   0.15  -0.09
    33   1    -0.06  -0.04   0.06     0.00  -0.01   0.01    -0.01   0.07  -0.08
                      7                      8                      9
                      A                      A                      A
 Frequencies --    162.1248               196.6862               222.2191
 Red. masses --      2.7958                 4.4095                 2.9629
 Frc consts  --      0.0433                 0.1005                 0.0862
 IR Inten    --      0.9862                 1.9802                 2.5137
  Atom  AN      X      Y      Z        X      Y      Z        X      Y      Z
     1   8     0.10  -0.03   0.05    -0.05  -0.09  -0.02     0.10   0.03  -0.02
     2   6    -0.01  -0.01  -0.09     0.00  -0.05   0.02     0.05  -0.00  -0.06
     3   6    -0.02  -0.02  -0.11    -0.01  -0.02   0.07     0.07  -0.02  -0.04
     4   6    -0.06  -0.00   0.15     0.00  -0.03  -0.06    -0.01  -0.07   0.20
     5   6     0.01   0.04   0.07     0.04  -0.04  -0.04    -0.02   0.01   0.00
     6   6     0.01   0.02   0.06     0.11   0.11  -0.02    -0.03   0.04  -0.09
     7   8    -0.03   0.02   0.03     0.12   0.08   0.00    -0.04   0.04  -0.10
     8   8     0.07   0.01   0.05     0.14   0.28  -0.02    -0.06   0.09  -0.08
     9   6     0.08  -0.04  -0.06    -0.03  -0.15   0.03    -0.14   0.03   0.06
    10   6    -0.04  -0.01  -0.07     0.03  -0.06  -0.02     0.01  -0.04   0.01
    11   6    -0.06   0.01  -0.11    -0.09  -0.08  -0.01     0.04  -0.06   0.08
    12   6     0.02   0.03   0.05    -0.14  -0.01   0.04    -0.03  -0.04  -0.00
    13   6    -0.02  -0.03   0.12    -0.12   0.03   0.03     0.00   0.02  -0.03
    14   6    -0.04   0.02  -0.07    -0.03   0.04  -0.01     0.04  -0.01   0.05
    15   6    -0.04  -0.00  -0.11     0.03  -0.03  -0.00     0.02  -0.03  -0.00
    16   1    -0.09   0.02  -0.22     0.02  -0.05   0.16     0.02   0.00  -0.12
    17   1     0.14  -0.15  -0.14    -0.08   0.08   0.09     0.23  -0.11  -0.07
    18   1     0.03   0.03   0.34    -0.04  -0.02  -0.11     0.13  -0.03   0.46
    19   1    -0.28  -0.06   0.20     0.09  -0.03  -0.07    -0.24  -0.24   0.25
    20   1     0.07   0.12   0.06     0.05  -0.07  -0.04    -0.09   0.13   0.01
    21   1     0.07  -0.03  -0.07     0.22  -0.33   0.20    -0.05  -0.02   0.14
    22   1     0.15  -0.10  -0.06    -0.13  -0.33   0.04    -0.26   0.04   0.07
    23   1     0.04  -0.02  -0.12    -0.31  -0.14  -0.10    -0.15   0.01   0.09
    24   1    -0.11  -0.06  -0.06     0.06  -0.06  -0.03     0.01   0.01   0.01
    25   1    -0.20   0.02  -0.10    -0.13  -0.09  -0.01     0.17  -0.12   0.07
    26   1    -0.03   0.01  -0.24    -0.11  -0.15  -0.05     0.02  -0.05   0.22
    27   1     0.13   0.13   0.04    -0.13   0.04   0.04    -0.08  -0.10   0.00
    28   1     0.01  -0.00   0.13    -0.18  -0.03   0.09    -0.05  -0.03  -0.05
    29   1    -0.12  -0.19   0.15    -0.14  -0.01   0.04     0.04   0.10  -0.04
    30   1     0.04   0.01   0.27    -0.14   0.08   0.07    -0.04   0.01  -0.10
    31   1    -0.04  -0.03  -0.15     0.00   0.11  -0.04     0.03   0.02   0.14
    32   1    -0.08   0.16  -0.08    -0.05   0.06  -0.01     0.13  -0.06   0.05
    33   1    -0.02  -0.02  -0.11     0.03  -0.01  -0.00    -0.00  -0.08   0.00
                     10                     11                     12
                      A                      A                      A
 Frequencies --    268.9506               287.2346               306.8161
 Red. masses --      3.6506                 2.7479                 2.6164
 Frc consts  --      0.1556                 0.1336                 0.1451
 IR Inten    --      8.2985                 1.3075                 7.2846
  Atom  AN      X      Y      Z        X      Y      Z        X      Y      Z
     1   8     0.02   0.26  -0.01    -0.08   0.01   0.04    -0.01  -0.05  -0.00
     2   6     0.01   0.06   0.10    -0.07   0.00   0.06     0.01  -0.02   0.00
     3   6     0.07  -0.05  -0.01    -0.10  -0.06  -0.07    -0.02  -0.00  -0.03
     4   6     0.04  -0.07  -0.01    -0.08  -0.01   0.06     0.01   0.06  -0.01
     5   6    -0.04  -0.07   0.03     0.06   0.02  -0.04     0.01   0.02   0.08
     6   6    -0.01   0.00  -0.01     0.09  -0.03  -0.06     0.04  -0.01  -0.06
     7   8    -0.01   0.05  -0.02     0.09  -0.06  -0.05    -0.06   0.00  -0.14
     8   8     0.02   0.09  -0.01     0.05  -0.07  -0.06     0.06  -0.05  -0.06
     9   6    -0.03  -0.02   0.01     0.04   0.00   0.10     0.01   0.01   0.17
    10   6    -0.04  -0.04   0.05     0.04   0.01  -0.04     0.03   0.01   0.12
    11   6    -0.05   0.00  -0.08    -0.03   0.02  -0.04     0.00   0.06   0.01
    12   6     0.09  -0.05   0.04    -0.01   0.10   0.09    -0.00  -0.01  -0.08
    13   6     0.07  -0.13  -0.04     0.01   0.05  -0.10    -0.05  -0.02   0.09
    14   6    -0.11  -0.10  -0.09    -0.01  -0.00   0.03    -0.05   0.03  -0.08
    15   6    -0.05   0.01   0.12    -0.00   0.02   0.07     0.05  -0.01   0.03
    16   1     0.11  -0.00  -0.09    -0.10   0.02  -0.24    -0.05   0.02  -0.08
    17   1     0.03  -0.14  -0.01    -0.07  -0.25  -0.09    -0.02  -0.06  -0.03
    18   1     0.05  -0.11  -0.06    -0.07   0.09   0.21    -0.02   0.04  -0.09
    19   1     0.08  -0.04  -0.02    -0.22  -0.09   0.09     0.05   0.15  -0.02
    20   1    -0.07  -0.09   0.03     0.06   0.07  -0.04    -0.07  -0.01   0.09
    21   1     0.04  -0.07   0.06     0.06   0.01   0.15     0.07   0.00   0.27
    22   1    -0.06  -0.05   0.02    -0.08   0.07   0.11    -0.17   0.09   0.18
    23   1    -0.11  -0.02  -0.01     0.13  -0.02   0.18     0.11  -0.03   0.28
    24   1     0.02  -0.13   0.05     0.11  -0.01  -0.05     0.02  -0.01   0.12
    25   1    -0.25   0.09  -0.07    -0.14  -0.01  -0.03    -0.01   0.19   0.00
    26   1     0.02   0.03  -0.30    -0.02  -0.00  -0.12    -0.01  -0.00  -0.05
    27   1     0.12   0.08   0.04    -0.07   0.34   0.11     0.07  -0.19  -0.10
    28   1     0.14  -0.08   0.14     0.03   0.03   0.31    -0.02   0.05  -0.25
    29   1     0.16  -0.19  -0.06     0.20   0.16  -0.14    -0.23  -0.16   0.14
    30   1     0.06  -0.16  -0.09    -0.06   0.00  -0.28     0.05   0.02   0.29
    31   1    -0.09  -0.20  -0.32     0.00   0.05   0.07    -0.01   0.02  -0.29
    32   1    -0.36  -0.09  -0.07    -0.01  -0.10   0.04    -0.24   0.16  -0.07
    33   1     0.01   0.11   0.11    -0.05   0.05   0.08     0.17  -0.02   0.01
                     13                     14                     15
                      A                      A                      A
 Frequencies --    327.1345               359.4202               384.3720
 Red. masses --      3.1473                 2.7791                 4.3798
 Frc consts  --      0.1984                 0.2115                 0.3812
 IR Inten    --      1.4705                 3.9391                 1.1112
  Atom  AN      X      Y      Z        X      Y      Z        X      Y      Z
     1   8     0.00  -0.11  -0.06    -0.05   0.03   0.02     0.04  -0.08  -0.05
     2   6     0.10  -0.06   0.02    -0.02   0.02   0.07     0.03  -0.14  -0.03
     3   6     0.01  -0.00  -0.04    -0.04  -0.03  -0.03     0.11  -0.16   0.01
     4   6     0.01   0.04  -0.01    -0.05  -0.03   0.05     0.18   0.05   0.04
     5   6    -0.02   0.01   0.06     0.03   0.00  -0.06     0.05   0.08   0.01
     6   6    -0.07   0.04   0.03     0.03  -0.00  -0.04     0.01  -0.00  -0.03
     7   8    -0.11   0.02   0.01     0.16  -0.07   0.10     0.08  -0.02   0.03
     8   8    -0.09   0.00   0.03    -0.09   0.01  -0.02    -0.05   0.03  -0.02
     9   6    -0.06   0.03  -0.07    -0.07   0.02  -0.14    -0.05   0.02  -0.07
    10   6     0.11  -0.09   0.09     0.07  -0.01   0.04    -0.02   0.13   0.05
    11   6    -0.03  -0.04  -0.11     0.06  -0.00   0.04    -0.04   0.20   0.02
    12   6    -0.01   0.07   0.06     0.00  -0.01  -0.07    -0.02   0.15  -0.02
    13   6     0.02   0.08  -0.05    -0.02   0.02   0.07    -0.11  -0.07  -0.03
    14   6     0.04   0.06  -0.02    -0.05   0.06  -0.08    -0.13  -0.11   0.07
    15   6     0.17  -0.05   0.12     0.06   0.02   0.08    -0.10  -0.10   0.03
    16   1    -0.04   0.02  -0.10    -0.02   0.03  -0.16    -0.04  -0.13  -0.11
    17   1    -0.01  -0.09  -0.04    -0.04  -0.18  -0.04     0.18  -0.28  -0.01
    18   1     0.01  -0.02  -0.08    -0.02   0.05   0.20     0.10   0.08  -0.05
    19   1     0.03   0.12  -0.02    -0.17  -0.14   0.07     0.25   0.08   0.02
    20   1    -0.07  -0.02   0.07    -0.03   0.02  -0.05    -0.01   0.13   0.01
    21   1    -0.11   0.05  -0.12    -0.12   0.04  -0.20    -0.06   0.02  -0.09
    22   1     0.02   0.01  -0.07     0.03  -0.00  -0.14    -0.01   0.00  -0.07
    23   1    -0.07   0.04  -0.10    -0.08   0.04  -0.19    -0.07   0.03  -0.09
    24   1     0.19  -0.22   0.08     0.16   0.02   0.03    -0.01   0.18   0.05
    25   1    -0.30   0.09  -0.09     0.17   0.02   0.03    -0.05   0.28   0.02
    26   1    -0.01  -0.16  -0.38     0.03  -0.03   0.12    -0.05   0.15  -0.02
    27   1     0.00   0.27   0.07     0.05  -0.20  -0.09    -0.06   0.23  -0.01
    28   1    -0.05  -0.01   0.25    -0.05   0.04  -0.23     0.14   0.14   0.05
    29   1     0.14   0.12  -0.07    -0.17  -0.10   0.11    -0.13  -0.04  -0.03
    30   1    -0.05   0.08  -0.14     0.06   0.05   0.24    -0.01  -0.18  -0.02
    31   1     0.11   0.14  -0.15     0.01   0.05  -0.35    -0.12  -0.04   0.13
    32   1    -0.11   0.03  -0.00    -0.31   0.18  -0.06    -0.09  -0.19   0.07
    33   1     0.24  -0.05   0.10     0.13   0.07   0.07    -0.11  -0.19   0.04
                     16                     17                     18
                      A                      A                      A
 Frequencies --    403.2268               440.2497               472.0873
 Red. masses --      4.3423                 2.7512                 2.4835
 Frc consts  --      0.4160                 0.3142                 0.3261
 IR Inten    --      0.9802                 1.5955                 2.3110
  Atom  AN      X      Y      Z        X      Y      Z        X      Y      Z
     1   8     0.05   0.09  -0.02     0.00  -0.07   0.03     0.11   0.01  -0.03
     2   6     0.03   0.03  -0.01    -0.04   0.05  -0.09     0.00  -0.02  -0.13
     3   6    -0.03   0.14   0.00    -0.00   0.06  -0.03    -0.05   0.12   0.02
     4   6     0.00   0.22   0.03    -0.04  -0.08   0.00    -0.09   0.01  -0.02
     5   6     0.07   0.17  -0.00    -0.03  -0.08   0.03    -0.04  -0.01  -0.01
     6   6     0.05   0.07  -0.03     0.02  -0.05  -0.04     0.02  -0.00  -0.02
     7   8     0.05  -0.07   0.02     0.10  -0.02   0.02     0.06  -0.03   0.02
     8   8    -0.03  -0.06  -0.02    -0.01   0.02  -0.04     0.02  -0.02  -0.02
     9   6    -0.01   0.02  -0.02    -0.03   0.01  -0.03     0.02  -0.01   0.01
    10   6     0.08   0.01  -0.01    -0.04   0.06   0.16     0.01  -0.06   0.05
    11   6    -0.12  -0.09   0.03    -0.15   0.13   0.04     0.07  -0.01  -0.04
    12   6    -0.13  -0.15   0.06     0.02  -0.05   0.03     0.03   0.06  -0.02
    13   6    -0.12  -0.19  -0.03     0.06  -0.02  -0.03     0.00   0.02  -0.00
    14   6     0.06  -0.15  -0.03     0.10  -0.01  -0.02    -0.15  -0.01   0.08
    15   6     0.07  -0.03   0.02     0.03   0.05  -0.04    -0.04  -0.08   0.07
    16   1    -0.15   0.10   0.07     0.08   0.02   0.10    -0.06  -0.06   0.44
    17   1    -0.01   0.20   0.00     0.04   0.21  -0.02    -0.02   0.57   0.05
    18   1    -0.02   0.24   0.03     0.02  -0.09   0.09    -0.02   0.01   0.09
    19   1    -0.02   0.25   0.04    -0.12  -0.12   0.02    -0.17  -0.05   0.00
    20   1     0.06   0.24  -0.00    -0.14  -0.16   0.05    -0.08  -0.05  -0.00
    21   1    -0.05   0.06  -0.04    -0.01  -0.01  -0.02     0.02  -0.01   0.02
    22   1     0.00   0.05  -0.02    -0.04  -0.00  -0.03    -0.01   0.01   0.01
    23   1     0.06   0.02  -0.00    -0.05   0.01  -0.04     0.04  -0.01   0.02
    24   1     0.13   0.01  -0.02    -0.07   0.11   0.16     0.06  -0.09   0.04
    25   1    -0.24  -0.09   0.04    -0.46   0.35   0.06     0.08   0.03  -0.04
    26   1    -0.13  -0.17  -0.09    -0.06   0.11  -0.34     0.05  -0.03  -0.02
    27   1    -0.19  -0.10   0.07     0.01  -0.17   0.02     0.05   0.11  -0.02
    28   1    -0.02  -0.15   0.09     0.09   0.01  -0.12    -0.01   0.04   0.04
    29   1    -0.12  -0.25  -0.03     0.15   0.01  -0.04     0.06   0.12  -0.02
    30   1    -0.16  -0.08   0.03    -0.03   0.04  -0.10     0.04  -0.11  -0.11
    31   1     0.07  -0.07   0.07     0.07  -0.03   0.10    -0.11  -0.02  -0.10
    32   1     0.12  -0.25  -0.03     0.21  -0.03  -0.03    -0.31   0.02   0.09
    33   1     0.09  -0.01   0.02     0.16  -0.05  -0.05    -0.03  -0.25   0.07
                     19                     20                     21
                      A                      A                      A
 Frequencies --    509.8239               553.6667               576.2134
 Red. masses --      2.2880                 2.3464                 3.5235
 Frc consts  --      0.3504                 0.4238                 0.6893
 IR Inten    --      2.2502                 2.9790                 6.6958
  Atom  AN      X      Y      Z        X      Y      Z        X      Y      Z
     1   8     0.02   0.06   0.00    -0.01   0.05   0.02    -0.12  -0.17   0.04
     2   6    -0.01  -0.00   0.00    -0.04   0.02  -0.01     0.03   0.16   0.03
     3   6    -0.03  -0.01   0.01    -0.03   0.00   0.02     0.13   0.23  -0.14
     4   6    -0.08  -0.11  -0.03     0.01   0.05   0.03     0.08  -0.00  -0.01
     5   6     0.00  -0.05  -0.06    -0.04  -0.04   0.18    -0.04  -0.04  -0.01
     6   6    -0.02   0.00   0.03     0.02  -0.04  -0.05    -0.02  -0.05  -0.00
     7   8    -0.07   0.02  -0.01     0.10  -0.03   0.00     0.01   0.01   0.01
     8   8     0.00  -0.00   0.04    -0.01   0.02  -0.06     0.01   0.01  -0.00
     9   6     0.01  -0.01   0.01    -0.05   0.02  -0.03     0.01  -0.00   0.01
    10   6     0.08   0.03   0.02    -0.05  -0.09   0.07    -0.04  -0.02  -0.02
    11   6     0.03   0.08   0.01     0.07  -0.06  -0.06     0.03  -0.02  -0.03
    12   6    -0.03   0.13  -0.04     0.01   0.07  -0.03     0.01   0.02  -0.03
    13   6    -0.11  -0.08  -0.03    -0.02   0.01  -0.02    -0.05  -0.09  -0.02
    14   6     0.09  -0.06  -0.05     0.05   0.01  -0.03    -0.06  -0.06   0.04
    15   6     0.08  -0.02   0.00    -0.02  -0.00  -0.08    -0.01   0.07   0.10
    16   1     0.05  -0.07   0.17    -0.07   0.03  -0.05     0.28   0.32  -0.29
    17   1    -0.08   0.15   0.03    -0.00  -0.08   0.01     0.16   0.08  -0.16
    18   1    -0.03  -0.05   0.12    -0.08  -0.06  -0.26     0.26  -0.12   0.13
    19   1    -0.17  -0.23  -0.01     0.18   0.32  -0.01    -0.08  -0.07   0.03
    20   1     0.03  -0.13  -0.06    -0.18  -0.01   0.20    -0.03  -0.03  -0.01
    21   1     0.01  -0.00   0.00    -0.03   0.00  -0.02     0.03  -0.02   0.02
    22   1     0.04  -0.01   0.01    -0.08   0.02  -0.03    -0.00  -0.01   0.01
    23   1     0.00  -0.00   0.00    -0.05   0.01  -0.02    -0.00  -0.01   0.01
    24   1     0.13   0.06   0.01    -0.23  -0.22   0.10     0.02  -0.08  -0.02
    25   1     0.15   0.11  -0.00     0.20  -0.05  -0.07     0.22  -0.10  -0.04
    26   1    -0.02   0.00   0.11     0.04  -0.05   0.08     0.00   0.02   0.18
    27   1    -0.09   0.35  -0.02     0.01   0.34  -0.01    -0.02   0.23  -0.01
    28   1     0.12   0.06   0.18    -0.00  -0.04   0.26     0.08  -0.05   0.18
    29   1    -0.37  -0.27   0.04    -0.17  -0.09   0.02    -0.17  -0.16   0.01
    30   1     0.05  -0.01   0.29     0.07   0.04   0.16     0.05  -0.11   0.11
    31   1     0.10   0.08   0.14    -0.00   0.03   0.23    -0.07  -0.07   0.05
    32   1     0.23  -0.19  -0.06     0.29  -0.05  -0.04    -0.10  -0.17   0.05
    33   1     0.16   0.01  -0.00     0.04   0.00  -0.09    -0.06   0.09   0.10
                     22                     23                     24
                      A                      A                      A
 Frequencies --    663.7876               750.4249               751.9918
 Red. masses --      4.9905                 3.6398                 4.9679
 Frc consts  --      1.2955                 1.2077                 1.6552
 IR Inten    --      4.2396                 4.7756                 5.9549
  Atom  AN      X      Y      Z        X      Y      Z        X      Y      Z
     1   8     0.08  -0.04  -0.17     0.01  -0.03  -0.06    -0.02  -0.02   0.00
     2   6     0.31  -0.10   0.19     0.14  -0.02   0.10     0.02   0.04   0.02
     3   6    -0.05   0.03   0.03    -0.02   0.01  -0.04     0.11  -0.03   0.03
     4   6    -0.13   0.07  -0.00    -0.07  -0.04  -0.06    -0.04  -0.10  -0.05
     5   6    -0.21   0.01  -0.03     0.18  -0.06   0.14    -0.11   0.07  -0.06
     6   6    -0.08  -0.05  -0.04     0.20   0.10   0.03     0.07   0.46  -0.03
     7   8     0.07  -0.01   0.09    -0.01  -0.04  -0.14    -0.03  -0.10   0.10
     8   8     0.06  -0.00  -0.07    -0.06  -0.01   0.08     0.00  -0.11  -0.07
     9   6     0.08  -0.03   0.03    -0.11   0.04  -0.04     0.06  -0.03   0.02
    10   6    -0.18   0.01  -0.05    -0.05  -0.02  -0.02    -0.00  -0.06   0.11
    11   6    -0.06   0.07   0.02    -0.03   0.03   0.01     0.06  -0.04   0.01
    12   6     0.02   0.01  -0.01     0.02   0.00   0.00     0.03  -0.01   0.00
    13   6     0.02  -0.01  -0.01    -0.00  -0.03   0.00    -0.02   0.01  -0.02
    14   6     0.04   0.01  -0.03    -0.07  -0.00   0.02    -0.07   0.03  -0.01
    15   6     0.03   0.03   0.04    -0.05   0.07  -0.02    -0.07   0.01  -0.07
    16   1    -0.21   0.06  -0.09     0.11  -0.06   0.16     0.23   0.07  -0.16
    17   1    -0.29  -0.19   0.04    -0.30   0.18   0.02     0.11  -0.21   0.01
    18   1    -0.02   0.01   0.11     0.02  -0.01   0.14    -0.01  -0.13  -0.04
    19   1    -0.24  -0.02   0.02    -0.33   0.03  -0.00     0.06  -0.23  -0.06
    20   1    -0.25   0.04  -0.03     0.28  -0.16   0.13    -0.22  -0.04  -0.04
    21   1     0.14  -0.05   0.11    -0.20   0.07  -0.15     0.04   0.03   0.07
    22   1    -0.08   0.02   0.04     0.11  -0.02  -0.05    -0.07   0.08   0.03
    23   1     0.10  -0.05   0.10    -0.14   0.07  -0.14     0.20  -0.05   0.12
    24   1    -0.19   0.01  -0.04    -0.25  -0.08   0.02    -0.05   0.01   0.11
    25   1     0.07  -0.02   0.02     0.04  -0.02   0.01    -0.15   0.13   0.02
    26   1    -0.04   0.21   0.18    -0.02   0.09   0.09     0.11  -0.07  -0.24
    27   1     0.01   0.03  -0.00     0.04  -0.03   0.00    -0.01   0.00   0.01
    28   1     0.08   0.01  -0.00     0.05   0.02  -0.04    -0.03  -0.03   0.04
    29   1    -0.05  -0.10   0.01     0.04  -0.02  -0.01    -0.07  -0.06  -0.01
    30   1     0.04   0.05   0.09     0.01  -0.07  -0.04     0.04  -0.01   0.05
    31   1     0.04   0.02   0.04    -0.11  -0.04   0.14    -0.14   0.03   0.28
    32   1     0.09  -0.05  -0.03     0.04  -0.03   0.01     0.22  -0.06  -0.03
    33   1    -0.08   0.32   0.05    -0.14   0.28  -0.01     0.04  -0.02  -0.08
                     25                     26                     27
                      A                      A                      A
 Frequencies --    792.8193               827.7095               842.6540
 Red. masses --      2.1054                 2.0985                 2.5650
 Frc consts  --      0.7797                 0.8471                 1.0731
 IR Inten    --      1.4179                 3.7022                13.6569
  Atom  AN      X      Y      Z        X      Y      Z        X      Y      Z
     1   8     0.02  -0.02   0.00     0.00  -0.02  -0.00     0.06  -0.04  -0.03
     2   6    -0.04   0.01  -0.08    -0.03  -0.06  -0.02     0.03   0.07  -0.09
     3   6     0.01  -0.06  -0.01     0.01  -0.09  -0.06    -0.05   0.01   0.11
     4   6    -0.02  -0.06   0.01     0.07   0.05  -0.04    -0.07  -0.01   0.07
     5   6    -0.01   0.01   0.05     0.02   0.05  -0.03    -0.04  -0.02  -0.09
     6   6     0.03   0.12  -0.00    -0.01  -0.02  -0.00     0.06  -0.02  -0.04
     7   8    -0.00  -0.03   0.02    -0.00   0.01   0.00     0.03  -0.02  -0.10
     8   8     0.00  -0.03  -0.03    -0.00   0.01   0.01    -0.06   0.02   0.14
     9   6    -0.01   0.00  -0.01     0.01  -0.00   0.00     0.04  -0.01   0.03
    10   6    -0.07   0.03  -0.05    -0.06   0.04   0.07    -0.01   0.01   0.02
    11   6    -0.11   0.04  -0.04     0.02  -0.08  -0.02     0.01  -0.01   0.01
    12   6    -0.05  -0.01  -0.04     0.02  -0.10  -0.02     0.04  -0.09  -0.02
    13   6     0.06  -0.02   0.02     0.05   0.06  -0.06    -0.02  -0.03  -0.06
    14   6     0.12  -0.02   0.02     0.01   0.06  -0.04    -0.04   0.07   0.03
    15   6     0.04   0.05   0.11    -0.08   0.08   0.10    -0.00   0.08   0.04
    16   1     0.04  -0.11   0.11    -0.04  -0.25   0.28    -0.17   0.14  -0.23
    17   1     0.13   0.10  -0.01    -0.05   0.28  -0.02     0.18  -0.36   0.04
    18   1    -0.11  -0.10  -0.18     0.15   0.18   0.25    -0.30   0.02  -0.25
    19   1     0.14   0.09  -0.02    -0.20  -0.10   0.02     0.34   0.03  -0.02
    20   1    -0.00   0.08   0.05    -0.00  -0.00  -0.03    -0.09   0.03  -0.08
    21   1    -0.01   0.01   0.01     0.01  -0.01   0.00    -0.05   0.01  -0.09
    22   1    -0.04   0.03  -0.00     0.01  -0.01   0.00     0.26  -0.10   0.02
    23   1     0.03  -0.00   0.02     0.00  -0.00   0.00    -0.04   0.02  -0.09
    24   1    -0.04  -0.11  -0.05    -0.01   0.03   0.07     0.10   0.09   0.00
    25   1     0.31  -0.15  -0.06    -0.02   0.00  -0.01    -0.02   0.06   0.01
    26   1    -0.18   0.16   0.42     0.07   0.01  -0.08     0.06   0.07  -0.06
    27   1     0.00   0.21  -0.03    -0.08   0.17   0.01    -0.05   0.15   0.01
    28   1     0.05  -0.08   0.15    -0.06  -0.21   0.26     0.13  -0.16   0.21
    29   1     0.02   0.07   0.02    -0.26  -0.18   0.02    -0.18  -0.09  -0.02
    30   1    -0.02   0.06   0.00     0.14   0.24   0.30     0.04   0.02   0.10
    31   1     0.18  -0.11  -0.38    -0.05   0.01   0.12    -0.05   0.07   0.06
    32   1    -0.29   0.09   0.05     0.10  -0.11  -0.04    -0.05  -0.03   0.04
    33   1    -0.05  -0.01   0.11    -0.02   0.15   0.09     0.00  -0.05   0.04
                     28                     29                     30
                      A                      A                      A
 Frequencies --    852.4505               860.0890               894.5648
 Red. masses --      3.4552                 1.6607                 2.1188
 Frc consts  --      1.4793                 0.7238                 0.9990
 IR Inten    --      3.4860                 0.5993                 5.1599
  Atom  AN      X      Y      Z        X      Y      Z        X      Y      Z
     1   8    -0.03   0.04   0.02     0.02  -0.02  -0.01    -0.02   0.01   0.02
     2   6    -0.02  -0.04   0.05    -0.00   0.01  -0.04    -0.05  -0.04   0.01
     3   6     0.02   0.07  -0.00    -0.01   0.00  -0.01     0.04  -0.03  -0.07
     4   6     0.07   0.09  -0.02    -0.02  -0.02   0.04     0.02  -0.01   0.01
     5   6    -0.06  -0.01  -0.10     0.00  -0.01   0.02    -0.10   0.04   0.02
     6   6     0.06   0.04  -0.06     0.00   0.01   0.01     0.02   0.02  -0.07
     7   8     0.03  -0.03  -0.09    -0.00  -0.00   0.00     0.04  -0.02  -0.06
     8   8    -0.06   0.02   0.14     0.01  -0.00  -0.01    -0.05   0.02   0.09
     9   6     0.05  -0.02   0.04    -0.01   0.00  -0.00     0.06  -0.02   0.03
    10   6    -0.07  -0.07   0.08     0.02  -0.04  -0.07    -0.03  -0.02  -0.04
    11   6    -0.10  -0.04   0.02    -0.04  -0.02   0.07     0.04   0.06  -0.05
    12   6    -0.07   0.13  -0.07     0.00   0.11   0.02     0.03  -0.00   0.09
    13   6     0.15   0.08   0.04     0.08   0.05  -0.04    -0.10  -0.01   0.02
    14   6     0.08  -0.10  -0.03    -0.02  -0.04  -0.05     0.01   0.03  -0.07
    15   6    -0.03  -0.13  -0.05    -0.02   0.03   0.08     0.03  -0.03   0.06
    16   1    -0.11   0.11  -0.12    -0.02  -0.02   0.03     0.06  -0.13   0.16
    17   1    -0.02  -0.08  -0.01     0.13   0.06  -0.02     0.07   0.25  -0.05
    18   1     0.23   0.11   0.25    -0.11  -0.10  -0.20     0.08  -0.11  -0.05
    19   1    -0.08  -0.20   0.02     0.15   0.15   0.00    -0.00   0.07   0.01
[...]
 .00083685,0.00083717,0.00004719,-0.00958673,0.01270909,-0.00108186,0.1
 4842239,0.00026833,-0.00005586,0.00003309,-0.00024909,0.00025782,-0.00
 004801,-0.00003191,0.00005168,0.00007205,-0.00058924,-0.00040354,-0.00
 004167,0.00146175,-0.00105162,0.00007981,0.00066881,0.00000727,-0.0006
 2032,-0.00037591,0.00007352,0.00017444,-0.00015894,-0.00000508,0.00037
 575,0.00014111,-0.00002808,-0.00018634,-0.00555747,-0.00265447,-0.0003
 3123,0.01627520,-0.02296910,0.00213589,0.12175221,-0.21823275,0.012804
 98,-0.00101882,0.00154589,-0.00038572,-0.00026350,0.00107072,-0.000143
 49,-0.00036767,0.00026403,0.00033452,0.00003409,-0.00001147,-0.0000230
 6,-0.00001039,0.00000935,-0.00000642,0.00015206,-0.00024797,-0.0000046
 0,0.00002679,0.00001862,0.00000729,-0.00004314,-0.00003137,-0.00005716
 ,-0.00003059,0.00000119,0.00002386,-0.00000265,-0.00000279,0.00002859,
 -0.00003721,0.00000446,0.00001963,-0.00010819,0.00030738,0.00010023,0.
 00015857,0.00106791,-0.00058209,0.00003242,0.00085077,0.00051986,-0.00
 095194,0.00165914,0.00075617,-0.13143075,0.23785758,-0.00013811,-0.000
 15771,0.00003766,0.00010929,0.00003246,0.00004695,0.00002476,-0.000053
 16,-0.00001709,0.00004139,-0.00000618,-0.00003816,-0.00001712,0.000043
 47,0.00039525,-0.00005942,-0.00002814,0.00001649,0.00001467,-0.0000032
 1,-0.00001743,0.00003473,0.00002054,-0.00002350,-0.00003796,0.00001045
 ,0.00003280,0.00002711,0.00018261,0.00034921,0.00024907,-0.00168348,-0
 .00080053,-0.01083517,0.01355736,-0.05128727,0.01566251,-0.02240360,0.
 00128893,0.00287525,0.00148594,-0.00412066,0.00007503,0.00055034,0.000
 04324,-0.00001767,-0.00002125,0.00000485,-0.00000419,-0.00000810,-0.00
 000098,-0.00001891,0.00000928,0.00000243,-0.00001194,0.00000021,0.0000
 0534,0.00005139,0.00007173,-0.00000793,0.00000908,-0.00000214,-0.00000
 287,-0.00000148,-0.00000189,0.00000013,0.00000967,0.00000066,-0.000001
 82,0.00033006,-0.00038945,0.00021824,0.00047531,-0.00014223,0.00024316
 ,-0.00025526,0.00026529,-0.00002223,-0.01690197,0.02430949,-0.00148775
 ,0.00865165,-0.01435512,0.05300038,0.00029842,0.00026331,0.00008388,-0
 .00039919,-0.00008300,0.00025214,0.00001280,0.00003572,-0.00006213,-0.
 00001660,0.00000983,0.00002142,0.00007262,-0.00003689,-0.00008205,-0.0
 0005115,0.00002425,0.00010172,0.00005830,-0.00000145,-0.00003437,0.000
 02256,-0.00000940,-0.00007421,-0.00002398,0.00000221,0.00003273,-0.000
 12377,0.00005661,0.00015815,0.00140245,0.00056640,0.00018737,0.0107229
 4,-0.00152342,0.02189667,-0.10688190,0.00554811,-0.10464023,-0.0111235
 3,0.00191571,-0.01759322,0.00032701,-0.00137890,0.00022871,0.00000685,
 0.00001844,-0.00001305,0.00001229,0.00000474,0.00000274,0.00001858,0.0
 0000608,-0.00000853,-0.00000683,-0.00000291,0.00000555,0.00000294,-0.0
 0000101,-0.00000631,0.00000460,-0.00000070,-0.00000404,-0.00000103,0.0
 0000307,-0.00000530,0.00000878,-0.00000104,-0.00000152,-0.00013807,0.0
 0000884,-0.00000045,-0.00012939,0.00003871,-0.00039330,0.00009614,0.00
 030880,-0.00023187,-0.00259990,-0.00046944,0.00429467,0.00114575,-0.00
 001822,-0.00084869,0.11725300,-0.00047905,-0.00036115,-0.00012783,0.00
 081011,0.00001384,-0.00035735,-0.00005892,0.00004886,0.00007771,0.0000
 0708,-0.00002692,-0.00001193,-0.00005029,0.00001945,0.00005300,-0.0000
 0148,-0.00003996,0.00002659,-0.00001238,0.00002061,-0.00001434,0.00000
 568,0.00001754,-0.00003732,-0.00000875,-0.00000625,0.00002135,0.000014
 14,-0.00021706,-0.00002893,0.00052773,0.00008887,0.00078620,-0.0003182
 5,-0.00051580,-0.00101330,0.00539394,-0.05244833,0.01414329,0.01478140
 ,-0.00304745,0.02591283,0.00071380,0.00200430,0.00117731,-0.00000170,0
 .00002403,0.00000602,-0.00001710,-0.00000948,-0.00001365,-0.00001314,0
 .00000759,0.00000543,0.00000142,0.00000806,-0.00000979,-0.00003130,-0.
 00002671,-0.00001752,0.00000278,0.00000246,-0.00000127,-0.00000031,-0.
 00000077,-0.00000335,-0.00000161,-0.00000051,0.00000039,-0.00000614,0.
 00003523,-0.00019447,-0.00018364,0.00010555,0.00005171,-0.00003317,-0.
 00000956,-0.00012811,0.00045471,0.00097408,-0.00015998,-0.00032980,0.0
 0015404,-0.00027726,-0.01065589,0.05461660,0.00020453,-0.00004455,-0.0
 0005570,-0.00004998,0.00029774,0.00022149,-0.00004198,0.00001866,-0.00
 007722,0.00004131,0.00002868,0.00000703,-0.00006247,0.00005974,-0.0000
 4335,-0.00011379,-0.00000948,-0.00005609,0.00008384,-0.00000157,0.0000
 2834,0.00004476,0.00003278,0.00005550,-0.00001195,-0.00001279,0.000004
 06,0.00021950,0.00010133,0.00008013,-0.00150060,-0.00056975,0.00059023
 ,-0.01178110,0.00086435,-0.02450305,-0.10439832,0.01436685,-0.23877363
 ,-0.00019056,0.00001247,0.00031111,0.00011441,-0.00043156,0.00011329,0
 .00000774,0.00001696,0.00000326,0.00000697,0.00000090,0.00001391,-0.00
 000498,0.00002084,-0.00000228,-0.00000016,-0.00000862,0.00000769,0.000
 03178,0.00003965,0.00001915,0.00000191,0.00000858,0.00000266,0.0000002
 0,-0.00000801,0.00000689,-0.00001050,-0.00000267,-0.00000223,0.0000013
 4,-0.00021423,0.00006794,0.00087895,0.00081846,0.00056231,0.00024418,-
 0.00019125,0.00046149,0.00432619,0.00015721,-0.00297074,0.00002246,-0.
 00045374,0.00095153,0.11316914,-0.01504916,0.26275504,-0.00000612,-0.0
 0016634,0.00001178,0.00104108,0.00087425,0.00001088,-0.00030277,0.0003
 1009,-0.00000559,-0.00013177,-0.00003044,0.00004882,0.00020985,-0.0001
 0105,-0.00010122,-0.00004944,0.00021551,-0.00002905,0.00006325,-0.0000
 9960,0.00001845,-0.00000653,-0.00008692,0.00006213,0.00002972,0.000032
 21,-0.00008764,-0.00040484,0.00047677,0.00015779,-0.00217629,0.0016057
 8,0.00456529,-0.01350794,-0.01805877,-0.00298655,-0.14004874,-0.123223
 25,-0.01313731,0.01259240,0.01725677,0.00156850,-0.00238230,0.00306331
 ,-0.00020554,0.00008132,0.00013739,-0.00002502,-0.00000860,-0.00000901
 ,0.00000466,0.00003632,-0.00004628,-0.00001614,0.00000931,-0.00000190,
 -0.00000807,-0.00000898,0.00001008,0.00000950,-0.00000896,-0.00001078,
 0.00000537,0.00000586,-0.00000128,0.00000881,0.00000943,0.00000347,-0.
 00000917,0.00006643,-0.00008577,-0.00001935,0.00036856,0.00043645,-0.0
 0002229,-0.00068800,-0.00154270,0.00024294,0.00114521,0.00030120,0.000
 01654,0.00015653,0.00030595,-0.00067659,-0.00975659,-0.01244498,-0.001
 45206,0.15206289,0.00059989,0.00003749,-0.00002352,-0.00244211,-0.0005
 2589,0.00016872,0.00055312,-0.00048581,0.00000238,0.00007775,0.0000464
 9,-0.00010943,-0.00009013,0.00010690,0.00012477,0.00017909,-0.00005400
 ,-0.00028209,-0.00016218,0.00001431,0.00009980,-0.00006899,0.00000466,
 0.00021335,0.00005936,0.00000118,-0.00010540,0.00048274,0.00037896,-0.
 00046010,0.00032664,0.00111825,0.00014435,0.00094754,0.00130646,0.0004
 3318,-0.12270316,-0.21416823,-0.01620885,-0.01675065,-0.02275801,-0.00
 252288,0.00556889,-0.00346639,0.00036090,-0.00011422,-0.00024537,0.000
 01080,-0.00001493,0.00000308,-0.00000702,-0.00004266,-0.00001425,0.000
 02931,0.00000353,0.00000820,0.00001958,0.00000722,-0.00001051,-0.00000
 687,-0.00001330,-0.00000333,0.00001050,0.00000148,-0.00000246,0.000016
 00,-0.00001528,0.00000225,0.00000823,-0.00004820,-0.00001932,0.0000798
 3,-0.00001222,-0.00004313,-0.00006887,0.00003133,0.00004438,-0.0001733
 1,0.00001310,0.00014001,0.00043723,-0.00029355,0.00052316,0.00040158,0
 .00147294,0.00233210,-0.00065563,0.13249993,0.23348882,0.00009684,-0.0
 0007971,-0.00010192,-0.00015155,0.00010376,0.00042706,-0.00000658,-0.0
 0004410,-0.00008801,0.00009011,0.00001357,-0.00000550,-0.00017359,0.00
 006585,0.00003721,0.00007284,-0.00015006,0.00002387,-0.00006042,0.0000
 7017,-0.00000819,-0.00001001,0.00004950,-0.00002920,-0.00000869,-0.000
 01828,0.00004842,0.00013274,-0.00044973,-0.00003817,0.00288663,-0.0013
 4140,-0.00406532,0.01609993,0.02209486,0.00164270,-0.01374946,-0.01701
 206,-0.05196000,-0.00003017,0.00129095,-0.00071975,0.00016962,-0.00034
 938,0.00061017,-0.00001234,-0.00000901,0.00000732,-0.00000801,-0.00002
 380,0.00000593,-0.00002453,0.00002746,0.00000517,-0.00000234,0.0000019
 7,0.00000259,0.00001609,-0.00000307,0.00000155,0.00000376,0.00000468,-
 0.00000408,-0.00000333,0.00000299,-0.00000645,-0.00000593,-0.00000161,
 0.00000707,-0.00005172,0.00004054,-0.00001392,0.00028359,0.00007575,0.
 00022139,0.00099592,0.00127374,0.00009369,-0.00083022,0.00028514,0.000
 97494,-0.00067674,-0.00038698,0.00084657,-0.01734322,-0.02396563,-0.00
 211416,0.01177478,0.01810807,0.05378756,0.00104297,0.00071674,-0.00039
 054,-0.00091257,0.00080229,-0.00017738,0.00000043,0.00001941,0.0001283
 2,-0.00011939,0.00013696,-0.00000761,-0.00046009,0.00027521,0.00115924
 ,0.00010111,-0.00038621,-0.00048690,-0.00026463,0.00007079,0.00016220,
 -0.00003677,0.00001527,0.00025670,0.00005546,0.00002611,-0.00009853,-0
 .00098609,-0.00326335,-0.00183658,0.00060385,-0.00004654,-0.00020760,-
 0.00075261,0.00356926,-0.00148996,-0.01175941,0.00036434,0.01370488,-0
 .15276068,0.00090372,0.12838883,-0.01321913,-0.00180613,0.01531161,0.0
 0005266,-0.00002536,-0.00002990,-0.00001683,0.00002912,-0.00002468,0.0
 0003105,-0.00005250,-0.00000890,0.00001757,-0.00002052,-0.00000243,-0.
 00000458,0.00003080,-0.00003003,-0.00001604,-0.00000626,0.00000809,-0.
 00000077,0.00000010,0.00001967,-0.00000895,-0.00000241,0.00001013,0.00
 008985,-0.00003750,0.00020749,-0.00006968,-0.00000456,-0.00003082,-0.0
 0001929,0.00002104,0.00002863,0.00007968,0.00003078,0.00024109,-0.0005
 9158,-0.00004722,0.00093433,0.00025129,-0.00064845,-0.00023147,0.00074
 547,-0.00001302,-0.00024896,0.16623181,0.00144597,-0.00016796,-0.00045
 309,-0.00200376,0.00064242,0.00086413,0.00007649,0.00014371,-0.0000720
 9,-0.00007060,0.00031731,0.00009428,-0.00132068,0.00030369,0.00152205,
 0.00018399,-0.00071589,-0.00069429,-0.00041227,0.00019212,0.00022209,-
 0.00004392,0.00006431,0.00033383,0.00006995,0.00001268,-0.00009699,-0.
 00206162,-0.00518096,-0.00151365,0.00003183,-0.00051310,-0.00009988,0.
 00264746,-0.00531586,0.00169566,0.01814687,0.00027945,-0.02364784,0.00
 152899,-0.04779919,-0.00360005,-0.01732298,-0.00043291,0.02291689,0.00
 006253,0.00001548,-0.00004518,0.00000058,0.00002437,0.00002557,0.00007
 000,-0.00003008,-0.00005183,0.00003690,-0.00002388,-0.00000259,-0.0000
 2777,-0.00002034,-0.00004846,-0.00002032,0.00000007,0.00001015,-0.0000
 0314,-0.00000098,0.00002220,-0.00002244,-0.00000577,0.00001885,0.00024
 199,-0.00001249,-0.00016716,0.00000276,0.00012774,0.00001058,0.0000057
 1,0.00020079,0.00000810,-0.00029136,-0.00001841,0.00016663,0.00152270,
 0.00003217,-0.00128532,-0.00058180,0.00117442,0.00044838,-0.00086204,0
 .00084687,-0.00023941,-0.00129181,0.05497773,-0.00139619,-0.00127842,0
 .00055021,0.00225039,-0.00029216,0.00017333,-0.00036739,0.00011212,-0.
 00016057,0.00005463,-0.00009830,-0.00006940,0.00011761,-0.00025326,0.0
 0017826,-0.00007595,-0.00001682,0.00010735,0.00004930,0.00001211,-0.00
 004076,0.00002869,0.00003501,-0.00004949,-0.00002401,-0.00001209,0.000
 03714,-0.00002657,-0.00007135,0.00069294,-0.00023918,0.00003464,-0.000
 00772,-0.00025948,-0.00019935,0.00095357,-0.00269767,0.00017211,0.0017
 9718,0.12845609,-0.00188681,-0.20940300,-0.00262604,0.00043014,0.00158
 149,0.00001645,0.00008998,-0.00000202,-0.00006341,-0.00008481,-0.00002
 196,-0.00003204,0.00002655,0.00003543,-0.00000729,-0.00000310,0.000013
 22,0.00005952,0.00008857,-0.00000312,0.00000787,0.00000501,-0.00000172
 ,-0.00000213,-0.00000321,-0.00000227,-0.00000036,0.00000012,-0.0000021
 9,-0.00019606,-0.00007874,0.00048258,0.00003971,0.00001112,-0.00000455
 ,0.00002192,-0.00000450,-0.00004103,-0.00021743,0.00012241,0.00047192,
 0.00021200,0.00017452,0.00014126,0.00017814,-0.00046954,0.00080366,0.0
 0007522,-0.00051390,-0.00004106,-0.14066427,0.00355020,0.22298998,0.00
 087127,0.00023120,0.00018229,-0.00075630,0.00117892,0.00029530,-0.0000
 3053,-0.00017263,-0.00006900,0.00005925,0.00000241,-0.00010954,0.00009
 179,-0.00012313,0.00022046,-0.00003783,-0.00002275,-0.00006417,0.00004
 059,-0.00001352,0.00002938,0.00003629,0.00003478,0.00010022,-0.0000068
 6,-0.00000036,0.00001120,0.00052819,0.00070057,-0.00171572,-0.00020676
 ,0.00000373,0.00027787,0.00037845,-0.00077744,-0.00130749,-0.01071384,
 0.00120277,-0.01510689,-0.12853218,0.00252289,-0.11663991,-0.01211552,
 -0.00188854,-0.01649560,-0.00000208,-0.00005642,0.00005681,0.00003493,
 0.00004420,0.00006441,-0.00001647,0.00001344,0.00003224,-0.00000195,-0
 .00003130,0.00003916,0.00016254,0.00014385,0.00010378,0.00000488,0.000
 00483,-0.00000002,-0.00000370,-0.00000510,0.00000995,-0.00000388,-0.00
 000091,-0.00000037,-0.00016397,-0.00017412,0.00087288,0.00025455,0.000
 00977,0.00008324,-0.00006863,0.00000771,0.00004205,-0.00014536,0.00016
 583,0.00083373,0.00037077,-0.00000287,0.00029255,-0.00114377,0.0030693
 1,0.00014802,0.00086835,-0.00015997,0.00044462,0.01238282,-0.00016692,
 0.01720992,0.13955764,0.00136891,-0.00008169,0.00042470,-0.00221423,0.
 00118337,-0.00090237,0.00002529,-0.00006011,-0.00000521,0.00001801,0.0
 0009171,-0.00003435,0.00005970,-0.00009602,-0.00001767,0.00008016,-0.0
 0003994,-0.00000341,-0.00001810,0.00000280,0.00001784,-0.00001843,0.00
 000499,0.00009107,0.00001265,0.00000218,-0.00000382,0.00077759,0.00096
 992,-0.00112665,-0.00000242,-0.00018879,0.00001328,-0.00096367,0.00103
 740,0.00089657,0.01695972,-0.00204204,0.02526202,0.00274946,-0.0479795
 6,0.00568801,-0.01607419,-0.00124507,-0.02415005,0.00004409,-0.0000773
 0,0.00006748,0.00014284,0.00010206,0.00011634,0.00002153,-0.00001535,-
 0.00000464,-0.00001543,-0.00002798,0.00004206,0.00013762,0.00007322,0.
 00013062,-0.00000219,-0.00000042,0.00000125,-0.00000397,0.00000117,0.0
 0000691,-0.00000146,-0.00000016,0.00000289,0.00003639,0.00012925,0.000
 62815,-0.00001561,-0.00014282,0.00000480,-0.00000746,0.00013354,-0.000
 00913,-0.00003781,0.00015626,-0.00078912,-0.00045213,-0.00003154,-0.00
 007976,0.00401800,-0.00458289,-0.00027162,-0.00079322,0.00109578,0.000
 18291,0.00001314,-0.00018748,-0.00012046,-0.00258813,0.05659982,0.0014
 5454,0.00102606,0.00073848,-0.00239416,0.00060466,0.00011151,0.0003329
 9,-0.00018914,-0.00022646,0.00001342,0.00008718,-0.00000851,0.00007606
 ,0.00002363,0.00036216,0.00000453,-0.00006846,-0.00011855,-0.00002871,
 0.00000539,0.00003967,-0.00000697,-0.00001293,0.00009612,0.00000886,0.
 00000772,-0.00004216,0.00051185,0.00013032,0.00051680,-0.00000275,0.00
 004895,0.00009832,0.00047382,-0.00021145,0.00074270,0.00036446,0.00064
 980,-0.00040641,-0.11635510,0.00426360,-0.22635117,-0.00013841,-0.0013
 1682,-0.00116468,-0.00003308,-0.00009468,0.00000665,0.00004204,0.00003
 567,0.00002910,0.00003801,-0.00000774,-0.00001389,-0.00000783,-0.00001
 370,0.00002443,0.00011193,0.00011244,-0.00007777,-0.00000605,-0.000002
 07,0.00000457,0.00000029,-0.00000046,0.00000860,-0.00000164,-0.0000010
 2,0.00000224,-0.00028570,0.00007417,0.00054850,0.00007022,-0.00000136,
 -0.00013087,-0.00003471,-0.00001311,-0.00000195,-0.00039282,-0.0000512
 0,0.00052644,-0.00004472,0.00005832,0.00022203,0.00043581,0.00012498,0
 .00136616,0.00003039,0.00059180,0.00025766,-0.01446927,0.00043809,-0.0
 2191790,0.13018517,-0.00602635,0.24365131,-0.00121741,0.00363736,0.002
 55809,-0.01336800,-0.00049060,-0.01794665,0.00032998,-0.00029006,0.001
 01850,-0.00005795,-0.00031382,0.00001001,0.00134006,0.00047102,0.00039
 676,0.00027317,0.00041142,0.00036028,0.00003924,-0.00004729,-0.0001446
 8,-0.00019753,-0.00013109,-0.00002000,-0.00000457,-0.00007220,-0.00007
 416,0.00898050,-0.00100018,0.02123469,0.00149260,-0.00032765,0.0002341
 5,-0.00003740,0.00000192,0.00006433,0.00051621,0.00118446,0.00021685,-
 0.01136967,-0.00116650,-0.01675335,-0.10961686,0.00104420,-0.11212050,
 -0.00006300,-0.00010232,0.00043498,0.00070476,0.00040597,0.00036405,-0
 .00002866,-0.00001549,0.00002636,-0.00011465,0.00004408,0.00003938,-0.
 00012956,0.00006254,-0.00027333,-0.00001912,-0.00000191,0.00002337,0.0
 0000327,0.00000016,-0.00000584,-0.00000693,0.00000687,0.00000287,-0.00
 264092,0.00006462,0.00342040,-0.00008386,-0.00013450,-0.00035835,0.000
 22359,-0.00035119,-0.00016264,-0.00016527,-0.00000209,0.00000674,0.000
 04990,0.00001842,-0.00004337,0.00067839,-0.00048575,0.00030271,-0.0000
 0411,0.00012002,0.00033033,0.00031305,0.00042869,0.00011800,-0.0016926
 5,-0.00325664,0.00004756,0.12587339,0.00301634,-0.00339787,-0.00350695
 ,0.01445215,0.00338617,0.02635283,-0.00152889,-0.00058618,-0.00300109,
 0.00042624,0.00023793,-0.00016932,0.00040486,0.00018693,0.00105678,-0.
 00004848,0.00002992,0.00007730,0.00004551,-0.00002691,-0.00006121,0.00
 001495,-0.00001080,-0.00007321,-0.00002490,-0.00000370,0.00001085,-0.0
 0097006,0.00047874,0.00008098,-0.00060193,0.00007521,-0.00105207,0.000
 06550,-0.00020630,0.00011164,-0.00054300,0.00170368,-0.00118125,-0.015
 78154,-0.00146002,-0.02417868,0.00300614,-0.05075976,0.00610344,0.0000
 4436,0.00047434,-0.00032365,-0.00022883,-0.00169645,0.00010818,0.00003
 276,-0.00003524,-0.00001998,0.00000039,0.00011002,-0.00004919,-0.00025
 861,0.00007685,0.00000781,0.00000337,-0.00000065,0.00000023,0.00000177
 ,-0.00000134,-0.00000693,0.00000524,0.00000108,-0.00000406,-0.00003241
 ,0.00060707,-0.00030734,0.00016845,0.00016828,-0.00002306,-0.00001220,
 -0.00002138,0.00009443,-0.00000478,0.00004623,0.00023296,0.00008797,-0
 .00003106,-0.00004337,0.00046230,-0.00035477,0.00063103,0.00003514,0.0
 0029735,0.00038233,0.00062676,0.00106996,0.00052221,-0.00315209,-0.004
 78432,-0.00027229,0.00028752,0.05442698,0.00055291,0.00049107,-0.00087
 624,-0.00096982,-0.00062222,-0.00008858,-0.00061549,-0.00024209,-0.000
 55626,0.00036551,0.00014565,-0.00011728,-0.00174153,-0.00074485,0.0003
 5830,-0.00002537,-0.00026258,-0.00032668,0.00016808,-0.00003001,0.0001
 6009,0.00019884,0.00015473,0.00036230,-0.00000720,0.00005591,0.0001480
 5,-0.01101439,0.00085938,-0.02823828,-0.00193146,0.00075904,0.00106422
 ,0.00018220,-0.00025357,0.00002237,0.00000402,0.00035925,0.00005779,-0
 .00081820,-0.00019244,-0.00074862,-0.10792003,0.00164496,-0.21491280,0
 .00006807,0.00016279,0.00027246,0.00034094,0.00001794,0.00061643,-0.00
 000736,0.00004362,0.00000826,0.00000329,-0.00018268,0.00014475,0.00089
 104,0.00068065,0.00054637,0.00003029,0.00001127,-0.00002565,-0.0000169
 4,-0.00000648,0.00002648,0.00000174,-0.00000651,-0.00000389,0.00419432
 ,-0.00007868,-0.00308800,0.00088558,-0.00074499,0.00057353,0.00015341,
 0.00032629,0.00045791,0.00002041,0.00021761,0.00008110,0.00000319,-0.0
 0007304,-0.00001824,0.00029364,-0.00050606,0.00016560,0.00016974,-0.00
 012249,0.00019485,-0.00012538,-0.00032983,0.00075925,-0.00002652,-0.00
 003228,0.00110689,0.11669247,-0.00149936,0.24187353\\0.00004491,-0.000
 01251,0.00003521,-0.00007617,0.00001089,0.00004273,0.00002527,-0.00002
 735,-0.00006726,-0.00004696,0.00000701,0.00003673,-0.00000770,-0.00000
 666,-0.00000070,0.00006097,-0.00000404,-0.00001914,-0.00006086,0.00001
 009,-0.00001195,0.00000850,0.00000853,0.00000904,-0.00002594,-0.000003
 08,0.00000284,-0.00003269,0.00001660,0.00005829,-0.00001006,-0.0000125
 4,-0.00000811,0.00000361,0.00002800,0.00001553,0.00002795,-0.00000833,
 -0.00002747,0.00001304,-0.00000660,0.00001610,0.00003019,-0.00001960,-
 0.00005362,-0.00000222,0.00000643,0.00000648,-0.00000975,-0.00000098,0
 .00000709,0.00001159,0.00001129,-0.00000441,0.00000254,0.00001659,-0.0
 0000465,0.00001080,-0.00000609,0.00001844,0.00002510,0.00003063,-0.000
 00434,-0.00000384,-0.00000380,-0.00003031,0.00002875,-0.00003558,-0.00
 000311,-0.00000690,0.00000630,0.00000060,0.00000536,-0.00000438,0.0000
 0391,0.00001154,0.00000625,-0.00001181,0.00000360,-0.00000197,-0.00000
 581,-0.00000271,-0.00000676,-0.00000437,-0.00000148,-0.00001027,0.0000
 0263,-0.00000466,-0.00000465,0.00000123,-0.00000938,0.00000184,0.00000
 041,-0.00001242,0.00000807,-0.00000771,0.00000002,0.00000668,0.0000075
 2\\\@


 THE MORE ACCURATE THE CALCULATIONS BECOME, THE MORE THE CONCEPTS
 TEND TO VANISH INTO THIN AIR.
     -- R.S. MULLIKEN, J.C.P. 43,S2(1965)
 Job cpu time:       0 days  0 hours  4 minutes 23.4 seconds.
 Elapsed time:       0 days  0 hours  4 minutes 30.1 seconds.
 File lengths (MBytes):  RWF=    272 Int=      0 D2E=      0 Chk=     16 Scr=      1
 Normal termination of Gaussian 16 at Sat Feb 24 00:37:15 2024.
