 Entering Gaussian System, Link 0=g16
 Input=/Volumes/SSD-PMU3/b3lyp_6-31gd_freq/JPFUEZPXKCRLTQ-OPRDCNLKSA-N_calculating/gaussianinput1.gjf
 Output=/Volumes/SSD-PMU3/b3lyp_6-31gd_freq/JPFUEZPXKCRLTQ-OPRDCNLKSA-N_calculating/gaussianinput1.log
 Initial command:
 /Applications/g16/l1.exe "/Users/macmini_m1_2022/PycharmProjects/sphere_model/sphere_model_lib/Gau-81875.inp" -scrdir="/Users/macmini_m1_2022/PycharmProjects/sphere_model/sphere_model_lib/"
 Entering Link 1 = /Applications/g16/l1.exe PID=     81876.
  
 Copyright (c) 1988,1990,1992,1993,1995,1998,2003,2009,2016,
            Gaussian, Inc.  All Rights Reserved.
  
 This is part of the Gaussian(R) 16 program.  It is based on
 the Gaussian(R) 09 system (copyright 2009, Gaussian, Inc.),
 the Gaussian(R) 03 system (copyright 2003, Gaussian, Inc.),
 the Gaussian(R) 98 system (copyright 1998, Gaussian, Inc.),
 the Gaussian(R) 94 system (copyright 1995, Gaussian, Inc.),
 the Gaussian 92(TM) system (copyright 1992, Gaussian, Inc.),
 the Gaussian 90(TM) system (copyright 1990, Gaussian, Inc.),
 the Gaussian 88(TM) system (copyright 1988, Gaussian, Inc.),
 the Gaussian 86(TM) system (copyright 1986, Carnegie Mellon
 University), and the Gaussian 82(TM) system (copyright 1983,
 Carnegie Mellon University). Gaussian is a federally registered
 trademark of Gaussian, Inc.
  
 This software contains proprietary and confidential information,
 including trade secrets, belonging to Gaussian, Inc.
  
 This software is provided under written license and may be
 used, copied, transmitted, or stored only in accord with that
 written license.
  
 The following legend is applicable only to US Government
 contracts under FAR:
  
                    RESTRICTED RIGHTS LEGEND
  
 Use, reproduction and disclosure by the US Government is
 subject to restrictions as set forth in subparagraphs (a)
 and (c) of the Commercial Computer Software - Restricted
 Rights clause in FAR 52.227-19.
  
 Gaussian, Inc.
 340 Quinnipiac St., Bldg. 40, Wallingford CT 06492
  
  
 ---------------------------------------------------------------
 Warning -- This program may not be used in any manner that
 competes with the business of Gaussian, Inc. or will provide
 assistance to any competitor of Gaussian, Inc.  The licensee
 of this program is prohibited from giving any competitor of
 Gaussian, Inc. access to this program.  By using this program,
 the user acknowledges that Gaussian, Inc. is engaged in the
 business of creating and licensing software in the field of
 computational chemistry and represents and warrants to the
 licensee that it is not a competitor of Gaussian, Inc. and that
 it will not use this program in any manner prohibited above.
 ---------------------------------------------------------------
  

 Cite this work as:
 Gaussian 16, Revision A.03,
 M. J. Frisch, G. W. Trucks, H. B. Schlegel, G. E. Scuseria, 
 M. A. Robb, J. R. Cheeseman, G. Scalmani, V. Barone, 
 G. A. Petersson, H. Nakatsuji, X. Li, M. Caricato, A. V. Marenich, 
 J. Bloino, B. G. Janesko, R. Gomperts, B. Mennucci, H. P. Hratchian, 
 J. V. Ortiz, A. F. Izmaylov, J. L. Sonnenberg, D. Williams-Young, 
 F. Ding, F. Lipparini, F. Egidi, J. Goings, B. Peng, A. Petrone, 
 T. Henderson, D. Ranasinghe, V. G. Zakrzewski, J. Gao, N. Rega, 
 G. Zheng, W. Liang, M. Hada, M. Ehara, K. Toyota, R. Fukuda, 
 J. Hasegawa, M. Ishida, T. Nakajima, Y. Honda, O. Kitao, H. Nakai, 
 T. Vreven, K. Throssell, J. A. Montgomery, Jr., J. E. Peralta, 
 F. Ogliaro, M. J. Bearpark, J. J. Heyd, E. N. Brothers, K. N. Kudin, 
 V. N. Staroverov, T. A. Keith, R. Kobayashi, J. Normand, 
 K. Raghavachari, A. P. Rendell, J. C. Burant, S. S. Iyengar, 
 J. Tomasi, M. Cossi, J. M. Millam, M. Klene, C. Adamo, R. Cammi, 
 J. W. Ochterski, R. L. Martin, K. Morokuma, O. Farkas, 
 J. B. Foresman, and D. J. Fox, Gaussian, Inc., Wallingford CT, 2016.
 
 ******************************************
 Gaussian 16:  EM64M-G16RevA.03 25-Dec-2016
                24-Feb-2024 
 ******************************************
 %nprocshared=10
 Will use up to   10 processors via shared memory.
 %mem=12GB
 %chk= 1.chk
 ---------------------
 # freq b3lyp/6-31g(d)
 ---------------------
 1/10=4,30=1,38=1/1,3;
 2/12=2,17=6,18=5,40=1/2;
 3/5=1,6=6,7=1,11=2,25=1,30=1,71=2,74=-5,140=1/1,2,3;
 4//1;
 5/5=2,38=5,98=1/2;
 8/6=4,10=90,11=11/1;
 11/6=1,8=1,9=11,15=111,16=1/1,2,10;
 10/6=1/2;
 6/7=2,8=2,9=2,10=2,28=1/1;
 7/8=1,10=1,25=1/1,2,3,16;
 1/10=4,30=1/3;
 99//99;
 ---------
 good luck
 ---------
 Symbolic Z-matrix:
 Charge =  0 Multiplicity = 1
 O                     1.21683   0.        0. 
 C                     0.        0.        0. 
 C                    -0.81139  -1.28822   0.00241 
 C                    -1.85948  -1.28429   1.1295 
 C                    -2.74204  -0.01426   1.08598 
 C                    -3.71468  -0.0772    2.25338 
 O                    -3.4357    0.18122   3.40555 
 O                    -4.93545  -0.50624   1.86097 
 C                    -5.90471  -0.6505    2.91385 
 C                    -1.88177   1.26717   1.14532 
 C                    -2.72767   2.55368   1.09691 
 C                    -1.85816   3.81907   1.13957 
 C                    -0.80733   3.82099   0.02057 
 C                     0.04571   2.54598   0.05199 
 C                    -0.82649   1.28437   0.00241 
 H                    -1.32266  -1.37322  -0.96826 
 H                    -0.12512  -2.13498   0.09458 
 H                    -1.35514  -1.32533   2.10309 
 H                    -2.4876   -2.17997   1.05667 
 H                    -3.32617  -0.021     0.1568 
 H                    -6.8137   -1.00561   2.42753 
 H                    -6.08111   0.30933   3.40648 
 H                    -5.55854  -1.3721    3.65862 
 H                    -1.3456    1.25239   2.10541 
 H                    -3.32726   2.55292   0.17334 
 H                    -3.43361   2.56029   1.93589 
 H                    -2.49425   4.71036   1.06928 
 H                    -1.35133   3.87319   2.11384 
 H                    -0.16321   4.70514   0.10525 
 H                    -1.31444   3.89769  -0.95305 
 H                     0.75858   2.53015  -0.77935 
 H                     0.64989   2.52201   0.96856 
 H                    -1.39141   1.28128  -0.94752 
 

 GradGradGradGradGradGradGradGradGradGradGradGradGradGradGradGradGradGrad
 Berny optimization.
 Initialization pass.
 Trust Radius=3.00D-01 FncErr=1.00D-07 GrdErr=1.00D-07 EigMax=2.50D+02 EigMin=1.00D-04
 Number of steps in this run=      2 maximum allowed number of steps=      2.
 GradGradGradGradGradGradGradGradGradGradGradGradGradGradGradGradGradGrad

                          Input orientation:                          
 ---------------------------------------------------------------------
 Center     Atomic      Atomic             Coordinates (Angstroms)
 Number     Number       Type             X           Y           Z
 ---------------------------------------------------------------------
      1          8           0        1.216830    0.000000    0.000000
      2          6           0        0.000000    0.000000    0.000000
      3          6           0       -0.811394   -1.288215    0.002410
      4          6           0       -1.859477   -1.284287    1.129504
      5          6           0       -2.742040   -0.014264    1.085980
      6          6           0       -3.714684   -0.077204    2.253382
      7          8           0       -3.435702    0.181222    3.405547
      8          8           0       -4.935450   -0.506241    1.860974
      9          6           0       -5.904708   -0.650498    2.913849
     10          6           0       -1.881769    1.267174    1.145318
     11          6           0       -2.727666    2.553683    1.096909
     12          6           0       -1.858159    3.819066    1.139574
     13          6           0       -0.807334    3.820994    0.020571
     14          6           0        0.045713    2.545978    0.051994
     15          6           0       -0.826488    1.284371    0.002410
     16          1           0       -1.322664   -1.373217   -0.968260
     17          1           0       -0.125122   -2.134984    0.094581
     18          1           0       -1.355138   -1.325327    2.103085
     19          1           0       -2.487600   -2.179968    1.056669
     20          1           0       -3.326168   -0.021001    0.156798
     21          1           0       -6.813699   -1.005611    2.427533
     22          1           0       -6.081108    0.309334    3.406476
     23          1           0       -5.558542   -1.372103    3.658616
     24          1           0       -1.345598    1.252386    2.105410
     25          1           0       -3.327264    2.552916    0.173339
     26          1           0       -3.433606    2.560289    1.935892
     27          1           0       -2.494246    4.710359    1.069278
     28          1           0       -1.351333    3.873186    2.113839
     29          1           0       -0.163206    4.705135    0.105251
     30          1           0       -1.314441    3.897687   -0.953052
     31          1           0        0.758577    2.530154   -0.779351
     32          1           0        0.649893    2.522014    0.968559
     33          1           0       -1.391405    1.281275   -0.947519
 ---------------------------------------------------------------------
                    Distance matrix (angstroms):
                    1          2          3          4          5
     1  O    0.000000
     2  C    1.216830   0.000000
     3  C    2.402748   1.522453   0.000000
     4  C    3.519778   2.526426   1.539102   0.000000
     5  C    4.105144   2.949295   2.554304   1.547181   0.000000
     6  C    5.422501   4.345408   3.868141   2.482326   1.520798
     7  O    5.768591   4.840934   4.541759   3.132503   2.428945
     8  O    6.447484   5.298884   4.590597   3.256073   2.377752
     9  C    7.722044   6.616588   5.901272   4.466483   3.707879
    10  C    3.538191   2.541365   2.996991   2.551607   1.544562
    11  C    4.825304   3.894184   4.430599   3.935077   2.568010
    12  C    5.033831   4.397346   5.336026   5.103363   3.934277
    13  C    4.324079   3.905407   5.109243   5.329224   4.425764
    14  C    2.802895   2.546919   3.929138   4.411542   3.923714
    15  C    2.413455   1.527317   2.572630   2.989216   2.555370
    16  H    3.045042   2.138385   1.100374   2.167185   2.842760
    17  H    2.523477   2.140738   1.093838   2.191515   3.511208
    18  H    3.576937   2.831229   2.170224   1.097225   2.162611
    19  H    4.426241   3.472314   2.171716   1.096398   2.180796
    20  H    4.545752   3.329928   2.820240   2.166387   1.097556
    21  H    8.449471   7.302785   6.479873   5.129021   4.400107
    22  H    8.059756   6.977080   6.473771   5.054344   4.079068
    23  H    7.821368   6.794522   5.992520   4.481875   4.049057
    24  H    3.545033   2.794970   3.341053   2.766076   2.143290
    25  H    5.214999   4.197394   4.594900   4.218149   2.786721
    26  H    5.650603   4.700256   5.042354   4.231892   2.798024
    27  H    6.091217   5.436184   6.320846   6.028461   4.731146
    28  H    5.105423   4.614757   5.602654   5.275097   4.254742
    29  H    4.904475   4.709141   6.029176   6.308693   5.466712
    30  H    4.744218   4.222325   5.297126   5.611324   4.636707
    31  H    2.686831   2.753998   4.201893   5.004787   4.712520
    32  H    2.760449   2.778673   4.193644   4.561882   4.236945
    33  H    3.056525   2.115530   2.800189   3.333950   2.763649
                    6          7          8          9         10
     6  C    0.000000
     7  O    1.213301   0.000000
     8  O    1.352156   2.259990   0.000000
     9  C    2.358196   2.651323   1.438338   0.000000
    10  C    2.528781   2.950023   3.603073   4.794706   0.000000
    11  C    3.038618   3.385217   3.849836   4.864323   1.540451
    12  C    4.457373   4.566967   5.357090   6.284872   2.552008
    13  C    5.351082   5.622661   6.257267   7.372145   2.990228
    14  C    5.086038   5.381323   6.115589   7.335883   2.558493
    15  C    3.906717   4.427898   4.852228   6.165104   1.555684
    16  H    4.216680   5.100137   4.669950   6.048820   3.428042
    17  H    4.666887   5.223720   5.377007   6.599666   3.970458
    18  H    2.673548   2.880077   3.680782   4.670259   2.813489
    19  H    2.712835   3.462852   3.072497   4.179118   3.501097
    20  H    2.133019   3.256879   2.393630   3.827070   2.173213
    21  H    3.239778   3.711596   2.024396   1.090355   5.579746
    22  H    2.660639   2.648506   2.089562   1.093195   4.864642
    23  H    2.655421   2.642596   2.090329   1.093262   5.176979
    24  H    2.720712   2.684452   4.004941   5.005999   1.099761
    25  H    3.375530   4.010469   3.846143   4.941202   2.165025
    26  H    2.671362   2.796399   3.415370   4.167961   2.169182
    27  H    5.080584   5.182429   5.813706   6.616077   3.498061
    28  H    4.605484   4.432122   5.664734   6.468149   2.830317
    29  H    6.332316   6.485906   7.281162   8.338817   3.981805
    30  H    5.642884   6.108129   6.358068   7.530568   3.412421
    31  H    6.000487   6.373604   6.972299   8.255643   3.502984
    32  H    5.239870   5.301915   6.415823   7.537359   2.831109
    33  H    4.181968   4.933402   4.862417   6.245944   2.149563
                   11         12         13         14         15
    11  C    0.000000
    12  C    1.535922   0.000000
    13  C    2.540129   1.535059   0.000000
    14  C    2.963703   2.535412   1.534387   0.000000
    15  C    2.534474   2.963472   2.536760   1.534551   0.000000
    16  H    4.653976   5.629345   5.312549   4.274747   2.872484
    17  H    5.455410   6.288572   5.995379   4.684272   3.491762
    18  H    4.235911   5.257962   5.578671   4.599604   3.391582
    19  H    4.739905   6.032535   6.317305   5.455420   3.984018
    20  H    2.805532   4.226939   4.596086   4.239097   2.824222
    21  H    5.579857   7.035178   8.072546   8.081368   6.853607
    22  H    4.649384   5.940569   7.183927   7.334375   6.336355
    23  H    5.476130   6.854680   7.923232   7.730896   6.543472
    24  H    2.149549   2.789875   3.351720   2.797435   2.166358
    25  H    1.101136   2.166798   2.825138   3.375166   2.809324
    26  H    1.096489   2.168104   3.486422   3.956632   3.487604
    27  H    2.169447   1.097247   2.176334   3.488668   3.956895
    28  H    2.160909   1.099543   2.163430   2.822131   3.381650
    29  H    3.491216   2.174352   1.097168   2.169895   3.485993
    30  H    2.829468   2.163537   1.100446   2.165007   2.824965
    31  H    3.959141   3.491543   2.181335   1.095244   2.162304
    32  H    3.380145   2.828766   2.170148   1.098043   2.155204
    33  H    2.753961   3.318765   2.780020   2.159585   1.105218
                   16         17         18         19         20
    16  H    0.000000
    17  H    1.773140   0.000000
    18  H    3.071890   2.490496   0.000000
    19  H    2.471490   2.551262   1.762915   0.000000
    20  H    2.666134   3.836599   3.061741   2.484774   0.000000
    21  H    6.466685   7.173229   5.477533   4.687592   4.276513
    22  H    6.679228   7.239966   5.167759   4.963015   4.273081
    23  H    6.273009   6.542659   4.482239   4.105296   4.367116
    24  H    4.042495   4.123987   2.577732   3.766309   3.056348
    25  H    4.553701   5.677704   4.759619   4.887279   2.573970
    26  H    5.325659   6.031756   4.409761   4.913044   3.136842
    27  H    6.521814   7.309002   6.228630   6.890342   4.889834
    28  H    6.084809   6.455935   5.198526   6.248951   4.784838
    29  H    6.280377   6.840233   6.463630   7.328891   5.687121
    30  H    5.270932   6.237398   6.051570   6.507931   4.542568
    31  H    4.427590   4.827856   5.257467   6.007819   4.906109
    32  H    4.776513   4.801262   4.484343   5.653341   4.789044
    33  H    2.655463   3.789495   4.012714   4.147121   2.580455
                   21         22         23         24         25
    21  H    0.000000
    22  H    1.795578   0.000000
    23  H    1.795912   1.778730   0.000000
    24  H    5.924731   5.000717   5.200893   0.000000
    25  H    5.468065   4.803175   5.703642   3.057986   0.000000
    26  H    4.937852   3.773418   4.790286   2.469640   1.765774
    27  H    7.292108   6.139796   7.286352   3.788211   2.480158
    28  H    7.330655   6.061578   6.899275   2.620820   3.068054
    29  H    9.068333   8.077296   8.869548   4.161750   3.827263
    30  H    8.106326   7.389376   8.188441   4.043857   2.669948
    31  H    8.951263   8.320726   8.650385   3.792373   4.195502
    32  H    8.383194   7.493048   7.806742   2.624189   4.055996
    33  H    6.783959   6.472654   6.754400   3.053409   2.573119
                   26         27         28         29         30
    26  H    0.000000
    27  H    2.501243   0.000000
    28  H    2.468041   1.760175   0.000000
    29  H    4.318232   2.522523   2.477541   0.000000
    30  H    3.824329   2.478345   3.067211   1.759920   0.000000
    31  H    4.994782   4.330310   3.824396   2.522449   2.489522
    32  H    4.196685   3.832050   2.672497   2.484441   3.073056
    33  H    3.757728   4.128238   4.011424   3.786768   2.617550
                   31         32         33
    31  H    0.000000
    32  H    1.751305   0.000000
    33  H    2.492068   3.062301   0.000000
 Stoichiometry    C12H18O3
 Framework group  C1[X(C12H18O3)]
 Deg. of freedom    93
 Full point group                 C1      NOp   1
 Largest Abelian subgroup         C1      NOp   1
 Largest concise Abelian subgroup C1      NOp   1
                         Standard orientation:                         
 ---------------------------------------------------------------------
 Center     Atomic      Atomic             Coordinates (Angstroms)
 Number     Number       Type             X           Y           Z
 ---------------------------------------------------------------------
      1          8           0       -2.762812    2.169801    0.549391
      2          6           0       -1.791717    1.705405   -0.018047
      3          6           0       -0.599443    2.562891   -0.419376
      4          6           0        0.720078    1.955022    0.088754
      5          6           0        0.869667    0.474990   -0.336567
      6          6           0        2.174541   -0.050788    0.241088
      7          8           0        2.338363   -0.387402    1.395191
      8          8           0        3.161085   -0.056690   -0.683586
      9          6           0        4.448321   -0.486713   -0.207222
     10          6           0       -0.332196   -0.368893    0.142032
     11          6           0       -0.220928   -1.848988   -0.270190
     12          6           0       -1.430557   -2.671772    0.197658
     13          6           0       -2.751257   -2.069632   -0.301923
     14          6           0       -2.880388   -0.594145    0.098834
     15          6           0       -1.673179    0.225443   -0.376316
     16          1           0       -0.573022    2.620768   -1.517909
     17          1           0       -0.750096    3.575571   -0.034324
     18          1           0        0.753637    2.008211    1.184175
     19          1           0        1.568058    2.540315   -0.286013
     20          1           0        0.939043    0.426605   -1.430859
     21          1           0        5.114463   -0.423607   -1.068121
     22          1           0        4.395866   -1.513289    0.164889
     23          1           0        4.796939    0.164425    0.598822
     24          1           0       -0.340922   -0.324904    1.240879
     25          1           0       -0.139311   -1.909706   -1.366617
     26          1           0        0.700500   -2.276480    0.142737
     27          1           0       -1.329337   -3.709620   -0.143777
     28          1           0       -1.438851   -2.704007    1.296697
     29          1           0       -3.602045   -2.640504    0.090558
     30          1           0       -2.797673   -2.156184   -1.397978
     31          1           0       -3.800166   -0.157040   -0.304288
     32          1           0       -2.958236   -0.507994    1.190721
     33          1           0       -1.629593    0.184850   -1.479927
 ---------------------------------------------------------------------
 Rotational constants (GHZ):           0.8819613           0.4322919           0.3158295
 Standard basis: 6-31G(d) (6D, 7F)
 There are   261 symmetry adapted cartesian basis functions of A   symmetry.
 There are   261 symmetry adapted basis functions of A   symmetry.
   261 basis functions,   492 primitive gaussians,   261 cartesian basis functions
    57 alpha electrons       57 beta electrons
       nuclear repulsion energy      1064.0927088844 Hartrees.
 NAtoms=   33 NActive=   33 NUniq=   33 SFac= 1.00D+00 NAtFMM=   60 NAOKFM=F Big=F
 Integral buffers will be    131072 words long.
 Raffenetti 2 integral format.
 Two-electron integral symmetry is turned on.
 One-electron integrals computed using PRISM.
 NBasis=   261 RedAO= T EigKep=  2.04D-03  NBF=   261
 NBsUse=   261 1.00D-06 EigRej= -1.00D+00 NBFU=   261
 ExpMin= 1.61D-01 ExpMax= 5.48D+03 ExpMxC= 8.25D+02 IAcc=3 IRadAn=         5 AccDes= 0.00D+00
 Harris functional with IExCor=  402 and IRadAn=       5 diagonalized for initial guess.
 HarFok:  IExCor=  402 AccDes= 0.00D+00 IRadAn=         5 IDoV= 1 UseB2=F ITyADJ=14
 ICtDFT=  3500011 ScaDFX=  1.000000  1.000000  1.000000  1.000000
 FoFCou: FMM=F IPFlag=           0 FMFlag=      100000 FMFlg1=           0
         NFxFlg=           0 DoJE=T BraDBF=F KetDBF=T FulRan=T
         wScrn=  0.000000 ICntrl=       500 IOpCl=  0 I1Cent=   200000004 NGrid=           0
         NMat0=    1 NMatS0=      1 NMatT0=    0 NMatD0=    1 NMtDS0=    0 NMtDT0=    0
 Petite list used in FoFCou.
 Requested convergence on RMS density matrix=1.00D-08 within 128 cycles.
 Requested convergence on MAX density matrix=1.00D-06.
 Requested convergence on             energy=1.00D-06.
 No special actions if energy rises.
 Integral accuracy reduced to 1.0D-05 until final iterations.
 Initial convergence to 1.0D-05 achieved.  Increase integral accuracy.
 SCF Done:  E(RB3LYP) =  -693.816780605     A.U. after   14 cycles
            NFock= 14  Conv=0.62D-08     -V/T= 2.0094
 DoSCS=F DFT=T ScalE2(SS,OS)=  1.000000  1.000000
 Range of M.O.s used for correlation:     1   261
 NBasis=   261 NAE=    57 NBE=    57 NFC=     0 NFV=     0
 NROrb=    261 NOA=    57 NOB=    57 NVA=   204 NVB=   204
 Symmetrizing basis deriv contribution to polar:
 IMax=3 JMax=2 DiffMx= 0.00D+00
 G2DrvN: will do    34 centers at a time, making    1 passes.
 Calling FoFCou, ICntrl=  3107 FMM=F I1Cent=   0 AccDes= 0.00D+00.
 End of G2Drv F.D. properties file   721 does not exist.
 End of G2Drv F.D. properties file   722 does not exist.
 End of G2Drv F.D. properties file   788 does not exist.
          IDoAtm=111111111111111111111111111111111
          Differentiating once with respect to electric field.
                with respect to dipole field.
          Differentiating once with respect to nuclear coordinates.
 Keep R1 ints in memory in canonical form, NReq=595457185.
          There are   102 degrees of freedom in the 1st order CPHF.  IDoFFX=6 NUNeed=     3.
     99 vectors produced by pass  0 Test12= 1.16D-14 1.00D-09 XBig12= 8.95D+01 2.49D+00.
 AX will form    99 AO Fock derivatives at one time.
     99 vectors produced by pass  1 Test12= 1.16D-14 1.00D-09 XBig12= 1.35D+01 9.20D-01.
     99 vectors produced by pass  2 Test12= 1.16D-14 1.00D-09 XBig12= 1.10D-01 3.24D-02.
     99 vectors produced by pass  3 Test12= 1.16D-14 1.00D-09 XBig12= 3.08D-04 2.26D-03.
     99 vectors produced by pass  4 Test12= 1.16D-14 1.00D-09 XBig12= 3.69D-07 5.42D-05.
     55 vectors produced by pass  5 Test12= 1.16D-14 1.00D-09 XBig12= 2.67D-10 1.47D-06.
      4 vectors produced by pass  6 Test12= 1.16D-14 1.00D-09 XBig12= 1.69D-13 3.61D-08.
 InvSVY:  IOpt=1 It=  1 EMax= 8.88D-15
 Solved reduced A of dimension   554 with   102 vectors.
 Isotropic polarizability for W=    0.000000      126.73 Bohr**3.
 End of Minotr F.D. properties file   721 does not exist.
 End of Minotr F.D. properties file   722 does not exist.
 End of Minotr F.D. properties file   788 does not exist.

 **********************************************************************

            Population analysis using the SCF density.

 **********************************************************************

 Orbital symmetries:
       Occupied  (A) (A) (A) (A) (A) (A) (A) (A) (A) (A) (A) (A)
                 (A) (A) (A) (A) (A) (A) (A) (A) (A) (A) (A) (A)
                 (A) (A) (A) (A) (A) (A) (A) (A) (A) (A) (A) (A)
                 (A) (A) (A) (A) (A) (A) (A) (A) (A) (A) (A) (A)
                 (A) (A) (A) (A) (A) (A) (A) (A) (A)
       Virtual   (A) (A) (A) (A) (A) (A) (A) (A) (A) (A) (A) (A)
                 (A) (A) (A) (A) (A) (A) (A) (A) (A) (A) (A) (A)
                 (A) (A) (A) (A) (A) (A) (A) (A) (A) (A) (A) (A)
                 (A) (A) (A) (A) (A) (A) (A) (A) (A) (A) (A) (A)
                 (A) (A) (A) (A) (A) (A) (A) (A) (A) (A) (A) (A)
                 (A) (A) (A) (A) (A) (A) (A) (A) (A) (A) (A) (A)
                 (A) (A) (A) (A) (A) (A) (A) (A) (A) (A) (A) (A)
                 (A) (A) (A) (A) (A) (A) (A) (A) (A) (A) (A) (A)
                 (A) (A) (A) (A) (A) (A) (A) (A) (A) (A) (A) (A)
                 (A) (A) (A) (A) (A) (A) (A) (A) (A) (A) (A) (A)
                 (A) (A) (A) (A) (A) (A) (A) (A) (A) (A) (A) (A)
                 (A) (A) (A) (A) (A) (A) (A) (A) (A) (A) (A) (A)
                 (A) (A) (A) (A) (A) (A) (A) (A) (A) (A) (A) (A)
                 (A) (A) (A) (A) (A) (A) (A) (A) (A) (A) (A) (A)
                 (A) (A) (A) (A) (A) (A) (A) (A) (A) (A) (A) (A)
                 (A) (A) (A) (A) (A) (A) (A) (A) (A) (A) (A) (A)
                 (A) (A) (A) (A) (A) (A) (A) (A) (A) (A) (A) (A)
 The electronic state is 1-A.
 Alpha  occ. eigenvalues --  -19.19852 -19.13950 -19.13676 -10.31630 -10.26992
 Alpha  occ. eigenvalues --  -10.24494 -10.20900 -10.20377 -10.20071 -10.19644
 Alpha  occ. eigenvalues --  -10.19565 -10.18429 -10.18097 -10.17987 -10.17781
 Alpha  occ. eigenvalues --   -1.10567  -1.03538  -1.01716  -0.85635  -0.81093
 Alpha  occ. eigenvalues --   -0.76749  -0.74621  -0.73939  -0.70641  -0.63085
 Alpha  occ. eigenvalues --   -0.62205  -0.60502  -0.56122  -0.55834  -0.53457
 Alpha  occ. eigenvalues --   -0.50926  -0.48729  -0.47904  -0.47294  -0.45984
 Alpha  occ. eigenvalues --   -0.45061  -0.44653  -0.44438  -0.42420  -0.42064
 Alpha  occ. eigenvalues --   -0.41029  -0.39760  -0.39203  -0.38140  -0.36834
 Alpha  occ. eigenvalues --   -0.36226  -0.35899  -0.35486  -0.34710  -0.33970
 Alpha  occ. eigenvalues --   -0.33477  -0.32176  -0.30700  -0.30605  -0.30108
 Alpha  occ. eigenvalues --   -0.27328  -0.23748
 Alpha virt. eigenvalues --   -0.01500   0.00604   0.08490   0.09208   0.09870
 Alpha virt. eigenvalues --    0.11056   0.12424   0.12818   0.13384   0.13897
 Alpha virt. eigenvalues --    0.14573   0.15321   0.15577   0.16052   0.16741
 Alpha virt. eigenvalues --    0.17273   0.17721   0.18038   0.18568   0.19088
 Alpha virt. eigenvalues --    0.19310   0.19853   0.21052   0.21988   0.23382
 Alpha virt. eigenvalues --    0.24455   0.25214   0.26506   0.27221   0.27930
 Alpha virt. eigenvalues --    0.29546   0.30130   0.34075   0.34979   0.36010
 Alpha virt. eigenvalues --    0.40215   0.49717   0.50204   0.51592   0.51988
 Alpha virt. eigenvalues --    0.52167   0.53780   0.54774   0.55266   0.55695
 Alpha virt. eigenvalues --    0.57011   0.58837   0.60358   0.61692   0.61990
 Alpha virt. eigenvalues --    0.63030   0.64421   0.65460   0.66822   0.69383
 Alpha virt. eigenvalues --    0.69611   0.70397   0.70939   0.72698   0.74221
 Alpha virt. eigenvalues --    0.75452   0.76599   0.77582   0.79229   0.80880
 Alpha virt. eigenvalues --    0.81770   0.82215   0.82843   0.84308   0.85063
 Alpha virt. eigenvalues --    0.85160   0.86274   0.86426   0.87323   0.87962
 Alpha virt. eigenvalues --    0.88958   0.89380   0.90721   0.91612   0.92158
 Alpha virt. eigenvalues --    0.92803   0.93730   0.94230   0.94966   0.95552
 Alpha virt. eigenvalues --    0.96027   0.97608   0.97710   1.01383   1.02225
 Alpha virt. eigenvalues --    1.04512   1.06347   1.10163   1.10339   1.11450
 Alpha virt. eigenvalues --    1.12747   1.15641   1.19204   1.19632   1.22075
 Alpha virt. eigenvalues --    1.23603   1.26854   1.32433   1.33998   1.35272
 Alpha virt. eigenvalues --    1.36751   1.41690   1.44618   1.48474   1.49307
 Alpha virt. eigenvalues --    1.50639   1.51400   1.55767   1.57175   1.62456
 Alpha virt. eigenvalues --    1.63793   1.66599   1.67598   1.69018   1.71769
 Alpha virt. eigenvalues --    1.72475   1.73662   1.74974   1.77080   1.78618
 Alpha virt. eigenvalues --    1.79893   1.80438   1.81711   1.84748   1.85520
 Alpha virt. eigenvalues --    1.88275   1.89917   1.90406   1.91748   1.92506
 Alpha virt. eigenvalues --    1.92734   1.94644   1.96168   1.96333   1.98051
 Alpha virt. eigenvalues --    1.99558   2.00551   2.01496   2.02454   2.03844
 Alpha virt. eigenvalues --    2.05358   2.07902   2.09843   2.10293   2.10432
 Alpha virt. eigenvalues --    2.12066   2.13794   2.18913   2.21392   2.23981
 Alpha virt. eigenvalues --    2.27128   2.28340   2.30712   2.31461   2.33017
 Alpha virt. eigenvalues --    2.33294   2.37741   2.38534   2.39307   2.41824
 Alpha virt. eigenvalues --    2.43424   2.45533   2.47057   2.49730   2.52613
 Alpha virt. eigenvalues --    2.55161   2.57640   2.61401   2.62262   2.63667
 Alpha virt. eigenvalues --    2.65595   2.67516   2.70824   2.73642   2.75013
 Alpha virt. eigenvalues --    2.79534   2.82788   2.85050   2.87417   2.95614
 Alpha virt. eigenvalues --    2.98917   3.02913   3.05243   3.15323   4.01433
 Alpha virt. eigenvalues --    4.02201   4.13408   4.19962   4.22688   4.24357
 Alpha virt. eigenvalues --    4.29765   4.32661   4.39869   4.41834   4.55316
 Alpha virt. eigenvalues --    4.57082   4.60343   4.66232   4.72778
          Condensed to atoms (all electrons):
               1          2          3          4          5          6
     1  O    8.003618   0.587360  -0.075068   0.001070   0.000186   0.000001
     2  C    0.587360   4.515000   0.345660  -0.029874  -0.012041   0.000155
     3  C   -0.075068   0.345660   5.290673   0.332769  -0.040028   0.003590
     4  C    0.001070  -0.029874   0.332769   5.064569   0.352019  -0.026323
     5  C    0.000186  -0.012041  -0.040028   0.352019   5.195926   0.338095
     6  C    0.000001   0.000155   0.003590  -0.026323   0.338095   4.382160
     7  O   -0.000000  -0.000017   0.000057  -0.003036  -0.078781   0.522571
     8  O    0.000000  -0.000003  -0.000052  -0.001259  -0.085168   0.254941
     9  C   -0.000000   0.000000   0.000005  -0.000216   0.007878  -0.020103
    10  C    0.000208  -0.018485  -0.009056  -0.029670   0.342362  -0.031426
    11  C   -0.000057   0.002374  -0.000043   0.004095  -0.037716  -0.002270
    12  C   -0.000012  -0.000035  -0.000019  -0.000127   0.003782   0.000036
    13  C    0.000634   0.004429  -0.000072  -0.000018   0.000211   0.000001
    14  C    0.006607  -0.027423   0.006113   0.000071   0.003558  -0.000099
    15  C   -0.093479   0.284670  -0.137891  -0.003418  -0.033484   0.004217
    16  H    0.001268  -0.030608   0.351195  -0.035639  -0.003367  -0.000097
    17  H    0.005391  -0.022725   0.342744  -0.025223   0.003907  -0.000082
    18  H    0.000440  -0.003078  -0.038150   0.372389  -0.039743  -0.004822
    19  H   -0.000061   0.003309  -0.028268   0.364428  -0.033214  -0.002613
    20  H   -0.000007  -0.001665  -0.002324  -0.040106   0.350926  -0.036157
    21  H    0.000000   0.000000  -0.000000   0.000002  -0.000025   0.004663
    22  H    0.000000  -0.000000   0.000000  -0.000020  -0.000064  -0.005229
    23  H    0.000000   0.000000  -0.000000   0.000086   0.000013  -0.004510
    24  H    0.000420  -0.003395   0.000267  -0.005184  -0.042288  -0.007368
    25  H   -0.000000  -0.000019  -0.000009   0.000049  -0.004887  -0.000634
    26  H    0.000000  -0.000065  -0.000002   0.000078  -0.008989   0.008425
    27  H    0.000000   0.000007  -0.000000   0.000001  -0.000128  -0.000003
    28  H   -0.000000  -0.000037   0.000000   0.000002   0.000061  -0.000025
    29  H    0.000002  -0.000077   0.000002  -0.000000   0.000006  -0.000000
    30  H   -0.000003  -0.000070  -0.000000   0.000000  -0.000021  -0.000000
    31  H    0.005076  -0.003227   0.000208  -0.000009  -0.000128   0.000002
    32  H    0.003778  -0.004500   0.000261  -0.000060   0.000080  -0.000004
    33  H    0.001227  -0.035884   0.002450  -0.001654  -0.004359  -0.000101
               7          8          9         10         11         12
     1  O   -0.000000   0.000000  -0.000000   0.000208  -0.000057  -0.000012
     2  C   -0.000017  -0.000003   0.000000  -0.018485   0.002374  -0.000035
     3  C    0.000057  -0.000052   0.000005  -0.009056  -0.000043  -0.000019
     4  C   -0.003036  -0.001259  -0.000216  -0.029670   0.004095  -0.000127
     5  C   -0.078781  -0.085168   0.007878   0.342362  -0.037716   0.003782
     6  C    0.522571   0.254941  -0.020103  -0.031426  -0.002270   0.000036
     7  O    8.094857  -0.081723   0.003901   0.001612  -0.003941  -0.000006
     8  O   -0.081723   8.245119   0.205492   0.001607   0.000427   0.000001
     9  C    0.003901   0.205492   4.899900  -0.000222  -0.000003   0.000000
    10  C    0.001612   0.001607  -0.000222   5.003626   0.374736  -0.032549
    11  C   -0.003941   0.000427  -0.000003   0.374736   5.058578   0.375747
    12  C   -0.000006   0.000001   0.000000  -0.032549   0.375747   4.995478
    13  C   -0.000001  -0.000000   0.000000  -0.012778  -0.046464   0.380553
    14  C    0.000001   0.000000  -0.000000  -0.035859  -0.011417  -0.041921
    15  C    0.000284  -0.000038   0.000001   0.340530  -0.038188  -0.012982
    16  H   -0.000001   0.000002   0.000000  -0.001172  -0.000012   0.000001
    17  H    0.000000   0.000000  -0.000000  -0.000020   0.000010  -0.000000
    18  H    0.004643   0.000211  -0.000023  -0.006681   0.000039   0.000001
    19  H   -0.000047   0.002573  -0.000142   0.004720  -0.000144   0.000001
    20  H    0.003229   0.005927  -0.000239  -0.044616  -0.004816   0.000017
    21  H    0.000716  -0.032335   0.377697  -0.000000   0.000001   0.000000
    22  H    0.006045  -0.031028   0.373707   0.000078  -0.000043  -0.000000
    23  H    0.006144  -0.031560   0.373180  -0.000019   0.000005   0.000000
    24  H    0.008667   0.000189  -0.000008   0.364254  -0.042517  -0.003716
    25  H    0.000099  -0.000018  -0.000000  -0.041976   0.364129  -0.039268
    26  H    0.004242  -0.000709   0.000024  -0.031539   0.363354  -0.028907
    27  H    0.000000   0.000000   0.000000   0.004340  -0.032034   0.368290
    28  H    0.000007  -0.000000  -0.000000  -0.005338  -0.040401   0.373514
    29  H    0.000000   0.000000  -0.000000   0.000172   0.004817  -0.032868
    30  H    0.000000  -0.000000   0.000000  -0.000951  -0.004372  -0.041524
    31  H    0.000000  -0.000000   0.000000   0.004386   0.000046   0.004627
    32  H   -0.000001  -0.000000   0.000000  -0.006125  -0.000827  -0.004589
    33  H   -0.000002  -0.000004   0.000000  -0.043552  -0.007837  -0.000758
              13         14         15         16         17         18
     1  O    0.000634   0.006607  -0.093479   0.001268   0.005391   0.000440
     2  C    0.004429  -0.027423   0.284670  -0.030608  -0.022725  -0.003078
     3  C   -0.000072   0.006113  -0.137891   0.351195   0.342744  -0.038150
     4  C   -0.000018   0.000071  -0.003418  -0.035639  -0.025223   0.372389
     5  C    0.000211   0.003558  -0.033484  -0.003367   0.003907  -0.039743
     6  C    0.000001  -0.000099   0.004217  -0.000097  -0.000082  -0.004822
     7  O   -0.000001   0.000001   0.000284  -0.000001   0.000000   0.004643
     8  O   -0.000000   0.000000  -0.000038   0.000002   0.000000   0.000211
     9  C    0.000000  -0.000000   0.000001   0.000000  -0.000000  -0.000023
    10  C   -0.012778  -0.035859   0.340530  -0.001172  -0.000020  -0.006681
    11  C   -0.046464  -0.011417  -0.038188  -0.000012   0.000010   0.000039
    12  C    0.380553  -0.041921  -0.012982   0.000001  -0.000000   0.000001
    13  C    5.024448   0.356450  -0.034071  -0.000003   0.000001  -0.000001
    14  C    0.356450   5.014538   0.354691  -0.000103  -0.000150  -0.000033
    15  C   -0.034071   0.354691   5.330945   0.003659   0.006731   0.000457
    16  H   -0.000003  -0.000103   0.003659   0.580791  -0.026451   0.005336
    17  H    0.000001  -0.000150   0.006731  -0.026451   0.554551  -0.003177
    18  H   -0.000001  -0.000033   0.000457   0.005336  -0.003177   0.566977
    19  H    0.000000   0.000010  -0.000266  -0.006045  -0.002476  -0.033818
    20  H   -0.000019   0.000017  -0.003799   0.004183  -0.000015   0.005918
    21  H    0.000000   0.000000  -0.000000   0.000000   0.000000  -0.000001
    22  H   -0.000000   0.000000   0.000000   0.000000  -0.000000  -0.000002
    23  H    0.000000  -0.000000  -0.000000  -0.000000   0.000000   0.000000
    24  H   -0.000562  -0.003826  -0.048049   0.000088  -0.000017   0.005097
    25  H   -0.004563  -0.000553  -0.007570  -0.000005  -0.000000   0.000005
    26  H    0.004471  -0.000035   0.005091   0.000000  -0.000000  -0.000004
    27  H   -0.032558   0.004643   0.000203  -0.000000   0.000000   0.000000
    28  H   -0.040367  -0.003984  -0.001114  -0.000000  -0.000000  -0.000001
    29  H    0.371200  -0.032794   0.004333  -0.000000  -0.000000  -0.000000
    30  H    0.369066  -0.038436  -0.006119  -0.000001   0.000000  -0.000000
    31  H   -0.032473   0.370579  -0.033148  -0.000017  -0.000006  -0.000000
    32  H   -0.039457   0.375513  -0.041424  -0.000003  -0.000000  -0.000010
    33  H   -0.002757  -0.041930   0.344292   0.001595  -0.000124   0.000092
              19         20         21         22         23         24
     1  O   -0.000061  -0.000007   0.000000   0.000000   0.000000   0.000420
     2  C    0.003309  -0.001665   0.000000  -0.000000   0.000000  -0.003395
     3  C   -0.028268  -0.002324  -0.000000   0.000000  -0.000000   0.000267
     4  C    0.364428  -0.040106   0.000002  -0.000020   0.000086  -0.005184
     5  C   -0.033214   0.350926  -0.000025  -0.000064   0.000013  -0.042288
     6  C   -0.002613  -0.036157   0.004663  -0.005229  -0.004510  -0.007368
     7  O   -0.000047   0.003229   0.000716   0.006045   0.006144   0.008667
     8  O    0.002573   0.005927  -0.032335  -0.031028  -0.031560   0.000189
     9  C   -0.000142  -0.000239   0.377697   0.373707   0.373180  -0.000008
    10  C    0.004720  -0.044616  -0.000000   0.000078  -0.000019   0.364254
    11  C   -0.000144  -0.004816   0.000001  -0.000043   0.000005  -0.042517
    12  C    0.000001   0.000017   0.000000  -0.000000   0.000000  -0.003716
    13  C    0.000000  -0.000019   0.000000  -0.000000   0.000000  -0.000562
    14  C    0.000010   0.000017   0.000000   0.000000  -0.000000  -0.003826
    15  C   -0.000266  -0.003799  -0.000000   0.000000  -0.000000  -0.048049
    16  H   -0.006045   0.004183   0.000000   0.000000  -0.000000   0.000088
    17  H   -0.002476  -0.000015   0.000000  -0.000000   0.000000  -0.000017
    18  H   -0.033818   0.005918  -0.000001  -0.000002   0.000000   0.005097
    19  H    0.582206  -0.003885  -0.000002   0.000008  -0.000014  -0.000033
    20  H   -0.003885   0.607213  -0.000075  -0.000005   0.000024   0.006275
    21  H   -0.000002  -0.000075   0.546004  -0.031271  -0.031346  -0.000000
    22  H    0.000008  -0.000005  -0.031271   0.552674  -0.036966  -0.000003
    23  H   -0.000014   0.000024  -0.031346  -0.036966   0.553199  -0.000002
    24  H   -0.000033   0.006275  -0.000000  -0.000003  -0.000002   0.602482
    25  H    0.000002   0.005216  -0.000000  -0.000000  -0.000000   0.006219
    26  H    0.000003  -0.000260  -0.000003   0.000199  -0.000006  -0.004217
    27  H   -0.000000  -0.000000  -0.000000  -0.000000   0.000000  -0.000048
    28  H    0.000000   0.000006   0.000000   0.000000  -0.000000   0.004827
    29  H    0.000000  -0.000000   0.000000  -0.000000  -0.000000  -0.000025
    30  H   -0.000000  -0.000005  -0.000000   0.000000   0.000000   0.000143
    31  H    0.000000   0.000001  -0.000000   0.000000  -0.000000  -0.000035
    32  H    0.000000   0.000005   0.000000   0.000000   0.000000   0.005033
    33  H   -0.000035   0.005267   0.000000   0.000000  -0.000000   0.006671
              25         26         27         28         29         30
     1  O   -0.000000   0.000000   0.000000  -0.000000   0.000002  -0.000003
     2  C   -0.000019  -0.000065   0.000007  -0.000037  -0.000077  -0.000070
     3  C   -0.000009  -0.000002  -0.000000   0.000000   0.000002  -0.000000
     4  C    0.000049   0.000078   0.000001   0.000002  -0.000000   0.000000
     5  C   -0.004887  -0.008989  -0.000128   0.000061   0.000006  -0.000021
     6  C   -0.000634   0.008425  -0.000003  -0.000025  -0.000000  -0.000000
     7  O    0.000099   0.004242   0.000000   0.000007   0.000000   0.000000
     8  O   -0.000018  -0.000709   0.000000  -0.000000   0.000000  -0.000000
     9  C   -0.000000   0.000024   0.000000  -0.000000  -0.000000   0.000000
    10  C   -0.041976  -0.031539   0.004340  -0.005338   0.000172  -0.000951
    11  C    0.364129   0.363354  -0.032034  -0.040401   0.004817  -0.004372
    12  C   -0.039268  -0.028907   0.368290   0.373514  -0.032868  -0.041524
    13  C   -0.004563   0.004471  -0.032558  -0.040367   0.371200   0.369066
    14  C   -0.000553  -0.000035   0.004643  -0.003984  -0.032794  -0.038436
    15  C   -0.007570   0.005091   0.000203  -0.001114   0.004333  -0.006119
    16  H   -0.000005   0.000000  -0.000000  -0.000000  -0.000000  -0.000001
    17  H   -0.000000  -0.000000   0.000000  -0.000000  -0.000000   0.000000
    18  H    0.000005  -0.000004   0.000000  -0.000001  -0.000000  -0.000000
    19  H    0.000002   0.000003  -0.000000   0.000000   0.000000  -0.000000
    20  H    0.005216  -0.000260  -0.000000   0.000006  -0.000000  -0.000005
    21  H   -0.000000  -0.000003  -0.000000   0.000000   0.000000  -0.000000
    22  H   -0.000000   0.000199  -0.000000   0.000000  -0.000000   0.000000
    23  H   -0.000000  -0.000006   0.000000  -0.000000  -0.000000   0.000000
    24  H    0.006219  -0.004217  -0.000048   0.004827  -0.000025   0.000143
    25  H    0.621686  -0.035695  -0.004376   0.005938  -0.000050   0.004806
    26  H   -0.035695   0.582200  -0.002244  -0.004047  -0.000150  -0.000045
    27  H   -0.004376  -0.002244   0.604012  -0.036374  -0.002209  -0.004482
    28  H    0.005938  -0.004047  -0.036374   0.603922  -0.004373   0.006001
    29  H   -0.000050  -0.000150  -0.002209  -0.004373   0.599443  -0.036980
    30  H    0.004806  -0.000045  -0.004482   0.006001  -0.036980   0.620338
    31  H   -0.000023   0.000013  -0.000152  -0.000048  -0.002087  -0.004108
    32  H    0.000149  -0.000022  -0.000055   0.004580  -0.004087   0.005714
    33  H    0.005962  -0.000020  -0.000046   0.000181  -0.000049   0.005141
              31         32         33
     1  O    0.005076   0.003778   0.001227
     2  C   -0.003227  -0.004500  -0.035884
     3  C    0.000208   0.000261   0.002450
     4  C   -0.000009  -0.000060  -0.001654
     5  C   -0.000128   0.000080  -0.004359
     6  C    0.000002  -0.000004  -0.000101
     7  O    0.000000  -0.000001  -0.000002
     8  O   -0.000000  -0.000000  -0.000004
     9  C    0.000000   0.000000   0.000000
    10  C    0.004386  -0.006125  -0.043552
    11  C    0.000046  -0.000827  -0.007837
    12  C    0.004627  -0.004589  -0.000758
    13  C   -0.032473  -0.039457  -0.002757
    14  C    0.370579   0.375513  -0.041930
    15  C   -0.033148  -0.041424   0.344292
    16  H   -0.000017  -0.000003   0.001595
    17  H   -0.000006  -0.000000  -0.000124
    18  H   -0.000000  -0.000010   0.000092
    19  H    0.000000   0.000000  -0.000035
    20  H    0.000001   0.000005   0.005267
    21  H   -0.000000   0.000000   0.000000
    22  H    0.000000   0.000000   0.000000
    23  H   -0.000000   0.000000  -0.000000
    24  H   -0.000035   0.005033   0.006671
    25  H   -0.000023   0.000149   0.005962
    26  H    0.000013  -0.000022  -0.000020
    27  H   -0.000152  -0.000055  -0.000046
    28  H   -0.000048   0.004580   0.000181
    29  H   -0.002087  -0.004087  -0.000049
    30  H   -0.004108   0.005714   0.005141
    31  H    0.579553  -0.033199  -0.003806
    32  H   -0.033199   0.589240   0.006187
    33  H   -0.003806   0.006187   0.629382
 Mulliken charges:
               1
     1  O   -0.448597
     2  C    0.450265
     3  C   -0.345012
     4  C   -0.289795
     5  C   -0.174578
     6  C    0.623009
     7  O   -0.489518
     8  O   -0.452593
     9  C   -0.220827
    10  C   -0.090595
    11  C   -0.275257
    12  C   -0.262768
    13  C   -0.265299
    14  C   -0.254228
    15  C   -0.185065
    16  H    0.155405
    17  H    0.167131
    18  H    0.167939
    19  H    0.153802
    20  H    0.143770
    21  H    0.165974
    22  H    0.171919
    23  H    0.171772
    24  H    0.150663
    25  H    0.125387
    26  H    0.148860
    27  H    0.133211
    28  H    0.137072
    29  H    0.135774
    30  H    0.125908
    31  H    0.147975
    32  H    0.143824
    33  H    0.134473
 Sum of Mulliken charges =  -0.00000
 Mulliken charges with hydrogens summed into heavy atoms:
               1
     1  O   -0.448597
     2  C    0.450265
     3  C   -0.022476
     4  C    0.031946
     5  C   -0.030808
     6  C    0.623009
     7  O   -0.489518
     8  O   -0.452593
     9  C    0.288838
    10  C    0.060068
    11  C   -0.001011
    12  C    0.007515
    13  C   -0.003617
    14  C    0.037572
    15  C   -0.050593
 APT charges:
               1
     1  O   -0.641585
     2  C    0.725669
     3  C   -0.053631
     4  C    0.125505
     5  C   -0.052756
     6  C    1.072329
     7  O   -0.675552
     8  O   -0.845479
     9  C    0.492606
    10  C    0.104326
    11  C    0.088456
    12  C    0.125066
    13  C    0.125179
    14  C    0.092710
    15  C   -0.069691
    16  H   -0.009022
    17  H   -0.031940
    18  H   -0.014830
    19  H   -0.041928
    20  H   -0.026454
    21  H   -0.011925
    22  H   -0.022558
    23  H   -0.023070
    24  H   -0.023003
    25  H   -0.047523
    26  H   -0.042338
    27  H   -0.062931
    28  H   -0.044498
    29  H   -0.062249
    30  H   -0.052195
    31  H   -0.036359
    32  H   -0.027915
    33  H   -0.032419
 Sum of APT charges =   0.00000
 APT charges with hydrogens summed into heavy atoms:
               1
     1  O   -0.641585
     2  C    0.725669
     3  C   -0.094593
     4  C    0.068747
     5  C   -0.079209
     6  C    1.072329
     7  O   -0.675552
     8  O   -0.845479
     9  C    0.435053
    10  C    0.081324
    11  C   -0.001404
    12  C    0.017637
    13  C    0.010736
    14  C    0.028437
    15  C   -0.102110
 Electronic spatial extent (au):  <R**2>=           3572.1661
 Charge=             -0.0000 electrons
 Dipole moment (field-independent basis, Debye):
    X=              2.6039    Y=             -0.9187    Z=             -2.5360  Tot=              3.7491
 Quadrupole moment (field-independent basis, Debye-Ang):
   XX=            -89.2136   YY=            -90.2913   ZZ=            -92.9428
   XY=              6.9384   XZ=             -0.1219   YZ=             -1.5630
 Traceless Quadrupole moment (field-independent basis, Debye-Ang):
   XX=              1.6023   YY=              0.5246   ZZ=             -2.1269
   XY=              6.9384   XZ=             -0.1219   YZ=             -1.5630
 Octapole moment (field-independent basis, Debye-Ang**2):
  XXX=            101.8699  YYY=              1.0510  ZZZ=             -2.0120  XYY=             24.7103
  XXY=            -28.7593  XXZ=            -15.5786  XZZ=             -5.7284  YZZ=              4.6197
  YYZ=             -3.8677  XYZ=             11.3989
 Hexadecapole moment (field-independent basis, Debye-Ang**3):
 XXXX=          -2616.3117 YYYY=          -1457.3267 ZZZZ=           -281.5399 XXXY=             13.0534
 XXXZ=             -5.9179 YYYX=              9.0409 YYYZ=             -9.8540 ZZZX=            -16.2864
 ZZZY=              2.9261 XXYY=           -766.9275 XXZZ=           -548.9221 YYZZ=           -290.8363
 XXYZ=            -12.3534 YYXZ=             14.3791 ZZXY=             -2.0339
 N-N= 1.064092708884D+03 E-N=-3.742956953684D+03  KE= 6.873634899005D+02
  Exact polarizability: 147.694  -1.530 128.362  -4.662  -0.362 104.126
 Approx polarizability: 186.208  -8.316 168.055 -11.253  -0.700 183.250
 Calling FoFJK, ICntrl=    100127 FMM=F ISym2X=0 I1Cent= 0 IOpClX= 0 NMat=1 NMatS=1 NMatT=0.
 Full mass-weighted force constant matrix:
 Low frequencies ---   -4.6984   -3.2956   -0.0007   -0.0007   -0.0004    5.0009
 Low frequencies ---   14.6615   57.5481   77.7634
 Diagonal vibrational polarizability:
       30.9895485     152.6126219      34.7934735
 Harmonic frequencies (cm**-1), IR intensities (KM/Mole), Raman scattering
 activities (A**4/AMU), depolarization ratios for plane and unpolarized
 incident light, reduced masses (AMU), force constants (mDyne/A),
 and normal coordinates:
                      1                      2                      3
                      A                      A                      A
 Frequencies --     14.4019                57.5443                77.7615
 Red. masses --      5.2803                 5.1488                 3.3706
 Frc consts  --      0.0006                 0.0100                 0.0120
 IR Inten    --      1.2729                 1.4805                 1.2075
  Atom  AN      X      Y      Z        X      Y      Z        X      Y      Z
     1   8    -0.06  -0.04   0.02     0.16  -0.03   0.30    -0.09   0.06  -0.18
     2   6    -0.03  -0.00   0.02     0.03  -0.01   0.05    -0.03   0.02  -0.03
     3   6    -0.05   0.04   0.06    -0.04  -0.03  -0.16     0.00   0.01   0.03
     4   6    -0.04   0.06   0.06    -0.00   0.01  -0.20    -0.01   0.01   0.05
     5   6     0.01   0.08   0.02    -0.00  -0.02  -0.11     0.02   0.03  -0.02
     6   6     0.00   0.08   0.02    -0.03   0.03  -0.00    -0.00  -0.00  -0.00
     7   8     0.05   0.30   0.08    -0.10   0.12   0.03    -0.05  -0.04  -0.01
     8   8    -0.07  -0.23  -0.05     0.03  -0.04   0.07     0.03   0.00   0.03
     9   6    -0.09  -0.29  -0.06     0.00   0.01   0.20    -0.00  -0.06   0.06
    10   6     0.02   0.04  -0.00     0.00  -0.01  -0.09     0.03  -0.00  -0.06
    11   6     0.07   0.05  -0.02    -0.02   0.00  -0.15     0.01   0.03  -0.19
    12   6     0.09   0.01  -0.05     0.01  -0.02  -0.09     0.08  -0.02  -0.09
    13   6     0.08  -0.03  -0.06    -0.03   0.00   0.03    -0.00  -0.00   0.15
    14   6     0.03  -0.04  -0.04     0.01  -0.01   0.08     0.05  -0.01   0.21
    15   6     0.01   0.01  -0.01    -0.03  -0.00  -0.01    -0.01  -0.00   0.06
    16   1    -0.04   0.07   0.06    -0.13  -0.13  -0.17     0.03   0.02   0.03
    17   1    -0.08   0.03   0.09    -0.00   0.01  -0.23    -0.01   0.01   0.02
    18   1    -0.04   0.03   0.06     0.05   0.09  -0.21    -0.05  -0.04   0.05
    19   1    -0.05   0.10   0.08    -0.03  -0.01  -0.29    -0.01   0.04   0.10
    20   1     0.01   0.10   0.02     0.04  -0.09  -0.10     0.04   0.08  -0.02
    21   1    -0.14  -0.55  -0.12     0.06  -0.06   0.24     0.03  -0.04   0.09
    22   1    -0.19  -0.21   0.15    -0.02   0.04   0.28    -0.05  -0.08   0.00
    23   1     0.05  -0.17  -0.22    -0.06   0.08   0.17    -0.02  -0.12   0.11
    24   1     0.01   0.03  -0.00     0.05  -0.04  -0.09     0.08  -0.10  -0.06
    25   1     0.09   0.06  -0.02    -0.09   0.04  -0.15    -0.13   0.12  -0.21
    26   1     0.08   0.07  -0.01     0.01  -0.01  -0.22     0.07   0.01  -0.34
    27   1     0.12   0.01  -0.06    -0.01  -0.00  -0.14     0.04   0.01  -0.19
    28   1     0.07  -0.01  -0.05     0.09  -0.06  -0.09     0.25  -0.11  -0.09
    29   1     0.09  -0.06  -0.08     0.00  -0.01   0.08     0.07  -0.02   0.28
    30   1     0.10  -0.01  -0.06    -0.11   0.03   0.03    -0.19   0.04   0.16
    31   1     0.02  -0.06  -0.04    -0.03   0.00   0.16    -0.01  -0.00   0.36
    32   1     0.01  -0.06  -0.04     0.10  -0.03   0.08     0.22  -0.04   0.23
    33   1     0.03   0.03  -0.01    -0.11   0.02  -0.01    -0.13  -0.04   0.05
                      4                      5                      6
                      A                      A                      A
 Frequencies --    103.0535               132.5736               141.9018
 Red. masses --      2.8930                 1.2741                 2.5131
 Frc consts  --      0.0181                 0.0132                 0.0298
 IR Inten    --      0.2297                 0.6514                 1.1189
  Atom  AN      X      Y      Z        X      Y      Z        X      Y      Z
     1   8    -0.00   0.04  -0.06    -0.01  -0.02   0.01    -0.03  -0.05  -0.00
     2   6     0.02  -0.00   0.01    -0.00   0.00   0.00     0.00  -0.01   0.02
     3   6     0.05  -0.04   0.03    -0.00   0.02   0.04     0.02   0.03   0.16
     4   6     0.02  -0.08   0.04     0.01   0.01   0.01     0.04  -0.04   0.03
     5   6     0.00  -0.08   0.02     0.00   0.01  -0.03     0.01  -0.01  -0.09
     6   6     0.03  -0.02   0.02    -0.01  -0.01  -0.02     0.00  -0.02  -0.07
     7   8     0.10   0.15   0.06    -0.04  -0.07  -0.04    -0.03   0.08  -0.03
     8   8    -0.02  -0.09  -0.03     0.01   0.02   0.00     0.03  -0.10  -0.04
     9   6     0.06   0.18  -0.01    -0.00   0.00   0.03     0.03   0.06   0.09
    10   6    -0.01  -0.06   0.02     0.00   0.01  -0.03     0.00  -0.01  -0.10
    11   6    -0.06  -0.05  -0.04     0.01   0.01  -0.01    -0.03  -0.02  -0.05
    12   6    -0.09  -0.04  -0.09     0.02   0.02   0.05    -0.01   0.04   0.11
    13   6    -0.08   0.04  -0.03     0.02  -0.01   0.03    -0.02  -0.02   0.08
    14   6    -0.02   0.02   0.05     0.00   0.00  -0.03    -0.01   0.03  -0.08
    15   6    -0.00  -0.02   0.05     0.00   0.01  -0.03     0.00   0.01  -0.07
    16   1     0.06  -0.03   0.03    -0.01   0.07   0.04    -0.01   0.22   0.17
    17   1     0.07  -0.03   0.03    -0.01   0.00   0.08     0.03  -0.03   0.33
    18   1     0.01  -0.09   0.04     0.02  -0.02   0.01     0.10  -0.14   0.03
    19   1     0.04  -0.09   0.05    -0.00   0.02   0.01     0.02  -0.02   0.04
    20   1    -0.01  -0.07   0.02     0.00   0.03  -0.03     0.01   0.04  -0.09
    21   1    -0.03  -0.07  -0.11    -0.10  -0.52  -0.09     0.16   0.35   0.21
    22   1     0.19   0.31   0.37    -0.13   0.20   0.54     0.17  -0.03  -0.12
    23   1     0.10   0.50  -0.29     0.23   0.34  -0.33    -0.23  -0.04   0.27
    24   1     0.00  -0.10   0.02     0.00   0.02  -0.03     0.02   0.00  -0.10
    25   1    -0.06  -0.00  -0.04    -0.03  -0.01  -0.01    -0.13  -0.08  -0.06
    26   1    -0.08  -0.10  -0.06     0.02   0.02  -0.03    -0.00  -0.01  -0.11
    27   1    -0.13  -0.02  -0.16     0.03   0.00   0.10    -0.03  -0.01   0.24
    28   1    -0.09  -0.12  -0.09     0.04   0.08   0.05     0.05   0.18   0.12
    29   1    -0.09   0.04  -0.04     0.02  -0.00   0.06    -0.01   0.03   0.16
    30   1    -0.11   0.10  -0.03     0.01  -0.06   0.03    -0.04  -0.15   0.09
    31   1    -0.02   0.07   0.11     0.00  -0.02  -0.06     0.00  -0.01  -0.16
    32   1     0.02  -0.03   0.06    -0.02   0.04  -0.04    -0.07   0.13  -0.09
    33   1    -0.02  -0.02   0.04    -0.00   0.02  -0.03    -0.01   0.06  -0.08
                      7                      8                      9
                      A                      A                      A
 Frequencies --    165.2334               199.7713               240.1333
 Red. masses --      2.7761                 4.5319                 2.4777
 Frc consts  --      0.0447                 0.1066                 0.0842
 IR Inten    --      1.7355                 1.7932                 1.9741
  Atom  AN      X      Y      Z        X      Y      Z        X      Y      Z
     1   8     0.11  -0.02   0.06    -0.06  -0.10  -0.01     0.05  -0.01   0.01
     2   6     0.03  -0.01  -0.09    -0.01  -0.05   0.02     0.02  -0.01  -0.05
     3   6     0.03  -0.03  -0.10    -0.04  -0.01   0.05     0.02  -0.01  -0.04
     4   6    -0.07  -0.01   0.17    -0.01  -0.02  -0.05    -0.08  -0.03   0.16
     5   6     0.00   0.02   0.08     0.04  -0.03  -0.03    -0.01   0.03  -0.05
     6   6    -0.00   0.02   0.07     0.11   0.11   0.01    -0.00   0.04  -0.12
     7   8     0.04   0.01   0.06     0.11   0.11   0.00    -0.03   0.04  -0.11
     8   8    -0.04   0.03   0.02     0.17   0.25   0.06     0.04   0.02  -0.07
     9   6    -0.01   0.01  -0.09     0.06  -0.18  -0.01    -0.03  -0.02   0.11
    10   6    -0.02  -0.02  -0.06     0.03  -0.06  -0.02     0.01  -0.01  -0.02
    11   6    -0.03  -0.00  -0.12    -0.09  -0.07  -0.03     0.02  -0.05   0.10
    12   6     0.02   0.02   0.04    -0.15   0.00   0.01    -0.05  -0.01   0.00
    13   6    -0.03  -0.03   0.11    -0.14   0.04   0.01    -0.00   0.04  -0.04
    14   6    -0.02   0.02  -0.07    -0.03   0.04  -0.01     0.03   0.00   0.08
    15   6    -0.01  -0.01  -0.11     0.02  -0.03  -0.00     0.00  -0.02  -0.01
    16   1     0.20  -0.17  -0.10    -0.09   0.07   0.05     0.16  -0.10  -0.04
    17   1    -0.02   0.01  -0.23    -0.03  -0.04   0.13    -0.02   0.01  -0.12
    18   1    -0.31  -0.08   0.18     0.06  -0.02  -0.05    -0.31  -0.21   0.18
    19   1     0.01   0.02   0.39    -0.04  -0.01  -0.09    -0.01   0.04   0.43
    20   1     0.06   0.12   0.08     0.06  -0.05  -0.03    -0.07   0.16  -0.06
    21   1    -0.08   0.03  -0.14     0.04  -0.36  -0.03     0.09  -0.07   0.20
    22   1     0.01  -0.00  -0.12    -0.28  -0.18  -0.05    -0.12  -0.00   0.14
    23   1     0.05  -0.02  -0.10     0.31  -0.33   0.01    -0.12  -0.01   0.14
    24   1    -0.09  -0.08  -0.06     0.05  -0.06  -0.02     0.03   0.06  -0.03
    25   1    -0.16   0.01  -0.13    -0.13  -0.09  -0.03     0.17  -0.14   0.12
    26   1     0.02  -0.01  -0.22    -0.11  -0.15  -0.05    -0.04  -0.02   0.26
    27   1    -0.02  -0.01   0.11    -0.20  -0.01   0.05    -0.05  -0.01  -0.03
    28   1     0.12   0.10   0.05    -0.14   0.04   0.01    -0.12  -0.05  -0.00
    29   1     0.00   0.02   0.27    -0.15   0.09   0.06    -0.04   0.02  -0.14
    30   1    -0.14  -0.17   0.13    -0.17   0.01   0.02     0.06   0.14  -0.05
    31   1    -0.01  -0.02  -0.14     0.01   0.11  -0.03    -0.00   0.05   0.22
    32   1    -0.05   0.16  -0.08    -0.04   0.06  -0.02     0.16  -0.08   0.10
    33   1     0.01  -0.03  -0.10     0.02  -0.02  -0.00    -0.05  -0.07  -0.01
                     10                     11                     12
                      A                      A                      A
 Frequencies --    259.3037               272.8456               304.6633
 Red. masses --      4.9775                 3.5721                 2.2001
 Frc consts  --      0.1972                 0.1567                 0.1203
 IR Inten    --      2.3741                 9.1705                 6.4603
  Atom  AN      X      Y      Z        X      Y      Z        X      Y      Z
     1   8    -0.14  -0.05   0.05     0.01   0.26   0.00     0.03   0.00  -0.00
     2   6    -0.13  -0.00   0.01    -0.03   0.06   0.10     0.01   0.00  -0.02
     3   6    -0.16  -0.04  -0.12     0.03  -0.07  -0.02     0.02   0.02   0.01
     4   6    -0.12   0.08   0.02    -0.00  -0.07   0.03     0.03   0.04  -0.01
     5   6     0.07   0.07   0.05    -0.02  -0.05  -0.01    -0.03   0.01   0.06
     6   6     0.13  -0.05  -0.01     0.02   0.01  -0.05     0.01   0.01  -0.05
     7   8     0.19  -0.13  -0.04     0.05   0.05  -0.04     0.10  -0.01  -0.06
     8   8     0.13  -0.18  -0.04     0.05   0.07  -0.02    -0.01   0.01  -0.06
     9   6     0.17   0.00   0.08    -0.01  -0.04   0.06    -0.07  -0.01   0.10
    10   6     0.03   0.06   0.02    -0.03  -0.03   0.02    -0.03   0.02   0.10
    11   6    -0.03   0.09  -0.03    -0.04  -0.00  -0.08     0.01   0.04   0.04
    12   6    -0.03   0.11   0.01     0.05  -0.02   0.08     0.02  -0.07  -0.10
    13   6    -0.04   0.04  -0.02     0.07  -0.11  -0.06    -0.06  -0.06   0.10
    14   6    -0.05   0.03  -0.01    -0.09  -0.10  -0.07    -0.04   0.01  -0.08
    15   6    -0.03   0.02   0.04    -0.08   0.02   0.12     0.00  -0.01  -0.01
    16   1    -0.14  -0.25  -0.13     0.03  -0.22  -0.03     0.02   0.05   0.01
    17   1    -0.16   0.04  -0.32     0.10  -0.01  -0.16    -0.01   0.01   0.03
    18   1    -0.23   0.11   0.02    -0.05  -0.11   0.03     0.09   0.11  -0.01
    19   1    -0.16   0.18   0.09     0.02  -0.07   0.09     0.02  -0.00  -0.09
    20   1     0.07   0.08   0.05    -0.06  -0.03  -0.02    -0.10  -0.01   0.05
    21   1     0.22   0.06   0.12     0.05  -0.10   0.10     0.05  -0.05   0.19
    22   1     0.29   0.01   0.13    -0.13  -0.03   0.06    -0.15   0.01   0.14
    23   1     0.01   0.09   0.07    -0.01  -0.08   0.08    -0.16   0.00   0.13
    24   1     0.03   0.03   0.03     0.05  -0.11   0.02    -0.07   0.03   0.10
    25   1    -0.11   0.13  -0.04    -0.23   0.05  -0.10     0.09   0.13   0.04
    26   1    -0.02   0.04  -0.11     0.05   0.01  -0.25    -0.01   0.03   0.07
    27   1    -0.01   0.08   0.09     0.09  -0.07   0.23     0.04   0.01  -0.35
    28   1    -0.03   0.19   0.02     0.05   0.16   0.08     0.09  -0.34  -0.11
    29   1    -0.03   0.02  -0.04     0.05  -0.16  -0.17     0.01  -0.00   0.36
    30   1    -0.01   0.04  -0.02     0.22  -0.12  -0.07    -0.30  -0.21   0.13
    31   1    -0.02   0.05  -0.06    -0.06  -0.18  -0.25     0.00  -0.05  -0.25
    32   1    -0.11   0.02  -0.02    -0.31  -0.13  -0.08    -0.18   0.15  -0.10
    33   1    -0.01   0.03   0.04    -0.05   0.12   0.12     0.11  -0.03  -0.01
                     13                     14                     15
                      A                      A                      A
 Frequencies --    325.6148               360.6868               382.9134
 Red. masses --      3.0476                 3.0730                 4.4048
 Frc consts  --      0.1904                 0.2355                 0.3805
 IR Inten    --      2.5128                12.4684                 1.0618
  Atom  AN      X      Y      Z        X      Y      Z        X      Y      Z
     1   8     0.00   0.12   0.05     0.03  -0.02   0.01     0.08  -0.08  -0.05
     2   6    -0.08   0.06  -0.04    -0.01  -0.00  -0.07     0.06  -0.14  -0.03
     3   6    -0.01   0.01   0.04     0.02   0.02   0.04     0.11  -0.13   0.04
     4   6    -0.01  -0.03   0.01     0.05   0.01  -0.04     0.18   0.09   0.06
     5   6     0.02  -0.01  -0.05    -0.01  -0.02   0.05     0.03   0.11   0.02
     6   6     0.04  -0.03   0.02     0.01  -0.02   0.05    -0.00   0.02  -0.04
     7   8    -0.01   0.01   0.04     0.23  -0.04   0.01    -0.10   0.04  -0.02
     8   8     0.09  -0.02   0.06    -0.07   0.04  -0.03     0.04  -0.01  -0.00
     9   6     0.15  -0.02  -0.07    -0.13   0.01   0.08     0.05  -0.00  -0.02
    10   6    -0.09   0.08  -0.10    -0.08   0.03  -0.08    -0.02   0.12   0.05
    11   6     0.00   0.03   0.11    -0.05   0.02  -0.03    -0.06   0.17   0.00
    12   6     0.01  -0.08  -0.05    -0.00   0.02   0.06    -0.04   0.12  -0.01
    13   6    -0.02  -0.08   0.04     0.03  -0.01  -0.06    -0.12  -0.09  -0.06
    14   6    -0.03  -0.06   0.01     0.03  -0.05   0.09    -0.13  -0.13   0.06
    15   6    -0.13   0.04  -0.13    -0.08   0.01  -0.12    -0.09  -0.11   0.03
    16   1     0.01   0.11   0.05     0.02   0.16   0.04     0.18  -0.21   0.03
    17   1     0.02  -0.02   0.13     0.01  -0.03   0.16    -0.06  -0.11  -0.07
    18   1    -0.02  -0.11   0.01     0.15   0.09  -0.04     0.27   0.14   0.05
    19   1    -0.01   0.01   0.06     0.03  -0.05  -0.16     0.12   0.09  -0.06
    20   1     0.08   0.01  -0.05     0.07  -0.04   0.05    -0.04   0.17   0.01
    21   1     0.05   0.00  -0.14    -0.04  -0.04   0.15     0.03   0.01  -0.04
    22   1     0.19  -0.04  -0.10    -0.21   0.02   0.11     0.07  -0.01  -0.03
    23   1     0.24  -0.04  -0.09    -0.19  -0.00   0.11     0.07  -0.00  -0.03
    24   1    -0.16   0.20  -0.11    -0.20   0.04  -0.08    -0.00   0.15   0.05
    25   1     0.25  -0.10   0.13    -0.09  -0.03  -0.03    -0.11   0.26  -0.01
    26   1    -0.05   0.15   0.35    -0.01   0.08  -0.04    -0.06   0.10  -0.08
    27   1     0.08  -0.02  -0.22     0.04  -0.02   0.19     0.12   0.10   0.11
    28   1    -0.01  -0.27  -0.06    -0.04   0.18   0.06    -0.09   0.23  -0.01
    29   1     0.02  -0.08   0.13    -0.01  -0.06  -0.20    -0.05  -0.20  -0.06
    30   1    -0.13  -0.11   0.04     0.16   0.09  -0.07    -0.11  -0.06  -0.06
    31   1    -0.13  -0.14   0.14    -0.10  -0.05   0.38    -0.13  -0.05   0.13
    32   1     0.12  -0.05   0.03     0.33  -0.17   0.12    -0.08  -0.23   0.07
    33   1    -0.21   0.05  -0.13    -0.17  -0.04  -0.12    -0.10  -0.21   0.03
                     16                     17                     18
                      A                      A                      A
 Frequencies --    399.0167               443.0954               468.1936
 Red. masses --      3.8869                 2.6441                 2.5964
 Frc consts  --      0.3646                 0.3059                 0.3353
 IR Inten    --      0.5804                 0.4086                 1.3416
  Atom  AN      X      Y      Z        X      Y      Z        X      Y      Z
     1   8     0.07   0.07  -0.01     0.01  -0.08   0.02    -0.11  -0.01   0.01
     2   6     0.04   0.05  -0.03    -0.01   0.03  -0.10    -0.03   0.03   0.12
     3   6    -0.03   0.19  -0.01     0.01   0.05  -0.02     0.04  -0.12  -0.01
     4   6    -0.03   0.20   0.00    -0.05  -0.10  -0.01     0.08  -0.02   0.03
     5   6     0.02   0.13   0.04    -0.06  -0.09   0.01     0.06   0.01  -0.02
     6   6     0.02   0.06   0.00    -0.00  -0.04  -0.04    -0.01  -0.01  -0.00
     7   8    -0.04  -0.04  -0.02    -0.04   0.04  -0.02    -0.02   0.01   0.01
     8   8     0.02  -0.06  -0.01     0.05   0.01   0.00    -0.03   0.02  -0.01
     9   6     0.05   0.01  -0.01     0.06  -0.02  -0.01    -0.05   0.01  -0.00
    10   6     0.04  -0.03   0.02    -0.07   0.05   0.16     0.02   0.08  -0.03
    11   6    -0.13  -0.11  -0.02    -0.13   0.13   0.01    -0.09   0.04   0.04
    12   6    -0.12  -0.16   0.06     0.03  -0.03   0.03    -0.05  -0.06   0.02
    13   6    -0.06  -0.15  -0.05     0.07   0.00  -0.01    -0.02  -0.05  -0.00
    14   6     0.09  -0.12  -0.01     0.08   0.00   0.01     0.18  -0.02  -0.06
    15   6     0.07  -0.02   0.02     0.03   0.04  -0.02     0.07   0.08  -0.05
    16   1    -0.02   0.32  -0.00     0.06   0.23  -0.01     0.01  -0.53  -0.04
    17   1    -0.14   0.12   0.12     0.07  -0.00   0.15     0.14   0.04  -0.40
    18   1    -0.03   0.26   0.00    -0.12  -0.16  -0.00     0.12  -0.01   0.03
    19   1    -0.02   0.16  -0.03     0.01  -0.12   0.10     0.03   0.01  -0.02
    20   1     0.01   0.16   0.04    -0.19  -0.17   0.01     0.08   0.04  -0.02
    21   1     0.04   0.04  -0.01     0.05  -0.03  -0.02    -0.03   0.00   0.02
    22   1     0.12   0.01   0.01     0.05  -0.02  -0.02    -0.08   0.02   0.00
    23   1     0.01   0.04  -0.02     0.09  -0.03  -0.01    -0.06   0.01   0.01
    24   1     0.06  -0.07   0.02    -0.09   0.09   0.15    -0.00   0.14  -0.03
    25   1    -0.31  -0.09  -0.03    -0.41   0.36  -0.03    -0.14   0.03   0.03
    26   1    -0.09  -0.18  -0.19     0.01   0.10  -0.34    -0.07   0.04  -0.02
    27   1    -0.06  -0.17   0.12     0.10   0.02  -0.10     0.04  -0.03  -0.05
    28   1    -0.16  -0.10   0.07     0.03  -0.15   0.02    -0.08  -0.12   0.01
    29   1    -0.15  -0.04  -0.07     0.01   0.03  -0.12    -0.07   0.11   0.13
    30   1    -0.00  -0.18  -0.04     0.18   0.04  -0.02    -0.10  -0.17   0.01
    31   1     0.07  -0.06   0.11     0.03  -0.03   0.07     0.12   0.03   0.12
    32   1     0.18  -0.22   0.00     0.14  -0.01   0.01     0.34  -0.07  -0.04
    33   1     0.11  -0.01   0.02     0.15  -0.08  -0.01     0.09   0.23  -0.06
                     19                     20                     21
                      A                      A                      A
 Frequencies --    505.2272               556.6526               576.3979
 Red. masses --      2.2611                 2.2230                 3.3589
 Frc consts  --      0.3400                 0.4058                 0.6575
 IR Inten    --      0.4644                 1.3834                 6.2142
  Atom  AN      X      Y      Z        X      Y      Z        X      Y      Z
     1   8     0.03   0.06   0.01     0.00   0.06   0.01    -0.12  -0.15   0.03
     2   6    -0.01   0.00  -0.02    -0.02   0.00   0.00     0.02   0.16   0.02
     3   6    -0.04   0.02   0.00    -0.03  -0.04   0.03     0.15   0.21  -0.12
     4   6    -0.08  -0.09  -0.04    -0.01   0.02   0.02     0.07  -0.00   0.01
     5   6     0.03  -0.04  -0.06    -0.10  -0.03   0.15    -0.05  -0.04   0.01
     6   6     0.00  -0.01   0.02    -0.01  -0.01  -0.05    -0.02  -0.05  -0.02
     7   8     0.02  -0.02   0.02    -0.05   0.03  -0.04     0.01   0.02  -0.00
     8   8    -0.03   0.00   0.01     0.05  -0.00  -0.03     0.01   0.01   0.01
     9   6    -0.05   0.01  -0.00     0.07  -0.02   0.01     0.02  -0.01   0.00
    10   6     0.09   0.03   0.04    -0.07  -0.08   0.07    -0.05  -0.03  -0.01
    11   6     0.03   0.08   0.01     0.07  -0.05  -0.04     0.05  -0.03  -0.02
    12   6    -0.02   0.13  -0.05     0.02   0.07  -0.03     0.01   0.03  -0.03
    13   6    -0.11  -0.08  -0.04    -0.01   0.02  -0.02    -0.04  -0.08  -0.03
    14   6     0.06  -0.07  -0.03     0.08   0.01  -0.03    -0.06  -0.05   0.03
    15   6     0.07  -0.03   0.03     0.01  -0.01  -0.09    -0.02   0.07   0.08
    16   1    -0.08   0.25   0.02    -0.02  -0.14   0.03     0.19   0.05  -0.12
    17   1    -0.00  -0.06   0.23    -0.05  -0.01  -0.06     0.32   0.29  -0.26
    18   1    -0.21  -0.23  -0.03     0.19   0.25   0.00    -0.05  -0.03   0.02
    19   1    -0.05  -0.01   0.16    -0.06  -0.10  -0.27     0.22  -0.13   0.13
    20   1     0.06  -0.13  -0.06    -0.26  -0.02   0.14    -0.07  -0.03   0.01
    21   1    -0.04   0.01   0.00     0.08  -0.02   0.01     0.01  -0.01  -0.01
    22   1    -0.05   0.01   0.00     0.06  -0.02   0.00     0.01  -0.01  -0.01
    23   1    -0.05   0.01   0.00     0.07  -0.02   0.01     0.04  -0.02   0.00
    24   1     0.17   0.06   0.04    -0.25  -0.18   0.07    -0.02  -0.10  -0.01
    25   1     0.14   0.11   0.02     0.18  -0.02  -0.03     0.24  -0.10  -0.00
    26   1    -0.04  -0.00   0.09     0.02  -0.04   0.06    -0.02   0.02   0.18
    27   1     0.09   0.06   0.18    -0.04  -0.02   0.24     0.04  -0.05   0.21
    28   1    -0.08   0.33  -0.04     0.02   0.33  -0.02    -0.01   0.27  -0.02
    29   1     0.00  -0.03   0.27     0.05   0.06   0.19     0.04  -0.10   0.14
    30   1    -0.36  -0.24  -0.01    -0.18  -0.09  -0.00    -0.19  -0.16  -0.02
    31   1     0.07   0.07   0.12    -0.01   0.06   0.23    -0.09  -0.06   0.08
    32   1     0.17  -0.19  -0.01     0.34  -0.06  -0.00    -0.06  -0.17   0.03
    33   1     0.14  -0.03   0.03     0.08   0.01  -0.09    -0.07   0.09   0.07
                     22                     23                     24
                      A                      A                      A
 Frequencies --    664.0750               740.1569               766.5391
 Red. masses --      4.9615                 5.0186                 4.4476
 Frc consts  --      1.2891                 1.6199                 1.5397
 IR Inten    --      3.7077                 9.3836                 5.7342
  Atom  AN      X      Y      Z        X      Y      Z        X      Y      Z
     1   8     0.11  -0.05  -0.15     0.00  -0.04  -0.05    -0.03   0.00   0.03
     2   6     0.28  -0.10   0.25     0.10   0.00   0.11    -0.04   0.04  -0.04
     3   6    -0.05   0.03   0.01     0.06  -0.02  -0.02     0.09  -0.03   0.06
     4   6    -0.14   0.05  -0.04    -0.07  -0.12  -0.10    -0.00  -0.07  -0.02
     5   6    -0.18   0.01  -0.06     0.10  -0.01   0.14    -0.13   0.09  -0.13
     6   6    -0.07  -0.03  -0.01     0.17   0.36   0.11    -0.05   0.32   0.02
     7   8     0.10  -0.00  -0.03    -0.13  -0.09   0.03     0.10  -0.07  -0.14
     8   8     0.00  -0.01   0.09     0.02  -0.05  -0.18    -0.07  -0.10   0.20
     9   6     0.07  -0.02   0.01    -0.01   0.00  -0.01     0.03  -0.02   0.02
    10   6    -0.17   0.02  -0.09    -0.04  -0.03   0.01     0.02  -0.02   0.08
    11   6    -0.06   0.08   0.02    -0.01   0.02   0.01     0.06  -0.04   0.01
    12   6     0.02   0.01  -0.00     0.02  -0.00   0.01     0.01  -0.01   0.01
    13   6     0.02  -0.02  -0.01    -0.01  -0.02  -0.00    -0.02   0.02  -0.02
    14   6     0.04   0.01  -0.02    -0.08   0.01   0.00    -0.02   0.02  -0.02
    15   6     0.02   0.04   0.05    -0.05   0.07  -0.05    -0.01  -0.03  -0.04
    16   1    -0.32  -0.15  -0.01    -0.18   0.10  -0.02     0.21  -0.23   0.05
    17   1    -0.16   0.05  -0.09     0.24  -0.05   0.14     0.19   0.06  -0.14
    18   1    -0.28  -0.05  -0.03    -0.27  -0.10  -0.08     0.17  -0.20  -0.02
    19   1    -0.03   0.00   0.14     0.01  -0.11   0.10    -0.00  -0.11  -0.09
    20   1    -0.17   0.01  -0.06     0.21  -0.18   0.15    -0.17   0.03  -0.13
    21   1    -0.04   0.02  -0.07     0.18  -0.03   0.14    -0.24   0.14  -0.18
    22   1     0.14  -0.04  -0.02    -0.06   0.04   0.07     0.28  -0.05  -0.04
    23   1     0.16  -0.03  -0.01    -0.22   0.07   0.02     0.19   0.01  -0.06
    24   1    -0.18   0.03  -0.09    -0.24  -0.05   0.01     0.11   0.06   0.07
    25   1     0.07  -0.03   0.03    -0.01   0.02   0.01    -0.14   0.10  -0.01
    26   1    -0.06   0.23   0.17     0.01   0.06   0.01     0.13  -0.10  -0.20
    27   1     0.09   0.02  -0.01     0.04   0.00  -0.01    -0.05  -0.02   0.01
    28   1     0.01   0.01  -0.00     0.03  -0.02   0.01    -0.03  -0.02   0.01
    29   1     0.02   0.04   0.09     0.02  -0.06  -0.02     0.01   0.02   0.04
    30   1    -0.05  -0.10   0.00     0.02  -0.03  -0.00    -0.06  -0.03  -0.01
    31   1     0.03   0.02   0.04    -0.16  -0.02   0.17    -0.06   0.05   0.12
    32   1     0.08  -0.06  -0.01     0.09  -0.05   0.02     0.12  -0.03  -0.01
    33   1    -0.09   0.34   0.03    -0.10   0.24  -0.06     0.09  -0.15  -0.03
                     25                     26                     27
                      A                      A                      A
 Frequencies --    792.5821               827.6517               846.8927
 Red. masses --      2.0351                 2.0646                 2.6297
 Frc consts  --      0.7532                 0.8333                 1.1112
 IR Inten    --      1.0893                 4.1006                 8.7367
  Atom  AN      X      Y      Z        X      Y      Z        X      Y      Z
     1   8     0.02  -0.02   0.01    -0.00   0.02  -0.00     0.07  -0.06  -0.03
     2   6    -0.04   0.00  -0.09     0.03   0.07   0.02     0.06   0.07  -0.10
     3   6     0.01  -0.06  -0.00    -0.02   0.10   0.06    -0.07  -0.02   0.09
     4   6    -0.01  -0.05   0.02    -0.08  -0.05   0.03    -0.10  -0.05   0.05
     5   6    -0.03   0.02   0.04    -0.04  -0.05   0.02     0.01  -0.01  -0.03
     6   6     0.00   0.09   0.01     0.01   0.01   0.01     0.02  -0.03   0.01
     7   8    -0.00  -0.02  -0.02    -0.01  -0.01   0.01    -0.01  -0.00   0.03
     8   8    -0.01  -0.02   0.00     0.00  -0.00  -0.02     0.01   0.01  -0.03
     9   6     0.02  -0.01   0.01     0.01  -0.00   0.00    -0.00   0.00  -0.01
    10   6    -0.05   0.04  -0.07     0.06  -0.04  -0.06     0.03   0.05  -0.01
    11   6    -0.10   0.04  -0.05    -0.02   0.08   0.01     0.06   0.00   0.01
    12   6    -0.04  -0.01  -0.05    -0.02   0.10   0.01     0.06  -0.13   0.03
    13   6     0.05  -0.02   0.02    -0.06  -0.06   0.05    -0.07  -0.06  -0.08
    14   6     0.12  -0.03   0.04    -0.01  -0.06   0.04    -0.08   0.11   0.03
    15   6     0.03   0.04   0.12     0.10  -0.09  -0.08     0.00   0.13   0.06
    16   1     0.15   0.10   0.01     0.05  -0.30   0.04     0.15  -0.28   0.08
    17   1     0.01  -0.11   0.12     0.08   0.24  -0.29    -0.07   0.07  -0.16
    18   1     0.15   0.09   0.00     0.22   0.09   0.01     0.32   0.09   0.02
    19   1    -0.07  -0.10  -0.20    -0.12  -0.18  -0.27    -0.31  -0.03  -0.38
    20   1    -0.00   0.09   0.03    -0.01   0.01   0.02     0.05   0.06  -0.03
    21   1     0.00   0.01  -0.01     0.03  -0.01   0.02     0.04  -0.02   0.03
    22   1     0.04  -0.01   0.00    -0.00   0.00   0.01    -0.04   0.01   0.01
    23   1     0.01   0.00  -0.00    -0.01   0.00   0.01    -0.04   0.00   0.01
    24   1    -0.01  -0.09  -0.06     0.02  -0.03  -0.06     0.14   0.10  -0.01
    25   1     0.30  -0.16  -0.01     0.02   0.00   0.02    -0.04   0.05  -0.00
    26   1    -0.22   0.17   0.37    -0.09  -0.01   0.07     0.16   0.10  -0.11
    27   1     0.02  -0.07   0.16     0.11   0.19  -0.23     0.16  -0.19   0.23
    28   1     0.00   0.21  -0.04     0.07  -0.16   0.00    -0.04   0.07   0.03
    29   1    -0.01   0.07   0.01    -0.10  -0.24  -0.30    -0.05   0.00   0.04
    30   1     0.01   0.07   0.02     0.26   0.18   0.02    -0.19  -0.13  -0.07
    31   1     0.25  -0.12  -0.36     0.08  -0.02  -0.13    -0.09   0.20   0.14
    32   1    -0.30   0.10  -0.00    -0.11   0.12   0.02    -0.03  -0.06   0.04
    33   1    -0.06  -0.02   0.11     0.03  -0.16  -0.08    -0.01   0.05   0.06
                     28                     29                     30
                      A                      A                      A
 Frequencies --    859.2869               870.5950               906.4272
 Red. masses --      1.7364                 1.9605                 2.8787
 Frc consts  --      0.7554                 0.8755                 1.3935
 IR Inten    --      0.8850                 0.8273                 6.4165
  Atom  AN      X      Y      Z        X      Y      Z        X      Y      Z
     1   8     0.02  -0.02  -0.00    -0.02  -0.00   0.01     0.03  -0.03  -0.02
     2   6     0.00   0.01  -0.04    -0.02  -0.01   0.01     0.05   0.04  -0.02
     3   6    -0.01   0.01   0.00     0.04  -0.06  -0.08    -0.05  -0.04   0.02
     4   6    -0.03  -0.01   0.04    -0.02  -0.06   0.00    -0.02   0.01   0.00
     5   6    -0.01  -0.02  -0.01    -0.01   0.04   0.12     0.14  -0.04   0.04
     6   6     0.01   0.01   0.01    -0.04  -0.03  -0.04     0.02  -0.02  -0.08
     7   8    -0.00  -0.01   0.01     0.01   0.03  -0.05    -0.00   0.03  -0.10
     8   8     0.00   0.00  -0.02    -0.01  -0.00   0.05     0.00  -0.03   0.13
     9   6     0.00  -0.00  -0.00     0.01  -0.01   0.01    -0.09   0.02  -0.01
    10   6     0.02  -0.05  -0.05     0.05   0.01  -0.08     0.06  -0.02   0.09
    11   6    -0.06  -0.03   0.06     0.06   0.05  -0.02    -0.10  -0.04  -0.04
    12   6    -0.00   0.12   0.01     0.01   0.00   0.09    -0.03   0.05  -0.06
    13   6     0.11   0.06  -0.03    -0.10  -0.03  -0.01     0.08  -0.06   0.07
    14   6    -0.01  -0.05  -0.05    -0.02   0.02  -0.04    -0.10  -0.01   0.01
    15   6    -0.04   0.02   0.07     0.03   0.04   0.05    -0.01   0.16  -0.05
    16   1     0.14   0.00   0.01     0.00   0.34  -0.05    -0.10  -0.06   0.02
    17   1    -0.05   0.02  -0.02     0.13  -0.19   0.29    -0.04  -0.03   0.01
    18   1     0.17   0.11   0.02    -0.05   0.21  -0.01    -0.02   0.04   0.00
    19   1    -0.08  -0.08  -0.19     0.00  -0.17  -0.12    -0.13   0.16  -0.01
    20   1     0.05   0.09  -0.01    -0.03   0.20   0.11     0.06  -0.08   0.04
[...]
 ,0.00066648,-0.00046701,0.00029647,-0.00144090,-0.00409594,0.00020316,
 0.00024411,0.00059389,0.00006595,-0.00931505,-0.00102736,-0.01709472,0
 .11418010,0.00010195,0.00004161,0.00003028,-0.00006293,-0.00001855,-0.
 00006010,-0.00000171,0.00000857,0.00000302,0.00004536,0.00003002,0.000
 08464,-0.00012282,-0.00004449,0.00014010,-0.00021139,-0.00000187,-0.00
 019902,0.00010553,0.00006258,0.00011750,0.00014511,-0.00000329,0.00006
 161,0.00000193,0.00000995,0.00000036,-0.00070330,0.00172165,-0.0012396
 5,-0.01453988,-0.00269403,-0.02563080,-0.00246272,-0.05175788,-0.00930
 032,0.00024885,-0.00046265,0.00110598,-0.00051506,0.00012453,-0.000834
 77,0.00003734,-0.00025090,0.00000991,-0.00000121,0.00000619,0.00000551
 ,0.00000646,0.00000682,-0.00000370,0.00002763,-0.00004983,0.00001191,-
 0.00000525,0.00001687,0.00000089,0.00016385,0.00010486,0.00017600,0.00
 000352,0.00000218,-0.00000091,0.00000081,0.00000065,-0.00001063,-0.000
 00176,-0.00000687,0.00000237,0.00039652,-0.00044297,0.00053875,-0.0033
 6618,-0.00452912,-0.00038922,0.00068277,0.00116124,0.00033908,0.012284
 15,0.00174522,0.02446802,0.00767410,0.05394052,0.00011263,-0.00006348,
 0.00003587,-0.00015808,0.00004915,-0.00001417,0.00002291,-0.00003328,-
 0.00000729,-0.00004063,-0.00004728,-0.00002289,0.00020330,-0.00012663,
 0.00031020,-0.00005921,0.00000586,-0.00014455,0.00004752,0.00000268,0.
 00009531,0.00004182,0.00000065,0.00005559,0.00000829,0.00000625,-0.000
 01559,-0.00003960,0.00034157,-0.00010708,-0.00053082,-0.00015959,-0.00
 045249,-0.10335840,-0.00991302,-0.24495772,-0.01105739,-0.00024191,-0.
 02410617,-0.00148690,0.00060779,0.00064977,0.00026674,-0.00017267,0.00
 004254,0.00000236,0.00000447,0.00000524,-0.00000456,-0.00001847,0.0000
 0010,0.00000061,-0.00001755,0.00001304,0.00000920,-0.00002035,0.000005
 77,0.00005289,0.00016243,-0.00000531,0.00000046,0.00000180,0.00000101,
 -0.00000160,0.00000200,-0.00000649,-0.00000031,-0.00000595,0.00000181,
 0.00032253,-0.00059565,0.00023193,0.00006896,0.00017873,0.00135171,-0.
 00021997,-0.00039590,0.00080530,-0.00123022,0.00072354,-0.00181371,0.1
 1165332,0.00983757,0.26883352,-0.00000699,-0.00016380,0.00001370,0.001
 04298,0.00087193,0.00001223,-0.00030324,0.00031197,-0.00000585,-0.0001
 3552,-0.00002609,0.00004790,0.00021041,-0.00011242,-0.00010421,0.00013
 206,0.00024182,0.00013020,-0.00002395,-0.00018227,-0.00005690,-0.00008
 141,-0.00005862,-0.00000236,0.00006281,0.00004006,-0.00004131,-0.00041
 060,0.00048850,0.00015608,-0.00234004,0.00164148,0.00461267,-0.0136814
 3,-0.01847898,-0.00321621,-0.13923750,-0.12280228,-0.01435358,0.012549
 86,0.01727618,0.00176181,-0.00238793,0.00307031,-0.00025301,-0.0000079
 9,-0.00000878,0.00000440,0.00008208,0.00013819,-0.00002526,0.00000961,
 -0.00000208,-0.00000865,0.00003654,-0.00004698,-0.00001599,-0.00000785
 ,0.00001464,0.00000832,-0.00000801,-0.00000463,-0.00000427,0.00000545,
 0.00000086,-0.00000321,0.00000014,-0.00000613,0.00001048,0.00006797,-0
 .00008505,-0.00001837,0.00036425,0.00043347,-0.00002671,-0.00071163,-0
 .00154475,0.00016685,0.00017597,0.00031713,-0.00069074,0.00116532,0.00
 029650,0.00001091,0.15127198,0.00059954,0.00003431,-0.00002266,-0.0024
 3699,-0.00052478,0.00015701,0.00054949,-0.00048548,0.00000264,0.000076
 91,0.00004195,-0.00010580,-0.00008688,0.00012860,0.00012523,0.00026476
 ,-0.00000543,-0.00018582,-0.00010329,-0.00000336,0.00012604,-0.0002270
 2,-0.00004405,0.00007809,0.00007194,0.00001262,-0.00006783,0.00048946,
 0.00036761,-0.00045598,0.00032201,0.00112565,0.00015476,0.00093758,0.0
 0131992,0.00044709,-0.12226462,-0.21443166,-0.01798436,-0.01667026,-0.
 02276009,-0.00274908,0.00556411,-0.00345048,0.00043966,-0.00001553,0.0
 0000269,-0.00000740,-0.00011438,-0.00024497,0.00001085,0.00000017,0.00
 001022,0.00001983,-0.00004248,-0.00001586,0.00002883,0.00000655,-0.000
 01429,-0.00001160,-0.00001525,-0.00000497,0.00000307,-0.00000727,0.000
 00318,0.00001383,-0.00000467,-0.00000220,0.00001171,-0.00004975,-0.000
 01952,0.00007186,-0.00001153,-0.00004113,-0.00007131,0.00002869,0.0000
 3916,-0.00017251,-0.00030680,0.00051990,0.00039637,0.00000302,0.000140
 92,0.00044130,0.13205747,0.23378859,0.00009326,-0.00008032,-0.00010156
 ,-0.00012765,0.00011734,0.00042861,-0.00001292,-0.00003643,-0.00008985
 ,0.00008865,0.00000947,-0.00000543,-0.00016936,0.00006841,0.00003834,-
 0.00004324,-0.00015804,-0.00006937,-0.00000184,0.00011056,0.00003633,0
 .00002572,0.00002855,0.00000304,-0.00002810,-0.00002166,0.00001670,0.0
 0012335,-0.00045143,-0.00002950,0.00295636,-0.00130564,-0.00393519,0.0
 1578180,0.02180245,0.00184090,-0.01495715,-0.01878878,-0.05234478,0.00
 023305,0.00162415,-0.00069598,0.00010384,-0.00028123,0.00060490,-0.000
 00864,-0.00002410,0.00000631,-0.00001060,-0.00000553,0.00000727,-0.000
 00241,0.00000243,0.00000276,-0.00002334,0.00002696,0.00000442,0.000015
 60,-0.00000706,0.00000182,0.00000396,0.00000290,0.00000139,-0.00000381
 ,-0.00000049,0.00000387,0.00000031,0.00000367,-0.00000428,-0.00005206,
 0.00003786,-0.00001381,0.00028758,0.00008536,0.00023480,0.00098761,0.0
 0123643,0.00014575,-0.00068201,-0.00038597,0.00081992,-0.00082882,0.00
 029449,0.00095822,0.01316056,0.02000207,0.05413117,0.00028798,0.000258
 79,0.00008469,-0.00038816,-0.00009468,0.00024895,0.00001176,0.00003615
 ,-0.00006048,-0.00001740,0.00001009,0.00001891,0.00007245,-0.00004720,
 -0.00008105,-0.00008620,0.00001022,0.00006635,0.00003645,-0.00000719,-
 0.00004500,0.00008033,0.00001645,-0.00002885,-0.00002493,-0.00000349,0
 .00002229,-0.00013669,0.00005940,0.00015878,0.00143165,0.00059432,0.00
 017416,0.01055963,-0.00145951,0.02251570,-0.10313922,0.00499473,-0.102
 05699,-0.01086760,0.00188571,-0.01784872,0.00031192,-0.00137124,0.0002
 3031,0.00001226,0.00000462,0.00000273,0.00000726,0.00001884,-0.0000133
 4,-0.00000579,-0.00000335,0.00000576,0.00001864,0.00000621,-0.00000825
 ,0.00000248,0.00000030,-0.00000472,0.00000597,0.00000163,-0.00000161,0
 .00000301,-0.00000102,-0.00000471,0.00000184,0.00000026,-0.00000378,-0
 .00013796,0.00001182,0.00000012,-0.00013313,0.00002522,-0.00041042,0.0
 0009439,0.00031066,-0.00021919,0.00116674,-0.00001582,-0.00085049,-0.0
 0275284,-0.00046484,0.00426447,-0.00943096,0.00143529,-0.01745741,0.11
 324412,-0.00047022,-0.00035014,-0.00012674,0.00080008,0.00002083,-0.00
 035527,-0.00005676,0.00004802,0.00007904,0.00000701,-0.00002658,-0.000
 01023,-0.00005056,0.00002309,0.00005202,-0.00003818,-0.00004287,-0.000
 00854,0.00001228,0.00003042,-0.00000905,0.00001742,0.00001277,-0.00000
 652,-0.00001777,-0.00000768,0.00001283,0.00000708,-0.00021160,-0.00003
 294,0.00052416,0.00010779,0.00078641,-0.00029299,-0.00050924,-0.001046
 68,0.00488896,-0.05233404,0.01368951,0.01433940,-0.00298400,0.02615275
 ,0.00070667,0.00199742,0.00119076,-0.00001690,-0.00000873,-0.00001386,
 -0.00000175,0.00002321,0.00000602,0.00000178,0.00000779,-0.00000978,-0
 .00001313,0.00000749,0.00000511,-0.00003076,-0.00002647,-0.00001789,0.
 00000165,0.00000092,0.00000115,-0.00000071,-0.00000022,-0.00000029,0.0
 0000049,0.00000141,-0.00000342,-0.00000165,0.00003276,-0.00018923,-0.0
 0018754,0.00009913,0.00004823,-0.00003141,-0.00001333,-0.00011783,-0.0
 0032618,0.00015620,-0.00028121,0.00046058,0.00097642,-0.00014983,-0.01
 204469,0.00227066,-0.02420451,-0.01010852,0.05441969,0.00020805,-0.000
 03564,-0.00005353,-0.00005665,0.00029584,0.00022995,-0.00004213,0.0000
 2111,-0.00008028,0.00004187,0.00002730,0.00000734,-0.00006744,0.000060
 31,-0.00004178,-0.00013280,-0.00005603,-0.00007209,0.00004788,0.000058
 17,0.00006611,0.00011121,0.00002794,0.00002761,-0.00002438,-0.00001220
 ,0.00000901,0.00022719,0.00010094,0.00009219,-0.00149272,-0.00056819,0
 .00056211,-0.01122866,0.00074163,-0.02435044,-0.10187354,0.01392689,-0
 .24199414,-0.00041738,0.00001732,-0.00009845,0.00011455,-0.00045872,0.
 00010818,0.00000741,0.00000124,0.00001457,0.00000765,0.00001784,0.0000
 0342,-0.00000099,-0.00000836,0.00000831,-0.00000436,0.00002164,-0.0000
 0254,0.00003208,0.00003851,0.00002216,0.00000737,0.00000558,0.00000062
 ,-0.00000224,0.00000089,-0.00000664,0.00000140,-0.00000242,-0.00000330
 ,-0.00000573,-0.00021848,0.00006651,0.00087600,0.00083061,0.00058478,0
 .00024779,-0.00018190,0.00044686,0.00003731,-0.00045719,0.00095225,0.0
 0435385,0.00014984,-0.00280052,-0.00156961,-0.00064367,-0.00242275,0.1
 1042793,-0.01462510,0.26634327,0.00108318,0.00079031,-0.00041684,-0.00
 097265,0.00081715,-0.00016302,0.00000204,0.00001629,0.00013603,-0.0001
 2750,0.00014008,-0.00000399,-0.00041861,0.00033992,0.00113899,0.000198
 83,-0.00029748,-0.00032846,-0.00008108,0.00001150,0.00013581,-0.000340
 33,-0.00006204,0.00014829,0.00004775,0.00003967,-0.00008220,-0.0009483
 9,-0.00329101,-0.00186048,0.00061064,-0.00005266,-0.00019322,-0.000727
 71,0.00358021,-0.00152961,-0.01196030,0.00037759,0.01351645,-0.1568588
 5,0.00107784,0.12916443,-0.01337745,-0.00178064,0.01506326,-0.00001398
 ,0.00003093,-0.00002505,0.00005279,-0.00002759,-0.00002950,0.00001658,
 -0.00001933,-0.00000332,0.00003017,-0.00005492,-0.00000819,-0.00000799
 ,0.00002326,-0.00003602,-0.00002481,-0.00000511,0.00001041,-0.00001123
 ,-0.00000134,0.00001598,-0.00000272,-0.00000339,0.00001426,0.00008845,
 -0.00003883,0.00018945,-0.00007261,-0.00000370,-0.00003647,-0.00002005
 ,0.00002326,0.00002511,-0.00061508,-0.00004397,0.00092328,0.00007492,0
 .00003168,0.00023272,0.00074683,-0.00000240,-0.00023753,0.00025856,-0.
 00064449,-0.00024269,0.17071564,0.00147338,-0.00019356,-0.00045936,-0.
 00203261,0.00064462,0.00087351,0.00007776,0.00014024,-0.00006000,-0.00
 007903,0.00032315,0.00009315,-0.00124628,0.00040540,0.00148440,0.00022
 567,-0.00059192,-0.00052393,-0.00011057,0.00010793,0.00022358,-0.00043
 177,-0.00004216,0.00020272,0.00002151,0.00003412,-0.00008990,-0.002038
 87,-0.00525450,-0.00155185,0.00004536,-0.00051083,-0.00009962,0.002599
 92,-0.00529447,0.00176791,0.01850809,0.00023498,-0.02333198,0.00180148
 ,-0.04781629,-0.00390582,-0.01767581,-0.00034864,0.02267116,0.00000477
 ,0.00002877,0.00002431,0.00006190,0.00001357,-0.00004511,0.00003367,-0
 .00002251,-0.00000415,0.00006861,-0.00003390,-0.00005091,-0.00003582,-
 0.00003585,-0.00005540,-0.00002909,-0.00000406,0.00001719,-0.00002031,
 -0.00000229,0.00002659,-0.00000342,0.00000043,0.00001356,0.00024631,-0
 .00001804,-0.00017541,0.00000211,0.00013167,0.00001136,0.00000541,0.00
 018972,0.00002336,0.00154499,0.00002966,-0.00125439,-0.00029329,-0.000
 01963,0.00016377,-0.00085966,0.00084313,-0.00025272,-0.00059327,0.0011
 7881,0.00043827,-0.00157862,0.05500543,-0.00139753,-0.00129542,0.00052
 509,0.00226438,-0.00028978,0.00018054,-0.00036896,0.00011292,-0.000158
 26,0.00005361,-0.00009991,-0.00006717,0.00012387,-0.00024130,0.0002012
 9,-0.00015002,-0.00005075,0.00005682,0.00005148,0.00005343,-0.00001293
 ,0.00010735,0.00003954,-0.00002363,-0.00003785,-0.00002112,0.00002901,
 -0.00003643,-0.00010233,0.00064970,-0.00022886,0.00003919,-0.00001898,
 -0.00028887,-0.00013182,0.00092841,-0.00297924,0.00018516,0.00202416,0
 .12922250,-0.00210494,-0.20537823,-0.00281385,0.00040802,0.00169329,-0
 .00006456,-0.00008416,-0.00002254,0.00001699,0.00009016,-0.00000196,-0
 .00000682,-0.00000409,0.00001449,-0.00003181,0.00002603,0.00003566,0.0
 0006397,0.00009068,-0.00000203,0.00000668,0.00000180,0.00000064,0.0000
 0268,0.00000125,-0.00000544,0.00000087,0.00000115,-0.00000803,-0.00021
 001,-0.00008006,0.00048915,0.00004152,0.00001083,-0.00000203,0.0000224
 5,-0.00000853,-0.00003498,0.00019659,0.00017311,0.00016117,-0.00022815
 ,0.00012594,0.00046848,0.00009032,-0.00051743,-0.00004358,0.00017359,-
 0.00048320,0.00081281,-0.14147890,0.00377951,0.21858562,0.00083698,0.0
 0016777,0.00013905,-0.00069956,0.00116351,0.00030933,-0.00003384,-0.00
 016988,-0.00006406,0.00006041,-0.00000213,-0.00011034,0.00009006,-0.00
 012255,0.00024453,-0.00003977,-0.00006899,-0.00009231,0.00005230,0.000
 06556,0.00011715,0.00005513,0.00002190,0.00003355,-0.00000820,-0.00001
 041,-0.00000115,0.00055747,0.00069966,-0.00170409,-0.00021988,0.000004
 20,0.00026526,0.00037388,-0.00075922,-0.00131534,-0.01034792,0.0010459
 6,-0.01534207,-0.12488571,0.00216462,-0.11502270,-0.01180863,-0.001907
 48,-0.01660264,0.00003499,0.00004500,0.00006468,-0.00000348,-0.0000549
 4,0.00005760,-0.00000373,-0.00002969,0.00004011,-0.00001690,0.00001363
 ,0.00003214,0.00016192,0.00014385,0.00009719,0.00000251,0.00000137,0.0
 0000162,-0.00000082,0.00000156,-0.00000318,-0.00000091,-0.00000206,-0.
 00000108,-0.00018185,-0.00020150,0.00085710,0.00025635,0.00001136,0.00
 009475,-0.00006981,0.00000823,0.00003542,0.00036637,-0.00000285,0.0002
 9566,-0.00019498,0.00021044,0.00086212,0.00086585,-0.00017434,0.000453
 92,-0.00116693,0.00307283,0.00009169,0.01234463,-0.00012089,0.01777028
 ,0.13531290,0.00135573,-0.00005158,0.00042237,-0.00220161,0.00119969,-
 0.00090868,0.00001566,-0.00006463,0.00000219,0.00002119,0.00008354,-0.
 00004452,0.00006676,-0.00009124,0.00001235,0.00009953,-0.00004727,-0.0
 0000523,-0.00002104,0.00002143,0.00008779,-0.00003125,0.00000035,0.000
 01682,0.00001226,-0.00000019,-0.00001417,0.00081670,0.00098465,-0.0011
 3288,-0.00000032,-0.00019048,0.00001518,-0.00097433,0.00103390,0.00086
 603,0.01647350,-0.00190749,0.02552255,0.00232048,-0.04799768,0.0051140
 4,-0.01573680,-0.00137997,-0.02438921,0.00014229,0.00009978,0.00011842
 ,0.00004219,-0.00007760,0.00006917,-0.00001672,-0.00002709,0.00004299,
 0.00001926,-0.00001407,-0.00000223,0.00013881,0.00007441,0.00011981,-0
 .00000235,-0.00000106,0.00000109,-0.00000081,0.00000030,0.00000284,-0.
 00000173,-0.00000014,0.00000325,0.00002355,0.00013576,0.00062736,-0.00
 001363,-0.00014103,0.00000564,-0.00000719,0.00013149,-0.00000720,-0.00
 044935,-0.00003182,-0.00008810,0.00000134,0.00013335,-0.00079575,-0.00
 079888,0.00109923,0.00017068,0.00404112,-0.00458129,-0.00017672,-0.000
 00864,-0.00019187,-0.00015739,-0.00205545,0.05659257,0.00143084,0.0009
 8641,0.00074625,-0.00235736,0.00060150,0.00010163,0.00032207,-0.000192
 02,-0.00022303,0.00001352,0.00008591,-0.00001220,0.00009390,0.00003384
 ,0.00036321,0.00003991,-0.00004989,-0.00005638,-0.00002865,-0.00002375
 ,0.00004827,-0.00005532,-0.00001265,0.00003078,0.00000998,0.00001296,-
 0.00002199,0.00053117,0.00013590,0.00051548,-0.00000867,0.00004749,0.0
 0010368,0.00046478,-0.00021519,0.00073053,0.00013236,0.00068373,-0.000
 67641,-0.11480398,0.00368393,-0.23024794,-0.00026680,-0.00132558,-0.00
 135517,0.00004117,0.00003515,0.00002894,-0.00003312,-0.00009381,0.0000
 0668,-0.00000828,-0.00001333,0.00002496,0.00003661,-0.00000800,-0.0000
 1231,0.00010960,0.00010824,-0.00007383,-0.00000381,-0.00000024,0.00000
 130,-0.00000176,-0.00000010,0.00000071,0.00000030,-0.00000264,0.000003
 82,-0.00029710,0.00008548,0.00053073,0.00007448,-0.00000113,-0.0001290
 9,-0.00003576,-0.00001269,-0.00000624,-0.00004237,0.00005845,0.0002219
 7,-0.00039446,-0.00005687,0.00051086,0.00004212,0.00058710,0.00026402,
 0.00038634,0.00018662,0.00137769,-0.01390555,0.00037337,-0.02183694,0.
 12848375,-0.00539618,0.24793278,-0.00121320,0.00360495,0.00263706,-0.0
 1325050,-0.00041916,-0.01825038,0.00032699,-0.00028206,0.00106283,-0.0
 0005103,-0.00031287,0.00000246,0.00133388,0.00043776,0.00038421,0.0002
 5124,0.00046638,0.00037740,-0.00030835,-0.00025034,-0.00006236,0.00002
 694,-0.00001702,-0.00015780,0.00001648,-0.00001813,0.00000739,0.009025
 02,-0.00092808,0.02168473,0.00155091,-0.00034643,0.00027672,-0.0000388
 8,0.00000632,0.00006452,0.00053134,0.00121391,0.00022211,-0.01116666,-
 0.00120870,-0.01693024,-0.10645400,0.00108125,-0.11014190,0.00068876,0
 .00042954,0.00036473,-0.00006925,-0.00009926,0.00042900,-0.00010938,0.
 00004407,0.00003606,-0.00003093,-0.00001310,0.00002501,-0.00012918,0.0
 0005363,-0.00027489,0.00000797,-0.00000005,-0.00000896,0.00000727,0.00
 000018,-0.00000231,0.00000433,0.00000579,-0.00000346,-0.00276956,0.000
 07743,0.00333491,-0.00012803,-0.00012948,-0.00034217,0.00023477,-0.000
 35949,-0.00013985,0.00005153,0.00001933,-0.00004273,-0.00016747,-0.000
 00545,0.00000394,-0.00001502,0.00012646,0.00033132,0.00068035,-0.00050
 620,0.00032008,0.00031032,0.00042839,0.00011271,-0.00168887,-0.0032702
 6,0.00003009,0.12254223,0.00296221,-0.00333432,-0.00352084,0.01422776,
 0.00320606,0.02656044,-0.00153971,-0.00057079,-0.00305199,0.00042500,0
 .00024274,-0.00014423,0.00042606,0.00017407,0.00100936,-0.00005893,0.0
 0004631,0.00004099,-0.00000145,-0.00004571,-0.00005516,0.00005518,-0.0
 0000536,-0.00003873,-0.00002591,-0.00000139,0.00001860,-0.00099589,0.0
 0055452,0.00019429,-0.00058887,0.00012593,-0.00109346,0.00006489,-0.00
 020490,0.00011950,-0.00057590,0.00165691,-0.00120885,-0.01553290,-0.00
 149012,-0.02445007,0.00317632,-0.05073344,0.00635200,-0.00023902,-0.00
 170908,0.00011752,0.00004863,0.00047748,-0.00032491,0.00000613,0.00010
 996,-0.00005092,0.00003373,-0.00003424,-0.00001968,-0.00023701,0.00009
 801,-0.00002057,0.00000391,0.00000151,-0.00000153,0.00000530,-0.000000
 91,-0.00000902,0.00000390,0.00000043,-0.00000629,-0.00001924,0.0006084
 2,-0.00034230,0.00020701,0.00015505,-0.00002741,-0.00001302,-0.0000232
 2,0.00008208,0.00009020,-0.00003279,-0.00004275,-0.00001038,0.00004793
 ,0.00022775,0.00002558,0.00029992,0.00038016,0.00044830,-0.00031864,0.
 00066275,0.00061646,0.00106888,0.00053351,-0.00315902,-0.00479394,-0.0
 0030202,0.00017068,0.05442469,0.00053586,0.00055614,-0.00083712,-0.001
 18382,-0.00059466,-0.00040056,-0.00060533,-0.00025105,-0.00056389,0.00
 038029,0.00013963,-0.00014496,-0.00176460,-0.00080192,0.00044173,0.000
 05532,-0.00042201,-0.00052084,0.00031075,0.00035562,0.00052828,0.00016
 908,0.00006825,0.00015697,-0.00000805,-0.00000695,-0.00000385,-0.01063
 113,0.00083678,-0.02808106,-0.00198226,0.00081658,0.00104511,0.0001901
 6,-0.00026385,0.00003164,-0.00001996,0.00037529,0.00007081,-0.00101906
 ,-0.00020249,-0.00107735,-0.10595030,0.00164817,-0.21692699,0.00035752
 ,0.00001945,0.00062482,0.00006185,0.00016679,0.00028507,-0.00000631,-0
 .00017246,0.00015057,-0.00000666,0.00004621,0.00000894,0.00090497,0.00
 066652,0.00049093,0.00000678,0.00000309,0.00000310,-0.00000493,0.00000
 147,-0.00000581,-0.00000552,-0.00000843,0.00000517,0.00420284,-0.00005
 623,-0.00286503,0.00092695,-0.00075414,0.00058949,0.00015711,0.0003475
 1,0.00043143,0.00000452,-0.00007768,-0.00001996,0.00001394,0.00022223,
 0.00007771,0.00016769,-0.00012188,0.00020554,0.00031393,-0.00051832,0.
 00019070,-0.00013344,-0.00032715,0.00076040,-0.00008796,-0.00010229,0.
 00110727,0.11464978,-0.00158820,0.24424175\\0.00012476,-0.00003551,-0.
 00000473,-0.00008400,0.00001333,-0.00001407,-0.00002443,0.00001639,0.0
 0000165,0.00001013,-0.00004172,0.00002058,-0.00003992,0.00007520,0.000
 01018,0.00003013,0.00003722,0.00003489,0.00008023,0.00001252,0.0000611
 0,-0.00011731,-0.00019214,-0.00011538,0.00002012,0.00015729,-0.0000299
 0,0.00003177,0.00001282,0.00000037,-0.00003489,0.00002161,0.00001244,-
 0.00000274,0.00000220,-0.00000981,0.00000887,0.00000671,0.00001144,0.0
 0001222,-0.00001943,-0.00002623,0.00000486,-0.00003249,-0.00001173,0.0
 0000628,0.00000295,0.00000401,-0.00000924,-0.00000046,0.00000669,0.000
 00199,-0.00000048,-0.00000258,0.00000077,0.00001842,-0.00000744,-0.000
 00442,0.00000002,0.00000923,-0.00000814,-0.00002806,-0.00003302,-0.000
 02336,-0.00000596,0.00004324,0.00001926,-0.00003009,0.00003554,-0.0000
 1196,-0.00000516,-0.00000313,0.00000748,0.00001042,-0.00000046,0.00002
 099,-0.00001060,-0.00000152,-0.00000355,-0.00001438,0.00000007,-0.0000
 0579,0.00000739,-0.00000030,-0.00000726,-0.00000375,0.00000579,0.00000
 373,0.00000305,0.00000315,-0.00001618,-0.00000904,-0.00000239,0.000004
 02,0.00000907,0.00000024,0.00000557,0.00002264,0.00000209\\\@


 Until you make peace with who you are,
 you'll never be content with what you have.
                           -- Doris Mortman
 Job cpu time:       0 days  0 hours  4 minutes 18.1 seconds.
 Elapsed time:       0 days  0 hours  4 minutes 24.4 seconds.
 File lengths (MBytes):  RWF=    272 Int=      0 D2E=      0 Chk=     16 Scr=      1
 Normal termination of Gaussian 16 at Sat Feb 24 00:41:43 2024.
