 Entering Gaussian System, Link 0=g16
 Input=/Volumes/SSD-PMU3/b3lyp_6-31gd_freq/CQZJUUNZJGFFFN-YXYNXPFZSA-N_calculating/gaussianinput0.gjf
 Output=/Volumes/SSD-PMU3/b3lyp_6-31gd_freq/CQZJUUNZJGFFFN-YXYNXPFZSA-N_calculating/gaussianinput0.log
 Initial command:
 /Applications/g16/l1.exe "/Users/macmini_m1_2022/PycharmProjects/sphere_model/sphere_model_lib/Gau-75962.inp" -scrdir="/Users/macmini_m1_2022/PycharmProjects/sphere_model/sphere_model_lib/"
 Entering Link 1 = /Applications/g16/l1.exe PID=     75963.
  
 Copyright (c) 1988,1990,1992,1993,1995,1998,2003,2009,2016,
            Gaussian, Inc.  All Rights Reserved.
  
 This is part of the Gaussian(R) 16 program.  It is based on
 the Gaussian(R) 09 system (copyright 2009, Gaussian, Inc.),
 the Gaussian(R) 03 system (copyright 2003, Gaussian, Inc.),
 the Gaussian(R) 98 system (copyright 1998, Gaussian, Inc.),
 the Gaussian(R) 94 system (copyright 1995, Gaussian, Inc.),
 the Gaussian 92(TM) system (copyright 1992, Gaussian, Inc.),
 the Gaussian 90(TM) system (copyright 1990, Gaussian, Inc.),
 the Gaussian 88(TM) system (copyright 1988, Gaussian, Inc.),
 the Gaussian 86(TM) system (copyright 1986, Carnegie Mellon
 University), and the Gaussian 82(TM) system (copyright 1983,
 Carnegie Mellon University). Gaussian is a federally registered
 trademark of Gaussian, Inc.
  
 This software contains proprietary and confidential information,
 including trade secrets, belonging to Gaussian, Inc.
  
 This software is provided under written license and may be
 used, copied, transmitted, or stored only in accord with that
 written license.
  
 The following legend is applicable only to US Government
 contracts under FAR:
  
                    RESTRICTED RIGHTS LEGEND
  
 Use, reproduction and disclosure by the US Government is
 subject to restrictions as set forth in subparagraphs (a)
 and (c) of the Commercial Computer Software - Restricted
 Rights clause in FAR 52.227-19.
  
 Gaussian, Inc.
 340 Quinnipiac St., Bldg. 40, Wallingford CT 06492
  
  
 ---------------------------------------------------------------
 Warning -- This program may not be used in any manner that
 competes with the business of Gaussian, Inc. or will provide
 assistance to any competitor of Gaussian, Inc.  The licensee
 of this program is prohibited from giving any competitor of
 Gaussian, Inc. access to this program.  By using this program,
 the user acknowledges that Gaussian, Inc. is engaged in the
 business of creating and licensing software in the field of
 computational chemistry and represents and warrants to the
 licensee that it is not a competitor of Gaussian, Inc. and that
 it will not use this program in any manner prohibited above.
 ---------------------------------------------------------------
  

 Cite this work as:
 Gaussian 16, Revision A.03,
 M. J. Frisch, G. W. Trucks, H. B. Schlegel, G. E. Scuseria, 
 M. A. Robb, J. R. Cheeseman, G. Scalmani, V. Barone, 
 G. A. Petersson, H. Nakatsuji, X. Li, M. Caricato, A. V. Marenich, 
 J. Bloino, B. G. Janesko, R. Gomperts, B. Mennucci, H. P. Hratchian, 
 J. V. Ortiz, A. F. Izmaylov, J. L. Sonnenberg, D. Williams-Young, 
 F. Ding, F. Lipparini, F. Egidi, J. Goings, B. Peng, A. Petrone, 
 T. Henderson, D. Ranasinghe, V. G. Zakrzewski, J. Gao, N. Rega, 
 G. Zheng, W. Liang, M. Hada, M. Ehara, K. Toyota, R. Fukuda, 
 J. Hasegawa, M. Ishida, T. Nakajima, Y. Honda, O. Kitao, H. Nakai, 
 T. Vreven, K. Throssell, J. A. Montgomery, Jr., J. E. Peralta, 
 F. Ogliaro, M. J. Bearpark, J. J. Heyd, E. N. Brothers, K. N. Kudin, 
 V. N. Staroverov, T. A. Keith, R. Kobayashi, J. Normand, 
 K. Raghavachari, A. P. Rendell, J. C. Burant, S. S. Iyengar, 
 J. Tomasi, M. Cossi, J. M. Millam, M. Klene, C. Adamo, R. Cammi, 
 J. W. Ochterski, R. L. Martin, K. Morokuma, O. Farkas, 
 J. B. Foresman, and D. J. Fox, Gaussian, Inc., Wallingford CT, 2016.
 
 ******************************************
 Gaussian 16:  EM64M-G16RevA.03 25-Dec-2016
                23-Feb-2024 
 ******************************************
 %nprocshared=10
 Will use up to   10 processors via shared memory.
 %mem=12GB
 %chk= 0.chk
 ---------------------
 # freq b3lyp/6-31g(d)
 ---------------------
 1/10=4,30=1,38=1/1,3;
 2/12=2,17=6,18=5,40=1/2;
 3/5=1,6=6,7=1,11=2,25=1,30=1,71=2,74=-5,140=1/1,2,3;
 4//1;
 5/5=2,38=5,98=1/2;
 8/6=4,10=90,11=11/1;
 11/6=1,8=1,9=11,15=111,16=1/1,2,10;
 10/6=1/2;
 6/7=2,8=2,9=2,10=2,28=1/1;
 7/8=1,10=1,25=1/1,2,3,16;
 1/10=4,30=1/3;
 99//99;
 ---------
 good luck
 ---------
 Symbolic Z-matrix:
 Charge =  0 Multiplicity = 1
 O                     1.21561   0.        0. 
 C                     0.        0.        0. 
 C                    -0.85223  -1.26416  -0.00105 
 C                    -1.74951  -1.25172   1.26065 
 C                    -1.74116  -1.25359  -1.26964 
 C                    -2.62585   0.00876  -1.27206 
 C                    -1.73063   1.26193  -1.27462 
 C                    -0.85068   1.26608  -0.00105 
 C                    -1.75394   1.25676   1.25661 
 C                    -2.66831   0.0056    1.28109 
 C                    -3.58078  -0.0371    2.51212 
 C                    -3.57165   0.95864   3.50057 
 C                    -4.41286   0.89428   4.6093 
 C                    -5.29746  -0.18224   4.76008 
 C                    -6.16653  -0.25504   5.89771 
 N                    -6.87269  -0.31476   6.82044 
 C                    -5.32201  -1.18971   3.78129 
 C                    -4.4762   -1.10931   2.68262 
 C                    -3.52464   0.01483  -0.0194 
 H                    -0.18726  -2.13354   0.00903 
 H                    -1.13061  -1.26836   2.16688 
 H                    -2.35396  -2.16693   1.27508 
 H                    -1.11318  -1.28129  -2.16931 
 H                    -2.36341  -2.15876  -1.2855 
 H                    -3.25946   0.00918  -2.1682 
 H                    -1.09721   1.27945  -2.17079 
 H                    -2.34405   2.17275  -1.29702 
 H                    -0.18313   2.13323   0.01548 
 H                    -2.36173   2.17131   1.25961 
 H                    -1.12528   1.28413   2.15588 
 H                    -2.90103   1.80584   3.4182 
 H                    -4.38651   1.67725   5.36051 
 H                    -6.00338  -2.02758   3.8896 
 H                    -4.51764  -1.90263   1.94246 
 H                    -4.17204   0.90182  -0.02041 
 H                    -4.1882   -0.85843  -0.03895 
 

 GradGradGradGradGradGradGradGradGradGradGradGradGradGradGradGradGradGrad
 Berny optimization.
 Initialization pass.
 Trust Radius=3.00D-01 FncErr=1.00D-07 GrdErr=1.00D-07 EigMax=2.50D+02 EigMin=1.00D-04
 Number of steps in this run=      2 maximum allowed number of steps=      2.
 GradGradGradGradGradGradGradGradGradGradGradGradGradGradGradGradGradGrad

                          Input orientation:                          
 ---------------------------------------------------------------------
 Center     Atomic      Atomic             Coordinates (Angstroms)
 Number     Number       Type             X           Y           Z
 ---------------------------------------------------------------------
      1          8           0        1.215609    0.000000    0.000000
      2          6           0        0.000000    0.000000    0.000000
      3          6           0       -0.852228   -1.264160   -0.001045
      4          6           0       -1.749513   -1.251723    1.260651
      5          6           0       -1.741159   -1.253594   -1.269642
      6          6           0       -2.625851    0.008758   -1.272056
      7          6           0       -1.730630    1.261926   -1.274624
      8          6           0       -0.850675    1.266075   -0.001045
      9          6           0       -1.753936    1.256757    1.256613
     10          6           0       -2.668310    0.005596    1.281094
     11          6           0       -3.580783   -0.037096    2.512119
     12          6           0       -3.571650    0.958637    3.500573
     13          6           0       -4.412856    0.894280    4.609304
     14          6           0       -5.297461   -0.182238    4.760084
     15          6           0       -6.166528   -0.255044    5.897709
     16          7           0       -6.872692   -0.314764    6.820440
     17          6           0       -5.322010   -1.189710    3.781286
     18          6           0       -4.476201   -1.109312    2.682624
     19          6           0       -3.524641    0.014834   -0.019397
     20          1           0       -0.187261   -2.133543    0.009026
     21          1           0       -1.130609   -1.268361    2.166879
     22          1           0       -2.353960   -2.166934    1.275076
     23          1           0       -1.113182   -1.281294   -2.169310
     24          1           0       -2.363405   -2.158763   -1.285501
     25          1           0       -3.259464    0.009179   -2.168198
     26          1           0       -1.097207    1.279451   -2.170787
     27          1           0       -2.344054    2.172747   -1.297016
     28          1           0       -0.183132    2.133226    0.015477
     29          1           0       -2.361731    2.171315    1.259613
     30          1           0       -1.125277    1.284132    2.155876
     31          1           0       -2.901026    1.805835    3.418198
     32          1           0       -4.386511    1.677252    5.360508
     33          1           0       -6.003382   -2.027581    3.889599
     34          1           0       -4.517639   -1.902634    1.942457
     35          1           0       -4.172037    0.901816   -0.020409
     36          1           0       -4.188204   -0.858430   -0.038948
 ---------------------------------------------------------------------
                    Distance matrix (angstroms):
                    1          2          3          4          5
     1  O    0.000000
     2  C    1.215609   0.000000
     3  C    2.423644   1.524596   0.000000
     4  C    3.456588   2.493361   1.548274   0.000000
     5  C    3.453399   2.493015   1.549080   2.530307   0.000000
     6  C    4.046606   2.917755   2.526169   2.961652   1.541499
     7  C    3.449268   2.492429   2.962213   3.570211   2.515547
     8  C    2.423319   1.525318   2.530235   2.956196   2.958214
     9  C    3.460739   2.496959   2.958007   2.508487   3.561459
    10  C    4.089751   2.959917   2.560140   1.557388   2.991893
    11  C    5.414563   4.374257   3.907261   2.528842   4.377876
    12  C    6.007566   5.092119   4.959578   3.636362   5.567730
    13  C    7.329737   6.443502   6.212266   4.786669   6.805390
    14  C    8.069182   7.124234   6.602954   5.096839   7.081856
    15  C    9.452194   8.536632   8.003462   6.481180   8.482447
    16  N   10.584805   9.687692   9.147677   7.618143   9.626186
    17  C    7.645521   6.636062   5.855811   4.372663   6.191805
    18  C    6.389346   5.335112   4.512121   3.078492   4.808501
    19  C    4.740313   3.524726   2.962761   2.528590   2.520482
    20  H    2.553455   2.141764   1.094582   2.187419   2.196338
    21  H    3.436400   2.753612   2.185728   1.097528   3.490368
    22  H    4.366148   3.444205   2.167645   1.096894   2.772238
    23  H    3.430873   2.754414   2.183979   3.488613   1.097509
    24  H    4.372884   3.449414   2.175729   2.771728   1.098532
    25  H    4.972670   3.914751   3.480335   3.953079   2.169619
    26  H    3.420297   2.748304   3.352276   4.313596   2.764607
    27  H    4.367411   3.449300   3.964520   4.315337   3.479087
    28  H    2.550955   2.141128   3.462686   3.932161   3.943289
    29  H    4.370194   3.446594   3.958579   3.477355   4.302586
    30  H    3.431697   2.750099   3.349725   2.760735   4.307382
    31  H    5.647283   4.833329   5.031269   3.915310   5.716751
    32  H    7.932967   7.126689   7.063237   5.686957   7.716647
    33  H    8.447124   7.435097   6.500332   5.060506   6.736718
    34  H    6.345336   5.272781   4.197629   2.924221   4.295076
    35  H    5.462638   4.268440   3.963957   3.485322   3.480739
    36  H    5.471710   4.275450   3.360772   2.791210   2.767452
                    6          7          8          9         10
     6  C    0.000000
     7  C    1.540084   0.000000
     8  C    2.519437   1.548012   0.000000
     9  C    2.951593   2.531350   1.548441   0.000000
    10  C    2.553505   2.998217   2.556655   1.549865   0.000000
    11  C    3.903073   4.410209   3.932904   2.566656   1.532923
    12  C    4.957297   5.126777   4.445172   2.903156   2.578836
    13  C    6.210308   6.476890   5.838038   4.294390   3.861370
    14  C    6.600052   7.157206   6.673819   5.186674   4.364755
    15  C    8.000720   8.568591   8.085011   6.579991   5.798155
    16  N    9.144879   9.718890   9.235605   7.721885   6.961596
    17  C    5.851655   6.668640   6.350570   5.009025   3.836905
    18  C    4.507036   5.368495   5.097939   3.878468   2.544755
    19  C    1.541757   2.519783   2.952293   2.511169   1.557134
    20  H    3.489605   3.944484   3.463758   3.937649   3.514211
    21  H    3.961446   4.313504   3.346883   2.755602   2.184515
    22  H    3.360869   4.318170   3.959028   3.475921   2.195163
    23  H    2.181162   2.765804   3.355499   4.311521   3.997474
    24  H    2.183393   3.478741   3.958244   4.301113   3.371176
    25  H    1.097514   2.169143   3.475429   3.943653   3.499584
    26  H    2.181543   1.097561   2.183744   3.489825   4.000819
    27  H    2.182403   1.098356   2.175265   2.776382   3.383539
    28  H    3.483961   2.195057   1.094458   2.185416   3.507806
    29  H    3.340024   2.765436   2.166104   1.098108   2.187416
    30  H    3.953355   3.483572   2.174406   1.097559   2.186515
    31  H    5.030277   4.867057   4.023245   2.507938   2.803967
    32  H    7.062202   7.158993   6.435639   4.893794   4.731624
    33  H    6.495928   7.466356   7.248149   5.981411   4.696894
    34  H    4.191107   5.303911   5.221546   4.253256   2.738386
    35  H    2.180565   2.768249   3.341333   2.757532   2.181356
    36  H    2.171064   3.473107   3.956521   3.475364   2.190692
                   11         12         13         14         15
    11  C    0.000000
    12  C    1.403071   0.000000
    13  C    2.440900   1.393217   0.000000
    14  C    2.832207   2.422063   1.401482   0.000000
    15  C    4.265653   3.735328   2.460955   1.433446   0.000000
    16  N    5.429125   4.851798   3.521605   2.596918   1.163472
    17  C    2.443599   2.785311   2.419750   1.404866   2.462937
    18  C    1.407300   2.400764   2.780376   2.418631   3.731454
    19  C    2.532671   3.644607   4.794499   5.101487   6.485719
    20  H    4.709199   5.762514   6.941608   7.245294   8.599824
    21  H    2.763794   3.563277   4.627699   5.026632   6.348731
    22  H    2.751650   4.025519   4.972641   4.974786   6.289653
    23  H    5.436254   6.573350   7.846692   8.169003   9.574251
    24  H    4.517233   5.838197   6.947665   7.004601   8.347838
    25  H    4.691562   5.756205   6.931685   7.224345   8.577860
    26  H    5.461781   6.195976   7.557216   8.235025   9.651597
    27  H    4.574103   5.098815   6.387412   7.138419   8.501150
    28  H    4.742104   5.000761   6.366223   7.350444   8.723847
    29  H    2.816370   2.820708   4.130177   5.139165   6.471138
    30  H    2.811061   2.810498   4.120615   5.132179   6.464100
    31  H    2.163202   1.083636   2.129623   3.390574   4.588976
    32  H    3.420746   2.154011   1.085379   2.155932   2.681569
    33  H    3.424685   3.870679   3.403677   2.159018   2.683470
    34  H    2.163896   3.392564   3.865977   3.392183   4.591014
    35  H    2.764929   3.572255   4.635978   5.029400   6.351412
    36  H    2.747998   4.026174   4.972797   4.971760   6.286632
                   16         17         18         19         20
    16  N    0.000000
    17  C    3.522301   0.000000
    18  C    4.847267   1.388854   0.000000
    19  C    7.622431   4.373403   3.077351   0.000000
    20  H    9.715879   6.440995   5.156761   3.969186   0.000000
    21  H    7.452281   4.492253   3.388846   3.486801   2.508939
    22  H    7.389217   4.005668   2.757474   2.793970   2.509698
    23  H   10.720156   7.289185   5.905992   3.480978   2.515712
    24  H    9.457287   5.946826   4.616413   2.770562   2.532200
    25  H    9.693089   6.409976   5.124641   2.165109   4.332435
    26  H   10.804625   7.705381   6.378039   3.481404   4.150676
    27  H    9.622337   6.779638   5.581711   2.771766   4.990154
    28  H    9.851416   7.185492   6.004845   3.956575   4.266776
    29  H    7.579720   5.139900   4.154330   2.763808   4.982378
    30  H    7.572807   5.135603   4.151473   3.478488   4.143590
    31  H    5.643255   3.868628   3.394161   3.926021   5.874153
    32  H    3.504372   3.404199   3.865753   5.696475   7.797065
    33  H    3.504179   1.085370   2.152275   5.059236   6.992663
    34  H    5.644672   2.129921   1.085783   2.917465   4.748015
    35  H    7.454584   4.488853   3.382830   1.098116   5.009262
    36  H    7.386017   3.998681   2.748243   1.096945   4.199495
                   21         22         23         24         25
    21  H    0.000000
    22  H    1.760492   0.000000
    23  H    4.336243   3.766654   0.000000
    24  H    3.772470   2.560607   1.764689   0.000000
    25  H    4.995701   4.172714   2.504366   2.506401   0.000000
    26  H    5.030687   5.032988   2.560795   3.769390   2.507778
    27  H    5.031127   5.044659   3.769130   4.331569   2.505586
    28  H    4.134856   4.979002   4.158994   4.986713   4.329415
    29  H    3.764328   4.338284   5.023634   5.022667   4.150981
    30  H    2.552522   3.767669   5.028796   5.022904   4.987773
    31  H    3.761762   4.546993   6.629253   6.175100   5.879139
    32  H    5.429254   5.966555   8.727304   7.935830   7.793210
    33  H    5.223801   4.491484   7.821853   6.328373   6.955169
    34  H    3.453207   2.279640   5.374292   3.889221   4.704840
    35  H    4.329455   3.794853   4.329011   3.773427   2.498517
    36  H    3.792440   2.608312   3.764707   2.564108   2.479720
                   26         27         28         29         30
    26  H    0.000000
    27  H    1.765242   0.000000
    28  H    2.518773   2.528593   0.000000
    29  H    3.763255   2.556691   2.509107   0.000000
    30  H    4.326757   3.767959   2.487952   1.766126   0.000000
    31  H    5.896405   4.762151   4.367224   2.254751   2.240294
    32  H    8.227890   6.981388   6.815106   4.600127   4.589102
    33  H    8.469669   7.611466   8.136120   6.148917   6.145661
    34  H    6.224451   5.641577   6.228111   4.659536   4.659307
    35  H    3.771116   2.566420   4.174808   2.554857   3.763659
    36  H    4.320826   3.764526   4.999357   3.768504   4.334668
                   31         32         33         34         35
    31  H    0.000000
    32  H    2.448626   0.000000
    33  H    4.953979   4.301585   0.000000
    34  H    4.306273   4.951348   2.452429   0.000000
    35  H    3.775810   5.440732   5.217600   3.440527   0.000000
    36  H    4.550494   5.968512   4.482774   2.263814   1.760418
                   36
    36  H    0.000000
 Stoichiometry    C17H17NO
 Framework group  C1[X(C17H17NO)]
 Deg. of freedom   102
 Full point group                 C1      NOp   1
 Largest Abelian subgroup         C1      NOp   1
 Largest concise Abelian subgroup C1      NOp   1
                         Standard orientation:                         
 ---------------------------------------------------------------------
 Center     Atomic      Atomic             Coordinates (Angstroms)
 Number     Number       Type             X           Y           Z
 ---------------------------------------------------------------------
      1          8           0        3.907013   -1.512158   -1.400844
      2          6           0        3.130633   -0.822687   -0.768729
      3          6           0        2.547400    0.490473   -1.278477
      4          6           0        1.004682    0.362934   -1.308619
      5          6           0        2.955333    1.619466   -0.299390
      6          6           0        2.431841    1.294363    1.113579
      7          6           0        3.044965   -0.034173    1.594131
      8          6           0        2.627931   -1.170209    0.628810
      9          6           0        1.083818   -1.278076    0.586989
     10          6           0        0.441676    0.049093    0.109120
     11          6           0       -1.088894   -0.018394    0.057605
     12          6           0       -1.811716   -1.168995    0.407254
     13          6           0       -3.203426   -1.201791    0.351399
     14          6           0       -3.918168   -0.068964   -0.060911
     15          6           0       -5.350153   -0.094804   -0.120241
     16          7           0       -6.512467   -0.114610   -0.168210
     17          6           0       -3.212984    1.093273   -0.415270
     18          6           0       -1.825571    1.107921   -0.353750
     19          6           0        0.894910    1.176350    1.083048
     20          1           0        2.937026    0.678604   -2.283916
     21          1           0        0.702700   -0.428469   -2.006514
     22          1           0        0.578776    1.298948   -1.690270
     23          1           0        4.047231    1.729480   -0.285939
     24          1           0        2.541658    2.574069   -0.652065
     25          1           0        2.716165    2.099723    1.802847
     26          1           0        4.139068    0.041340    1.637449
     27          1           0        2.699034   -0.272586    2.608959
     28          1           0        3.068831   -2.125894    0.928994
     29          1           0        0.722077   -1.534778    1.591523
     30          1           0        0.794804   -2.100415   -0.079993
     31          1           0       -1.293440   -2.064089    0.730461
     32          1           0       -3.739538   -2.104439    0.626820
     33          1           0       -3.757774    1.975429   -0.736258
     34          1           0       -1.307910    2.020424   -0.633555
     35          1           0        0.510095    0.962197    2.088988
     36          1           0        0.458688    2.135296    0.777399
 ---------------------------------------------------------------------
 Rotational constants (GHZ):           1.1027995           0.1938261           0.1882894
 Standard basis: 6-31G(d) (6D, 7F)
 There are   319 symmetry adapted cartesian basis functions of A   symmetry.
 There are   319 symmetry adapted basis functions of A   symmetry.
   319 basis functions,   600 primitive gaussians,   319 cartesian basis functions
    67 alpha electrons       67 beta electrons
       nuclear repulsion energy      1382.6880450774 Hartrees.
 NAtoms=   36 NActive=   36 NUniq=   36 SFac= 1.00D+00 NAtFMM=   60 NAOKFM=F Big=F
 Integral buffers will be    131072 words long.
 Raffenetti 2 integral format.
 Two-electron integral symmetry is turned on.
 One-electron integrals computed using PRISM.
 NBasis=   319 RedAO= T EigKep=  4.02D-04  NBF=   319
 NBsUse=   319 1.00D-06 EigRej= -1.00D+00 NBFU=   319
 ExpMin= 1.61D-01 ExpMax= 5.48D+03 ExpMxC= 8.25D+02 IAcc=3 IRadAn=         5 AccDes= 0.00D+00
 Harris functional with IExCor=  402 and IRadAn=       5 diagonalized for initial guess.
 HarFok:  IExCor=  402 AccDes= 0.00D+00 IRadAn=         5 IDoV= 1 UseB2=F ITyADJ=14
 ICtDFT=  3500011 ScaDFX=  1.000000  1.000000  1.000000  1.000000
 FoFCou: FMM=F IPFlag=           0 FMFlag=      100000 FMFlg1=           0
         NFxFlg=           0 DoJE=T BraDBF=F KetDBF=T FulRan=T
         wScrn=  0.000000 ICntrl=       500 IOpCl=  0 I1Cent=   200000004 NGrid=           0
         NMat0=    1 NMatS0=      1 NMatT0=    0 NMatD0=    1 NMtDS0=    0 NMtDT0=    0
 Petite list used in FoFCou.
 Requested convergence on RMS density matrix=1.00D-08 within 128 cycles.
 Requested convergence on MAX density matrix=1.00D-06.
 Requested convergence on             energy=1.00D-06.
 No special actions if energy rises.
 Integral accuracy reduced to 1.0D-05 until final iterations.
 Initial convergence to 1.0D-05 achieved.  Increase integral accuracy.
 SCF Done:  E(RB3LYP) =  -788.026818442     A.U. after   15 cycles
            NFock= 15  Conv=0.73D-08     -V/T= 2.0096
 DoSCS=F DFT=T ScalE2(SS,OS)=  1.000000  1.000000
 Range of M.O.s used for correlation:     1   319
 NBasis=   319 NAE=    67 NBE=    67 NFC=     0 NFV=     0
 NROrb=    319 NOA=    67 NOB=    67 NVA=   252 NVB=   252
 Symmetrizing basis deriv contribution to polar:
 IMax=3 JMax=2 DiffMx= 0.00D+00
 G2DrvN: will do    37 centers at a time, making    1 passes.
 Calling FoFCou, ICntrl=  3107 FMM=F I1Cent=   0 AccDes= 0.00D+00.
 End of G2Drv F.D. properties file   721 does not exist.
 End of G2Drv F.D. properties file   722 does not exist.
 End of G2Drv F.D. properties file   788 does not exist.
          IDoAtm=111111111111111111111111111111111111
          Differentiating once with respect to electric field.
                with respect to dipole field.
          Differentiating once with respect to nuclear coordinates.
 Keep R1 ints in memory in canonical form, NReq=1318967066.
          There are   111 degrees of freedom in the 1st order CPHF.  IDoFFX=6 NUNeed=     3.
    108 vectors produced by pass  0 Test12= 1.69D-14 1.00D-09 XBig12= 2.54D+02 1.06D+01.
 AX will form   108 AO Fock derivatives at one time.
    108 vectors produced by pass  1 Test12= 1.69D-14 1.00D-09 XBig12= 5.51D+01 2.48D+00.
    108 vectors produced by pass  2 Test12= 1.69D-14 1.00D-09 XBig12= 8.68D-01 1.18D-01.
    108 vectors produced by pass  3 Test12= 1.69D-14 1.00D-09 XBig12= 3.78D-03 9.40D-03.
    108 vectors produced by pass  4 Test12= 1.69D-14 1.00D-09 XBig12= 5.90D-06 2.55D-04.
     76 vectors produced by pass  5 Test12= 1.69D-14 1.00D-09 XBig12= 6.01D-09 8.29D-06.
     11 vectors produced by pass  6 Test12= 1.69D-14 1.00D-09 XBig12= 5.46D-12 3.97D-07.
      3 vectors produced by pass  7 Test12= 1.69D-14 1.00D-09 XBig12= 4.53D-15 8.53D-09.
 InvSVY:  IOpt=1 It=  1 EMax= 1.07D-14
 Solved reduced A of dimension   630 with   111 vectors.
 Isotropic polarizability for W=    0.000000      174.66 Bohr**3.
 End of Minotr F.D. properties file   721 does not exist.
 End of Minotr F.D. properties file   722 does not exist.
 End of Minotr F.D. properties file   788 does not exist.

 **********************************************************************

            Population analysis using the SCF density.

 **********************************************************************

 Orbital symmetries:
       Occupied  (A) (A) (A) (A) (A) (A) (A) (A) (A) (A) (A) (A)
                 (A) (A) (A) (A) (A) (A) (A) (A) (A) (A) (A) (A)
                 (A) (A) (A) (A) (A) (A) (A) (A) (A) (A) (A) (A)
                 (A) (A) (A) (A) (A) (A) (A) (A) (A) (A) (A) (A)
                 (A) (A) (A) (A) (A) (A) (A) (A) (A) (A) (A) (A)
                 (A) (A) (A) (A) (A) (A) (A)
       Virtual   (A) (A) (A) (A) (A) (A) (A) (A) (A) (A) (A) (A)
                 (A) (A) (A) (A) (A) (A) (A) (A) (A) (A) (A) (A)
                 (A) (A) (A) (A) (A) (A) (A) (A) (A) (A) (A) (A)
                 (A) (A) (A) (A) (A) (A) (A) (A) (A) (A) (A) (A)
                 (A) (A) (A) (A) (A) (A) (A) (A) (A) (A) (A) (A)
                 (A) (A) (A) (A) (A) (A) (A) (A) (A) (A) (A) (A)
                 (A) (A) (A) (A) (A) (A) (A) (A) (A) (A) (A) (A)
                 (A) (A) (A) (A) (A) (A) (A) (A) (A) (A) (A) (A)
                 (A) (A) (A) (A) (A) (A) (A) (A) (A) (A) (A) (A)
                 (A) (A) (A) (A) (A) (A) (A) (A) (A) (A) (A) (A)
                 (A) (A) (A) (A) (A) (A) (A) (A) (A) (A) (A) (A)
                 (A) (A) (A) (A) (A) (A) (A) (A) (A) (A) (A) (A)
                 (A) (A) (A) (A) (A) (A) (A) (A) (A) (A) (A) (A)
                 (A) (A) (A) (A) (A) (A) (A) (A) (A) (A) (A) (A)
                 (A) (A) (A) (A) (A) (A) (A) (A) (A) (A) (A) (A)
                 (A) (A) (A) (A) (A) (A) (A) (A) (A) (A) (A) (A)
                 (A) (A) (A) (A) (A) (A) (A) (A) (A) (A) (A) (A)
                 (A) (A) (A) (A) (A) (A) (A) (A) (A) (A) (A) (A)
                 (A) (A) (A) (A) (A) (A) (A) (A) (A) (A) (A) (A)
                 (A) (A) (A) (A) (A) (A) (A) (A) (A) (A) (A) (A)
                 (A) (A) (A) (A) (A) (A) (A) (A) (A) (A) (A) (A)
 The electronic state is 1-A.
 Alpha  occ. eigenvalues --  -19.14084 -14.33527 -10.27189 -10.24049 -10.22850
 Alpha  occ. eigenvalues --  -10.22452 -10.22379 -10.22100 -10.22076 -10.21344
 Alpha  occ. eigenvalues --  -10.21267 -10.20601 -10.20503 -10.20501 -10.20396
 Alpha  occ. eigenvalues --  -10.20356 -10.20117 -10.20073 -10.20004  -1.03923
 Alpha  occ. eigenvalues --   -0.90736  -0.89436  -0.87481  -0.81348  -0.79197
 Alpha  occ. eigenvalues --   -0.77906  -0.77146  -0.75861  -0.69081  -0.66556
 Alpha  occ. eigenvalues --   -0.65353  -0.63431  -0.60960  -0.59411  -0.58238
 Alpha  occ. eigenvalues --   -0.56822  -0.52280  -0.49395  -0.48628  -0.47384
 Alpha  occ. eigenvalues --   -0.46822  -0.46221  -0.45316  -0.44901  -0.44452
 Alpha  occ. eigenvalues --   -0.43992  -0.43077  -0.42023  -0.41184  -0.41035
 Alpha  occ. eigenvalues --   -0.40167  -0.38672  -0.37888  -0.37605  -0.37030
 Alpha  occ. eigenvalues --   -0.35793  -0.35728  -0.34925  -0.34612  -0.33947
 Alpha  occ. eigenvalues --   -0.32958  -0.31489  -0.31298  -0.30714  -0.27638
 Alpha  occ. eigenvalues --   -0.26009  -0.23838
 Alpha virt. eigenvalues --   -0.05247  -0.02678  -0.01707   0.03641   0.05614
 Alpha virt. eigenvalues --    0.07255   0.07840   0.09727   0.10671   0.11608
 Alpha virt. eigenvalues --    0.11924   0.12206   0.13242   0.13526   0.14354
 Alpha virt. eigenvalues --    0.14512   0.15747   0.16024   0.17265   0.17499
 Alpha virt. eigenvalues --    0.18011   0.18250   0.18759   0.19459   0.20016
 Alpha virt. eigenvalues --    0.20762   0.20813   0.22034   0.22867   0.23070
 Alpha virt. eigenvalues --    0.24397   0.25404   0.26734   0.27170   0.27474
 Alpha virt. eigenvalues --    0.28212   0.30747   0.32204   0.32937   0.33275
 Alpha virt. eigenvalues --    0.35399   0.36518   0.40771   0.46362   0.48623
 Alpha virt. eigenvalues --    0.49255   0.49819   0.50211   0.51428   0.51689
 Alpha virt. eigenvalues --    0.53434   0.54140   0.54697   0.55877   0.56366
 Alpha virt. eigenvalues --    0.56775   0.57474   0.58224   0.58949   0.59775
 Alpha virt. eigenvalues --    0.60450   0.61262   0.62781   0.63215   0.63340
 Alpha virt. eigenvalues --    0.65111   0.65579   0.66272   0.66863   0.67112
 Alpha virt. eigenvalues --    0.67767   0.70078   0.70387   0.70780   0.72196
 Alpha virt. eigenvalues --    0.73998   0.74296   0.75758   0.76287   0.77705
 Alpha virt. eigenvalues --    0.77786   0.79241   0.79544   0.80737   0.81335
 Alpha virt. eigenvalues --    0.82178   0.84106   0.84303   0.85118   0.85641
 Alpha virt. eigenvalues --    0.86040   0.86367   0.86675   0.87634   0.87692
 Alpha virt. eigenvalues --    0.88782   0.89976   0.90594   0.91791   0.93050
 Alpha virt. eigenvalues --    0.93121   0.94206   0.95402   0.96564   0.97373
 Alpha virt. eigenvalues --    0.97615   0.98518   1.00445   1.04067   1.07784
 Alpha virt. eigenvalues --    1.08107   1.08717   1.10539   1.12180   1.14099
 Alpha virt. eigenvalues --    1.15361   1.15600   1.16263   1.17079   1.20199
 Alpha virt. eigenvalues --    1.20624   1.22538   1.24935   1.25427   1.26381
 Alpha virt. eigenvalues --    1.28778   1.32794   1.36889   1.39442   1.40904
 Alpha virt. eigenvalues --    1.43155   1.43306   1.43823   1.45692   1.47178
 Alpha virt. eigenvalues --    1.48877   1.50841   1.51195   1.53819   1.55408
 Alpha virt. eigenvalues --    1.58814   1.59605   1.59850   1.64110   1.66262
 Alpha virt. eigenvalues --    1.67812   1.70214   1.71974   1.73048   1.73861
 Alpha virt. eigenvalues --    1.75746   1.76070   1.76505   1.77680   1.79415
 Alpha virt. eigenvalues --    1.80049   1.81127   1.81228   1.82872   1.83836
 Alpha virt. eigenvalues --    1.84623   1.85826   1.87974   1.89177   1.90811
 Alpha virt. eigenvalues --    1.93695   1.94889   1.95482   1.95913   1.97554
 Alpha virt. eigenvalues --    1.99788   2.00268   2.01632   2.02685   2.05405
 Alpha virt. eigenvalues --    2.06610   2.06724   2.07688   2.09920   2.11302
 Alpha virt. eigenvalues --    2.11721   2.12746   2.13428   2.14656   2.15652
 Alpha virt. eigenvalues --    2.16968   2.19809   2.20971   2.22889   2.24795
 Alpha virt. eigenvalues --    2.26810   2.28295   2.28628   2.30372   2.32067
 Alpha virt. eigenvalues --    2.33919   2.34867   2.37264   2.39129   2.41151
 Alpha virt. eigenvalues --    2.42128   2.45446   2.45880   2.48506   2.49798
 Alpha virt. eigenvalues --    2.51630   2.55233   2.56955   2.58782   2.60904
 Alpha virt. eigenvalues --    2.62169   2.63900   2.66803   2.67734   2.69146
 Alpha virt. eigenvalues --    2.70300   2.72138   2.72781   2.74064   2.74834
 Alpha virt. eigenvalues --    2.77199   2.78821   2.79822   2.80393   2.82019
 Alpha virt. eigenvalues --    2.84144   2.96406   3.00362   3.01863   3.03628
 Alpha virt. eigenvalues --    3.16934   3.25659   3.44046   4.03475   4.08707
 Alpha virt. eigenvalues --    4.09012   4.10120   4.14638   4.19008   4.25743
 Alpha virt. eigenvalues --    4.28115   4.29486   4.30279   4.33768   4.48080
 Alpha virt. eigenvalues --    4.53019   4.56598   4.70174   4.75630   4.79218
 Alpha virt. eigenvalues --    4.83552   4.84141
          Condensed to atoms (all electrons):
               1          2          3          4          5          6
     1  O    8.006794   0.580864  -0.073576   0.000928   0.000942   0.000045
     2  C    0.580864   4.513834   0.329959  -0.027740  -0.029625  -0.020445
     3  C   -0.073576   0.329959   5.235715   0.315700   0.338764  -0.028335
     4  C    0.000928  -0.027740   0.315700   5.173839  -0.039093  -0.014790
     5  C    0.000942  -0.029625   0.338764  -0.039093   5.097411   0.374656
     6  C    0.000045  -0.020445  -0.028335  -0.014790   0.374656   4.941796
     7  C    0.000892  -0.029320  -0.008276  -0.002504  -0.049213   0.374781
     8  C   -0.073805   0.329547  -0.126259  -0.006862  -0.007917  -0.027789
     9  C    0.000998  -0.027785  -0.005949  -0.058630  -0.003047  -0.014231
    10  C    0.000107  -0.019494  -0.020398   0.363982  -0.016565  -0.021388
    11  C    0.000001   0.000020   0.004036  -0.044588   0.000040   0.004063
    12  C   -0.000000  -0.000013  -0.000057   0.001132  -0.000003  -0.000068
    13  C   -0.000000   0.000000   0.000001  -0.000165   0.000000   0.000001
    14  C   -0.000000  -0.000000  -0.000000  -0.000002  -0.000000  -0.000000
    15  C    0.000000  -0.000000  -0.000000  -0.000000  -0.000000  -0.000000
    16  N    0.000000  -0.000000   0.000000  -0.000000  -0.000000   0.000000
    17  C   -0.000000   0.000000  -0.000000   0.000294  -0.000000  -0.000000
    18  C   -0.000000  -0.000006   0.000309  -0.008689  -0.000052   0.000320
    19  C   -0.000031  -0.002776  -0.012957  -0.052038  -0.046539   0.355599
    20  H    0.004178  -0.031179   0.346060  -0.030587  -0.030803   0.004148
    21  H    0.000720  -0.001280  -0.037354   0.364358   0.005015  -0.000040
    22  H   -0.000082   0.003515  -0.029320   0.355385  -0.005798  -0.000680
    23  H    0.000719  -0.000804  -0.039079   0.005116   0.368286  -0.034698
    24  H   -0.000081   0.003541  -0.031779  -0.005633   0.360998  -0.033899
    25  H   -0.000000   0.000285   0.004604   0.000087  -0.037464   0.370011
    26  H    0.000752  -0.000858  -0.000029   0.000043  -0.004294  -0.034868
    27  H   -0.000081   0.003522  -0.000300   0.000102   0.005202  -0.033430
    28  H    0.004255  -0.031403   0.007102  -0.000075  -0.000052   0.004211
    29  H   -0.000084   0.003511  -0.000415   0.005920   0.000135  -0.000773
    30  H    0.000759  -0.001017   0.000506  -0.006407   0.000007  -0.000040
    31  H   -0.000000  -0.000015  -0.000007   0.000261  -0.000001  -0.000008
    32  H    0.000000   0.000000  -0.000000   0.000001  -0.000000  -0.000000
    33  H    0.000000  -0.000000  -0.000000   0.000001  -0.000000  -0.000000
    34  H   -0.000000  -0.000004  -0.000118   0.000294  -0.000015  -0.000136
    35  H    0.000000   0.000141  -0.000140   0.005719   0.005085  -0.033685
    36  H    0.000000   0.000145  -0.001075  -0.004967  -0.003554  -0.033513
               7          8          9         10         11         12
     1  O    0.000892  -0.073805   0.000998   0.000107   0.000001  -0.000000
     2  C   -0.029320   0.329547  -0.027785  -0.019494   0.000020  -0.000013
     3  C   -0.008276  -0.126259  -0.005949  -0.020398   0.004036  -0.000057
     4  C   -0.002504  -0.006862  -0.058630   0.363982  -0.044588   0.001132
     5  C   -0.049213  -0.007917  -0.003047  -0.016565   0.000040  -0.000003
     6  C    0.374781  -0.027789  -0.014231  -0.021388   0.004063  -0.000068
     7  C    5.093429   0.338878  -0.038080  -0.016514  -0.000051  -0.000012
     8  C    0.338878   5.231150   0.321735  -0.017820   0.003433   0.000531
     9  C   -0.038080   0.321735   5.181687   0.362405  -0.038526  -0.009555
    10  C   -0.016514  -0.017820   0.362405   4.964368   0.356240  -0.051878
    11  C   -0.000051   0.003433  -0.038526   0.356240   4.707227   0.543187
    12  C   -0.000012   0.000531  -0.009555  -0.051878   0.543187   5.014730
    13  C    0.000000  -0.000007   0.000230   0.006749  -0.022510   0.479347
    14  C   -0.000000   0.000000  -0.000017   0.000310  -0.024925  -0.023413
    15  C   -0.000000  -0.000000  -0.000000   0.000003   0.001113   0.005160
    16  N   -0.000000  -0.000000  -0.000000  -0.000000   0.000011  -0.000084
    17  C    0.000000   0.000001  -0.000152   0.005197  -0.021046  -0.049784
    18  C   -0.000000  -0.000097   0.005509  -0.052210   0.515014  -0.045306
    19  C   -0.045921  -0.013355  -0.057158   0.370339  -0.047848   0.001200
    20  H   -0.000063   0.007089  -0.000062   0.003540  -0.000103   0.000000
    21  H   -0.000009   0.000502  -0.006532  -0.034616  -0.002355   0.001230
    22  H    0.000100  -0.000338   0.005782  -0.030789  -0.009225  -0.000257
    23  H   -0.004208  -0.000070   0.000060   0.000194   0.000012  -0.000000
    24  H    0.005236  -0.000321   0.000114  -0.001312  -0.000078   0.000001
    25  H   -0.037645   0.004655   0.000102   0.004146  -0.000095   0.000001
    26  H    0.368895  -0.039564   0.005131   0.000194   0.000012   0.000000
    27  H    0.361628  -0.030979  -0.006122  -0.001149  -0.000094  -0.000003
    28  H   -0.031046   0.346627  -0.031170   0.003465  -0.000103   0.000005
    29  H   -0.005931  -0.030572   0.354357  -0.028410  -0.006544   0.001779
    30  H    0.005075  -0.039085   0.361717  -0.029919  -0.006703   0.001631
    31  H   -0.000003   0.000050   0.007986  -0.015357  -0.038114   0.355740
    32  H   -0.000000  -0.000000   0.000005  -0.000141   0.003356  -0.036764
    33  H   -0.000000  -0.000000   0.000002  -0.000145   0.003219   0.000508
    34  H   -0.000000  -0.000003   0.000099  -0.007428  -0.045867   0.005438
    35  H   -0.003833  -0.001111  -0.005796  -0.036067  -0.001862   0.001236
    36  H    0.005102  -0.000082   0.005738  -0.033593  -0.009097  -0.000226
              13         14         15         16         17         18
     1  O   -0.000000  -0.000000   0.000000   0.000000  -0.000000  -0.000000
     2  C    0.000000  -0.000000  -0.000000  -0.000000   0.000000  -0.000006
     3  C    0.000001  -0.000000  -0.000000   0.000000  -0.000000   0.000309
     4  C   -0.000165  -0.000002  -0.000000  -0.000000   0.000294  -0.008689
     5  C    0.000000  -0.000000  -0.000000  -0.000000  -0.000000  -0.000052
     6  C    0.000001  -0.000000  -0.000000   0.000000  -0.000000   0.000320
     7  C    0.000000  -0.000000  -0.000000  -0.000000   0.000000  -0.000000
     8  C   -0.000007   0.000000  -0.000000  -0.000000   0.000001  -0.000097
     9  C    0.000230  -0.000017  -0.000000  -0.000000  -0.000152   0.005509
    10  C    0.006749   0.000310   0.000003  -0.000000   0.005197  -0.052210
    11  C   -0.022510  -0.024925   0.001113   0.000011  -0.021046   0.515014
    12  C    0.479347  -0.023413   0.005160  -0.000084  -0.049784  -0.045306
    13  C    4.950915   0.539716  -0.042978  -0.000227  -0.036194  -0.052188
    14  C    0.539716   4.820984   0.212773  -0.096384   0.534775  -0.023845
    15  C   -0.042978   0.212773   4.762417   0.877217  -0.043555   0.005410
    16  N   -0.000227  -0.096384   0.877217   6.696183  -0.000163  -0.000082
    17  C   -0.036194   0.534775  -0.043555  -0.000163   4.929317   0.496752
    18  C   -0.052188  -0.023845   0.005410  -0.000082   0.496752   5.023752
    19  C   -0.000164  -0.000002  -0.000000  -0.000000   0.000288  -0.008576
    20  H   -0.000000   0.000000   0.000000  -0.000000  -0.000000  -0.000006
    21  H   -0.000018  -0.000012  -0.000000   0.000000  -0.000040  -0.000272
    22  H    0.000007  -0.000007  -0.000000  -0.000000   0.000035   0.005101
    23  H    0.000000   0.000000   0.000000   0.000000   0.000000   0.000001
    24  H   -0.000000  -0.000000  -0.000000  -0.000000  -0.000000  -0.000035
    25  H   -0.000000   0.000000   0.000000  -0.000000  -0.000000  -0.000008
    26  H   -0.000000   0.000000   0.000000   0.000000   0.000000  -0.000000
    27  H   -0.000000  -0.000000  -0.000000  -0.000000  -0.000000   0.000000
    28  H    0.000000  -0.000000   0.000000   0.000000  -0.000000   0.000002
    29  H    0.000058  -0.000007  -0.000000   0.000000   0.000001  -0.000133
    30  H    0.000068  -0.000008  -0.000000   0.000000   0.000001  -0.000092
    31  H   -0.044815   0.003946  -0.000205  -0.000000   0.000623   0.005781
    32  H    0.359015  -0.040793  -0.006658   0.000542   0.005030   0.000501
    33  H    0.005050  -0.040342  -0.006509   0.000555   0.359166  -0.037597
    34  H    0.000687   0.003824  -0.000219  -0.000000  -0.038567   0.353747
    35  H   -0.000023  -0.000011  -0.000000   0.000000  -0.000052  -0.000241
    36  H    0.000005  -0.000006  -0.000000  -0.000000   0.000019   0.005060
              19         20         21         22         23         24
     1  O   -0.000031   0.004178   0.000720  -0.000082   0.000719  -0.000081
     2  C   -0.002776  -0.031179  -0.001280   0.003515  -0.000804   0.003541
     3  C   -0.012957   0.346060  -0.037354  -0.029320  -0.039079  -0.031779
     4  C   -0.052038  -0.030587   0.364358   0.355385   0.005116  -0.005633
     5  C   -0.046539  -0.030803   0.005015  -0.005798   0.368286   0.360998
     6  C    0.355599   0.004148  -0.000040  -0.000680  -0.034698  -0.033899
     7  C   -0.045921  -0.000063  -0.000009   0.000100  -0.004208   0.005236
     8  C   -0.013355   0.007089   0.000502  -0.000338  -0.000070  -0.000321
     9  C   -0.057158  -0.000062  -0.006532   0.005782   0.000060   0.000114
    10  C    0.370339   0.003540  -0.034616  -0.030789   0.000194  -0.001312
    11  C   -0.047848  -0.000103  -0.002355  -0.009225   0.000012  -0.000078
    12  C    0.001200   0.000000   0.001230  -0.000257  -0.000000   0.000001
    13  C   -0.000164  -0.000000  -0.000018   0.000007   0.000000  -0.000000
    14  C   -0.000002   0.000000  -0.000012  -0.000007   0.000000  -0.000000
    15  C   -0.000000   0.000000  -0.000000  -0.000000   0.000000  -0.000000
    16  N   -0.000000  -0.000000   0.000000  -0.000000   0.000000  -0.000000
    17  C    0.000288  -0.000000  -0.000040   0.000035   0.000000  -0.000000
    18  C   -0.008576  -0.000006  -0.000272   0.005101   0.000001  -0.000035
    19  C    5.148223   0.000135   0.005582  -0.004842   0.005013  -0.003451
    20  H    0.000135   0.593434  -0.002484  -0.004132  -0.002518  -0.004017
    21  H    0.005582  -0.002484   0.583506  -0.034263  -0.000155  -0.000062
    22  H   -0.004842  -0.004132  -0.034263   0.595189  -0.000059   0.005763
    23  H    0.005013  -0.002518  -0.000155  -0.000059   0.587464  -0.034694
    24  H   -0.003451  -0.004017  -0.000062   0.005763  -0.034694   0.599965
    25  H   -0.038123  -0.000138   0.000018  -0.000078  -0.003389  -0.003215
    26  H    0.005024  -0.000084  -0.000005   0.000001   0.004187   0.000009
    27  H   -0.003643   0.000022   0.000001  -0.000004   0.000009  -0.000200
    28  H    0.000145  -0.000180  -0.000088   0.000023  -0.000080   0.000023
    29  H   -0.005504   0.000024  -0.000012  -0.000200   0.000000  -0.000005
    30  H    0.005735  -0.000089   0.004831   0.000006  -0.000005   0.000001
    31  H    0.000252   0.000000  -0.000027  -0.000009  -0.000000   0.000000
    32  H    0.000002   0.000000   0.000001   0.000000  -0.000000   0.000000
    33  H    0.000001   0.000000   0.000000   0.000005  -0.000000   0.000000
    34  H    0.000318   0.000002   0.000038   0.003756  -0.000001   0.000046
    35  H    0.361535   0.000017  -0.000159  -0.000070  -0.000159  -0.000058
    36  H    0.359242  -0.000059  -0.000056   0.003402  -0.000044   0.004705
              25         26         27         28         29         30
     1  O   -0.000000   0.000752  -0.000081   0.004255  -0.000084   0.000759
     2  C    0.000285  -0.000858   0.003522  -0.031403   0.003511  -0.001017
     3  C    0.004604  -0.000029  -0.000300   0.007102  -0.000415   0.000506
     4  C    0.000087   0.000043   0.000102  -0.000075   0.005920  -0.006407
     5  C   -0.037464  -0.004294   0.005202  -0.000052   0.000135   0.000007
     6  C    0.370011  -0.034868  -0.033430   0.004211  -0.000773  -0.000040
     7  C   -0.037645   0.368895   0.361628  -0.031046  -0.005931   0.005075
     8  C    0.004655  -0.039564  -0.030979   0.346627  -0.030572  -0.039085
     9  C    0.000102   0.005131  -0.006122  -0.031170   0.354357   0.361717
    10  C    0.004146   0.000194  -0.001149   0.003465  -0.028410  -0.029919
    11  C   -0.000095   0.000012  -0.000094  -0.000103  -0.006544  -0.006703
    12  C    0.000001   0.000000  -0.000003   0.000005   0.001779   0.001631
    13  C   -0.000000  -0.000000  -0.000000   0.000000   0.000058   0.000068
    14  C    0.000000   0.000000  -0.000000  -0.000000  -0.000007  -0.000008
    15  C    0.000000   0.000000  -0.000000   0.000000  -0.000000  -0.000000
    16  N   -0.000000   0.000000  -0.000000   0.000000   0.000000   0.000000
    17  C   -0.000000   0.000000  -0.000000  -0.000000   0.000001   0.000001
    18  C   -0.000008  -0.000000   0.000000   0.000002  -0.000133  -0.000092
    19  C   -0.038123   0.005024  -0.003643   0.000145  -0.005504   0.005735
    20  H   -0.000138  -0.000084   0.000022  -0.000180   0.000024  -0.000089
    21  H    0.000018  -0.000005   0.000001  -0.000088  -0.000012   0.004831
    22  H   -0.000078   0.000001  -0.000004   0.000023  -0.000200   0.000006
    23  H   -0.003389   0.004187   0.000009  -0.000080   0.000000  -0.000005
    24  H   -0.003215   0.000009  -0.000200   0.000023  -0.000005   0.000001
    25  H    0.618537  -0.003299  -0.003199  -0.000143  -0.000096   0.000018
    26  H   -0.003299   0.587580  -0.034616  -0.002433  -0.000046  -0.000156
    27  H   -0.003199  -0.034616   0.596614  -0.004112   0.005713  -0.000060
    28  H   -0.000143  -0.002433  -0.004112   0.594885  -0.003991  -0.002646
    29  H   -0.000096  -0.000046   0.005713  -0.003991   0.597897  -0.038861
    30  H    0.000018  -0.000156  -0.000060  -0.002646  -0.038861   0.590474
    31  H    0.000000  -0.000000  -0.000001   0.000002   0.002016   0.002109
    32  H    0.000000  -0.000000   0.000000   0.000000   0.000003   0.000004
    33  H    0.000000  -0.000000   0.000000   0.000000   0.000000   0.000000
    34  H    0.000005  -0.000000  -0.000000   0.000000  -0.000000   0.000002
    35  H   -0.003433  -0.000033   0.004554  -0.000075   0.005303  -0.000065
    36  H   -0.003819  -0.000161  -0.000049   0.000017  -0.000055  -0.000167
              31         32         33         34         35         36
     1  O   -0.000000   0.000000   0.000000  -0.000000   0.000000   0.000000
     2  C   -0.000015   0.000000  -0.000000  -0.000004   0.000141   0.000145
     3  C   -0.000007  -0.000000  -0.000000  -0.000118  -0.000140  -0.001075
     4  C    0.000261   0.000001   0.000001   0.000294   0.005719  -0.004967
     5  C   -0.000001  -0.000000  -0.000000  -0.000015   0.005085  -0.003554
     6  C   -0.000008  -0.000000  -0.000000  -0.000136  -0.033685  -0.033513
     7  C   -0.000003  -0.000000  -0.000000  -0.000000  -0.003833   0.005102
     8  C    0.000050  -0.000000  -0.000000  -0.000003  -0.001111  -0.000082
     9  C    0.007986   0.000005   0.000002   0.000099  -0.005796   0.005738
    10  C   -0.015357  -0.000141  -0.000145  -0.007428  -0.036067  -0.033593
    11  C   -0.038114   0.003356   0.003219  -0.045867  -0.001862  -0.009097
    12  C    0.355740  -0.036764   0.000508   0.005438   0.001236  -0.000226
    13  C   -0.044815   0.359015   0.005050   0.000687  -0.000023   0.000005
    14  C    0.003946  -0.040793  -0.040342   0.003824  -0.000011  -0.000006
    15  C   -0.000205  -0.006658  -0.006509  -0.000219  -0.000000  -0.000000
    16  N   -0.000000   0.000542   0.000555  -0.000000   0.000000  -0.000000
    17  C    0.000623   0.005030   0.359166  -0.038567  -0.000052   0.000019
    18  C    0.005781   0.000501  -0.037597   0.353747  -0.000241   0.005060
    19  C    0.000252   0.000002   0.000001   0.000318   0.361535   0.359242
    20  H    0.000000   0.000000   0.000000   0.000002   0.000017  -0.000059
    21  H   -0.000027   0.000001   0.000000   0.000038  -0.000159  -0.000056
    22  H   -0.000009   0.000000   0.000005   0.003756  -0.000070   0.003402
    23  H   -0.000000  -0.000000  -0.000000  -0.000001  -0.000159  -0.000044
    24  H    0.000000   0.000000   0.000000   0.000046  -0.000058   0.004705
    25  H    0.000000   0.000000   0.000000   0.000005  -0.003433  -0.003819
    26  H   -0.000000  -0.000000  -0.000000  -0.000000  -0.000033  -0.000161
    27  H   -0.000001   0.000000   0.000000  -0.000000   0.004554  -0.000049
    28  H    0.000002   0.000000   0.000000   0.000000  -0.000075   0.000017
    29  H    0.002016   0.000003   0.000000  -0.000000   0.005303  -0.000055
    30  H    0.002109   0.000004   0.000000   0.000002  -0.000065  -0.000167
    31  H    0.579967  -0.005171   0.000017  -0.000171  -0.000013  -0.000006
    32  H   -0.005171   0.561775  -0.000160   0.000018   0.000001   0.000000
    33  H    0.000017  -0.000160   0.562601  -0.005173   0.000000   0.000006
    34  H   -0.000171   0.000018  -0.005173   0.584838   0.000059   0.003988
    35  H   -0.000013   0.000001   0.000000   0.000059   0.596847  -0.034223
    36  H   -0.000006   0.000000   0.000006   0.003988  -0.034223   0.601679
 Mulliken charges:
               1
     1  O   -0.455213
     2  C    0.454879
     3  C   -0.167333
     4  C   -0.290392
     5  C   -0.282506
     6  C   -0.096817
     7  C   -0.281387
     8  C   -0.168163
     9  C   -0.310846
    10  C   -0.006041
    11  C    0.178749
    12  C   -0.195435
    13  C   -0.142563
    14  C    0.133448
    15  C    0.236032
    16  N   -0.477568
    17  C   -0.141943
    18  C   -0.187823
    19  C   -0.275706
    20  H    0.147854
    21  H    0.154042
    22  H    0.142080
    23  H    0.148904
    24  H    0.138440
    25  H    0.131676
    26  H    0.148617
    27  H    0.140677
    28  H    0.146837
    29  H    0.144925
    30  H    0.152379
    31  H    0.145170
    32  H    0.159434
    33  H    0.158796
    34  H    0.140545
    35  H    0.140611
    36  H    0.135640
 Sum of Mulliken charges =  -0.00000
 Mulliken charges with hydrogens summed into heavy atoms:
               1
     1  O   -0.455213
     2  C    0.454879
     3  C   -0.019478
     4  C    0.005729
     5  C    0.004838
     6  C    0.034859
     7  C    0.007907
     8  C   -0.021326
     9  C   -0.013542
    10  C   -0.006041
    11  C    0.178749
    12  C   -0.050265
    13  C    0.016871
    14  C    0.133448
    15  C    0.236032
    16  N   -0.477568
    17  C    0.016852
    18  C   -0.047278
    19  C    0.000545
 APT charges:
               1
     1  O   -0.644781
     2  C    0.699187
     3  C   -0.048369
     4  C    0.077098
     5  C    0.114262
     6  C    0.108412
     7  C    0.110173
     8  C   -0.034428
     9  C    0.079410
    10  C    0.077591
    11  C    0.139862
    12  C   -0.126157
    13  C    0.041607
    14  C   -0.017761
    15  C    0.241634
    16  N   -0.383237
    17  C    0.044593
    18  C   -0.128622
    19  C    0.047176
    20  H   -0.058236
    21  H   -0.027675
    22  H   -0.031154
    23  H   -0.044006
    24  H   -0.041639
    25  H   -0.079650
    26  H   -0.042852
    27  H   -0.041533
    28  H   -0.052755
    29  H   -0.036325
    30  H   -0.029326
    31  H    0.045782
    32  H    0.037711
    33  H    0.038099
    34  H    0.034845
    35  H   -0.036200
    36  H   -0.032737
 Sum of APT charges =   0.00000
 APT charges with hydrogens summed into heavy atoms:
               1
     1  O   -0.644781
     2  C    0.699187
     3  C   -0.106605
     4  C    0.018269
     5  C    0.028617
     6  C    0.028762
     7  C    0.025789
     8  C   -0.087183
     9  C    0.013759
    10  C    0.077591
    11  C    0.139862
    12  C   -0.080375
    13  C    0.079319
    14  C   -0.017761
    15  C    0.241634
    16  N   -0.383237
    17  C    0.082693
    18  C   -0.093778
    19  C   -0.021762
 Electronic spatial extent (au):  <R**2>=           5757.7921
 Charge=              0.0000 electrons
 Dipole moment (field-independent basis, Debye):
    X=              3.2970    Y=              1.9420    Z=              1.8772  Tot=              4.2621
 Quadrupole moment (field-independent basis, Debye-Ang):
   XX=           -161.7262   YY=           -106.1601   ZZ=           -111.8889
   XY=              7.7779   XZ=              6.6932   YZ=             -6.0458
 Traceless Quadrupole moment (field-independent basis, Debye-Ang):
   XX=            -35.1345   YY=             20.4316   ZZ=             14.7028
   XY=              7.7779   XZ=              6.6932   YZ=             -6.0458
 Octapole moment (field-independent basis, Debye-Ang**2):
  XXX=            296.7387  YYY=             -0.2375  ZZZ=             -0.0910  XYY=            -17.4337
  XXY=             40.2520  XXZ=             40.5275  XZZ=              3.0306  YZZ=              3.3293
  YYZ=              3.7935  XYZ=             -7.8647
 Hexadecapole moment (field-independent basis, Debye-Ang**3):
 XXXX=          -8935.6669 YYYY=           -834.7916 ZZZZ=           -646.7529 XXXY=             89.0160
 XXXZ=             54.9626 YYYX=              3.8832 YYYZ=            -15.3525 ZZZX=             -2.6671
 ZZZY=             -0.7980 XXYY=          -1188.1182 XXZZ=          -1203.7194 YYZZ=           -255.1008
 XXYZ=            -81.0082 YYXZ=             18.4602 ZZXY=             14.6485
 N-N= 1.382688045077D+03 E-N=-4.591879353516D+03  KE= 7.805342673535D+02
  Exact polarizability: 251.974   0.366 151.246   1.387  -9.861 120.763
 Approx polarizability: 348.903  -4.238 256.701  -1.328 -20.267 189.840
 Calling FoFJK, ICntrl=    100127 FMM=F ISym2X=0 I1Cent= 0 IOpClX= 0 NMat=1 NMatS=1 NMatT=0.
 Full mass-weighted force constant matrix:
 Low frequencies ---  -11.3420   -2.5182    0.0003    0.0005    0.0007    4.6745
 Low frequencies ---   43.9576   55.1054   84.5289
 Diagonal vibrational polarizability:
       13.0149525      25.2012262      39.9995942
 Harmonic frequencies (cm**-1), IR intensities (KM/Mole), Raman scattering
 activities (A**4/AMU), depolarization ratios for plane and unpolarized
 incident light, reduced masses (AMU), force constants (mDyne/A),
 and normal coordinates:
                      1                      2                      3
                      A                      A                      A
 Frequencies --     43.9463                55.0989                84.5262
 Red. masses --      5.7698                 4.5947                 8.1775
 Frc consts  --      0.0066                 0.0082                 0.0344
 IR Inten    --      1.9644                 1.6414                 3.5647
  Atom  AN      X      Y      Z        X      Y      Z        X      Y      Z
     1   8     0.17   0.11   0.07    -0.08   0.02  -0.13     0.38   0.26   0.11
     2   6     0.08   0.05   0.03    -0.03   0.02  -0.06     0.07   0.04  -0.03
     3   6     0.06   0.04   0.03    -0.02   0.05   0.01    -0.11  -0.06  -0.08
     4   6     0.07   0.01  -0.06    -0.02   0.06   0.04    -0.10  -0.13   0.00
     5   6    -0.01   0.02   0.09     0.00   0.01   0.05    -0.12  -0.01  -0.12
     6   6    -0.09  -0.04   0.05     0.03  -0.04   0.04    -0.01  -0.02  -0.08
     7   6    -0.09  -0.05   0.04     0.04  -0.07  -0.03     0.05   0.00  -0.09
     8   6    -0.01  -0.02  -0.02     0.01  -0.03  -0.06     0.03  -0.03  -0.06
     9   6    -0.01  -0.05  -0.11     0.01  -0.01  -0.02     0.03  -0.08   0.02
    10   6    -0.01  -0.05  -0.10     0.00   0.01   0.04    -0.03  -0.10   0.04
    11   6    -0.00  -0.05  -0.14     0.00   0.02   0.07    -0.03  -0.08   0.10
    12   6    -0.02   0.00   0.02    -0.01   0.09   0.27    -0.07  -0.05   0.10
    13   6    -0.02   0.04   0.10    -0.01   0.08   0.25    -0.08  -0.01   0.08
    14   6    -0.01   0.01   0.01     0.01   0.00   0.01    -0.03   0.02   0.06
    15   6    -0.02   0.06   0.14     0.01  -0.03  -0.09    -0.03   0.09  -0.06
    16   7    -0.02   0.11   0.27     0.02  -0.06  -0.19    -0.02   0.22  -0.22
    17   6     0.00  -0.06  -0.19     0.02  -0.05  -0.15     0.01   0.00   0.11
    18   6     0.01  -0.09  -0.26     0.01  -0.04  -0.11     0.01  -0.04   0.13
    19   6    -0.08  -0.07  -0.04     0.03  -0.03   0.07    -0.01  -0.08   0.00
    20   1     0.12   0.09   0.06    -0.05   0.09   0.01    -0.16  -0.06  -0.10
    21   1     0.13   0.02  -0.10    -0.04   0.08   0.02    -0.11  -0.18   0.06
    22   1     0.07   0.01  -0.06    -0.02   0.07   0.08    -0.16  -0.17  -0.02
    23   1    -0.02   0.04   0.16     0.01   0.00   0.03    -0.13   0.05  -0.20
    24   1    -0.01   0.02   0.11     0.00   0.03   0.09    -0.20  -0.04  -0.11
    25   1    -0.14  -0.06   0.10     0.06  -0.07   0.07    -0.00  -0.00  -0.11
    26   1    -0.10  -0.03   0.11     0.04  -0.07  -0.05     0.05   0.03  -0.15
    27   1    -0.15  -0.09   0.02     0.06  -0.11  -0.03     0.11   0.02  -0.07
    28   1    -0.01  -0.02  -0.03     0.01  -0.04  -0.11     0.08  -0.00  -0.06
    29   1    -0.05  -0.08  -0.13     0.05  -0.03  -0.01     0.08  -0.09   0.04
    30   1     0.03  -0.04  -0.14    -0.04   0.01  -0.03     0.01  -0.09   0.04
    31   1    -0.03   0.03   0.10    -0.02   0.14   0.43    -0.10  -0.07   0.10
    32   1    -0.03   0.08   0.24    -0.01   0.13   0.39    -0.11   0.01   0.06
    33   1     0.01  -0.08  -0.27     0.02  -0.11  -0.32     0.04   0.02   0.11
    34   1     0.02  -0.13  -0.38     0.02  -0.08  -0.24     0.04  -0.06   0.14
    35   1    -0.14  -0.10  -0.07     0.05  -0.06   0.08     0.06  -0.08   0.03
    36   1    -0.09  -0.07  -0.04     0.02  -0.02   0.11    -0.05  -0.09   0.03
                      4                      5                      6
                      A                      A                      A
 Frequencies --    103.8666               153.3576               173.3808
 Red. masses --      6.8854                 5.5473                 4.9268
 Frc consts  --      0.0438                 0.0769                 0.0873
 IR Inten    --      2.1588                 2.3020                 2.5668
  Atom  AN      X      Y      Z        X      Y      Z        X      Y      Z
     1   8    -0.23  -0.06  -0.15     0.06   0.08   0.01     0.04   0.01   0.05
     2   6    -0.02   0.06  -0.01    -0.04  -0.01  -0.02    -0.02  -0.02  -0.01
     3   6    -0.02   0.07   0.03    -0.10  -0.03  -0.01     0.01  -0.01  -0.02
     4   6    -0.01  -0.06   0.05    -0.09  -0.01   0.11    -0.01   0.14   0.01
     5   6    -0.12   0.11   0.02    -0.03  -0.03  -0.05     0.15  -0.06  -0.00
     6   6    -0.07   0.08   0.03     0.09  -0.02  -0.00     0.09  -0.01  -0.01
     7   6     0.05   0.13   0.02     0.13  -0.03  -0.06    -0.02  -0.06   0.00
     8   6     0.11   0.09   0.05    -0.01  -0.03  -0.01    -0.06  -0.02  -0.02
     9   6     0.11  -0.03   0.08    -0.02   0.01   0.13    -0.05   0.09  -0.03
    10   6     0.02  -0.09   0.05    -0.01   0.03   0.15    -0.01   0.12   0.01
    11   6     0.03  -0.14   0.01    -0.02   0.04   0.09    -0.02   0.05   0.03
    12   6     0.01  -0.14  -0.02    -0.03   0.03  -0.00     0.06  -0.01   0.03
    13   6     0.01  -0.11  -0.05    -0.03   0.00  -0.18     0.06  -0.15   0.01
    14   6     0.04  -0.09  -0.05    -0.00  -0.01  -0.26    -0.03  -0.21  -0.01
    15   6     0.04   0.08  -0.02    -0.01  -0.00  -0.08    -0.03  -0.12   0.00
    16   7     0.03   0.38  -0.00    -0.02  -0.04   0.27    -0.04   0.28  -0.03
    17   6     0.07  -0.11  -0.06     0.02  -0.01  -0.23    -0.11  -0.16  -0.01
    18   6     0.06  -0.14  -0.03     0.01   0.02  -0.04    -0.11  -0.02   0.01
    19   6    -0.06  -0.05   0.05     0.08   0.00   0.13     0.07   0.11  -0.02
    20   1    -0.05   0.08   0.03    -0.17  -0.04  -0.04     0.01  -0.03  -0.02
    21   1     0.05  -0.10   0.06    -0.17  -0.02   0.15    -0.09   0.21  -0.03
    22   1    -0.09  -0.10   0.03    -0.10  -0.01   0.13     0.07   0.21   0.08
    23   1    -0.13   0.22   0.01    -0.03  -0.02  -0.14     0.17  -0.22   0.01
    24   1    -0.21   0.07   0.01    -0.06  -0.03  -0.02     0.29  -0.00  -0.00
    25   1    -0.13   0.11   0.02     0.17  -0.03  -0.03     0.15  -0.03  -0.01
    26   1     0.05   0.22  -0.03     0.13  -0.05  -0.20    -0.01  -0.13   0.04
    27   1     0.12   0.12   0.03     0.24  -0.02  -0.02    -0.07  -0.04  -0.01
    28   1     0.18   0.12   0.05    -0.01  -0.04  -0.04    -0.12  -0.04  -0.03
    29   1     0.14  -0.03   0.09     0.06   0.04   0.16    -0.06   0.08  -0.03
    30   1     0.16  -0.08   0.11    -0.09   0.01   0.17    -0.11   0.12  -0.04
    31   1    -0.00  -0.15  -0.00    -0.06   0.04   0.07     0.12   0.03   0.04
    32   1    -0.02  -0.10  -0.05    -0.05   0.01  -0.21     0.15  -0.20   0.02
    33   1     0.09  -0.10  -0.07     0.04  -0.02  -0.29    -0.19  -0.22  -0.02
    34   1     0.09  -0.15  -0.02     0.03   0.02   0.01    -0.19   0.02   0.01
    35   1    -0.03  -0.09   0.05     0.17  -0.01   0.16     0.05   0.19  -0.01
    36   1    -0.14  -0.09   0.06     0.07   0.02   0.19     0.14   0.14  -0.07
                      7                      8                      9
                      A                      A                      A
 Frequencies --    238.4860               270.3287               284.0593
 Red. masses --      6.5636                 2.7318                 2.4630
 Frc consts  --      0.2199                 0.1176                 0.1171
 IR Inten    --      0.4468                 0.0721                 1.2922
  Atom  AN      X      Y      Z        X      Y      Z        X      Y      Z
     1   8    -0.03   0.06   0.06     0.01  -0.07   0.10    -0.01   0.08  -0.07
     2   6    -0.14  -0.00   0.00    -0.02  -0.04   0.03    -0.02   0.02  -0.02
     3   6    -0.15  -0.03  -0.04     0.01  -0.02   0.00     0.00   0.03   0.04
     4   6    -0.13   0.01  -0.03     0.01   0.05  -0.00     0.03  -0.16  -0.01
     5   6    -0.14  -0.04  -0.03    -0.12   0.06  -0.03    -0.02   0.02   0.06
     6   6    -0.11  -0.02  -0.01     0.00  -0.01   0.01     0.01  -0.05   0.05
     7   6    -0.20  -0.05   0.02     0.12   0.01  -0.09     0.03  -0.08  -0.02
     8   6    -0.16  -0.04  -0.02    -0.04  -0.01   0.01    -0.03  -0.05  -0.02
     9   6    -0.12  -0.00  -0.04    -0.04   0.02  -0.01    -0.05   0.05   0.17
    10   6    -0.04   0.03  -0.00    -0.01   0.04  -0.01    -0.00   0.02   0.00
    11   6     0.06   0.04   0.04     0.00   0.06  -0.08     0.00   0.04  -0.05
    12   6     0.15   0.00   0.05     0.05   0.04  -0.08     0.03   0.02  -0.06
    13   6     0.18  -0.04   0.01     0.06  -0.01   0.02     0.03  -0.01  -0.00
    14   6     0.22  -0.03  -0.03     0.01  -0.02   0.08     0.00  -0.01   0.05
    15   6     0.25  -0.03  -0.01     0.01  -0.03   0.08     0.01  -0.02   0.06
    16   7     0.25   0.04   0.04     0.02   0.03  -0.06     0.01   0.01  -0.04
    17   6     0.14   0.01  -0.01    -0.04  -0.01   0.00    -0.03  -0.00   0.01
    18   6     0.12   0.05   0.03    -0.03   0.04  -0.09    -0.02   0.02  -0.06
    19   6    -0.08   0.03  -0.01     0.00  -0.09   0.13     0.00   0.07  -0.06
    20   1    -0.13  -0.04  -0.04     0.03  -0.03   0.01     0.01   0.07   0.05
    21   1    -0.19   0.00   0.00    -0.05   0.08  -0.01     0.19  -0.34   0.12
    22   1    -0.13   0.01  -0.02     0.06   0.08   0.02    -0.10  -0.30  -0.22
    23   1    -0.14  -0.04  -0.07    -0.15   0.27  -0.08    -0.02   0.04   0.02
    24   1    -0.15  -0.04  -0.02    -0.33  -0.03  -0.03    -0.06   0.02   0.11
    25   1    -0.05  -0.03  -0.03     0.02  -0.02   0.01     0.03  -0.09   0.09
    26   1    -0.21  -0.11   0.13     0.13   0.02  -0.34     0.03  -0.06  -0.08
    27   1    -0.32  -0.04  -0.02     0.36   0.03  -0.01     0.09  -0.12  -0.01
    28   1    -0.15  -0.04  -0.03    -0.08  -0.03   0.02    -0.05  -0.07  -0.07
    29   1    -0.15  -0.03  -0.06    -0.08   0.03  -0.02     0.06   0.27   0.26
    30   1    -0.15   0.04  -0.09    -0.02   0.02  -0.02    -0.18  -0.05   0.36
    31   1     0.19   0.04   0.06     0.10   0.05  -0.12     0.06   0.03  -0.07
    32   1     0.16  -0.03  -0.01     0.10  -0.03   0.04     0.06  -0.02  -0.00
    33   1     0.09  -0.02  -0.01    -0.09  -0.04   0.01    -0.06  -0.01   0.03
    34   1     0.14   0.04   0.05    -0.07   0.05  -0.13    -0.04   0.02  -0.09
    35   1    -0.11   0.05  -0.02     0.11  -0.31   0.12    -0.13   0.20  -0.08
    36   1    -0.07   0.03  -0.04    -0.09  -0.06   0.36     0.14   0.09  -0.19
                     10                     11                     12
                      A                      A                      A
 Frequencies --    298.2846               347.4307               375.5084
 Red. masses --      3.9476                 3.7564                 4.8283
 Frc consts  --      0.2069                 0.2671                 0.4011
 IR Inten    --      0.7849                 1.1606                 1.1227
  Atom  AN      X      Y      Z        X      Y      Z        X      Y      Z
     1   8     0.02  -0.08  -0.02     0.03   0.02  -0.13     0.16  -0.14  -0.11
     2   6     0.10  -0.01   0.00     0.07  -0.02  -0.03     0.12  -0.14  -0.13
     3   6     0.09   0.00   0.02    -0.09  -0.12  -0.03     0.10  -0.08   0.01
     4   6     0.08  -0.14  -0.07    -0.07  -0.07   0.04     0.06   0.09   0.11
     5   6    -0.11   0.07   0.03    -0.05  -0.14  -0.02    -0.06  -0.03   0.05
     6   6    -0.05  -0.01   0.03    -0.02  -0.00   0.03    -0.18   0.04   0.02
     7   6    -0.02  -0.01  -0.01    -0.05   0.04   0.16    -0.08   0.03  -0.13
     8   6     0.03  -0.01  -0.03     0.15   0.05   0.04     0.02  -0.04  -0.12
     9   6     0.01  -0.02  -0.09     0.11  -0.01  -0.03     0.01   0.09   0.08
    10   6     0.02   0.01  -0.05     0.01   0.02   0.06    -0.03   0.08   0.09
    11   6    -0.00   0.12   0.06     0.00   0.12  -0.02    -0.01  -0.03   0.02
    12   6     0.03   0.13   0.14     0.05   0.09  -0.09    -0.01  -0.03   0.02
    13   6     0.04   0.01   0.01     0.06   0.02  -0.02    -0.01  -0.01  -0.02
    14   6    -0.01  -0.08  -0.14    -0.02  -0.00   0.06     0.01   0.01   0.01
    15   6    -0.02  -0.11  -0.14    -0.02  -0.04   0.09     0.02   0.03   0.01
    16   7    -0.03   0.07   0.09    -0.02   0.02  -0.05     0.02  -0.01  -0.00
    17   6    -0.06   0.00   0.02    -0.07   0.01  -0.04     0.02   0.01   0.01
    18   6    -0.06   0.12   0.14    -0.05   0.08  -0.09     0.01  -0.03  -0.00
    19   6    -0.02  -0.03  -0.01    -0.01  -0.01   0.10    -0.18   0.13   0.07
    20   1     0.12   0.05   0.04    -0.14  -0.08  -0.04     0.02   0.05   0.01
    21   1     0.21  -0.29   0.04    -0.15  -0.11   0.12    -0.11   0.21   0.06
    22   1     0.02  -0.24  -0.27    -0.06  -0.08  -0.01     0.22   0.20   0.20
    23   1    -0.13   0.30   0.01    -0.04  -0.21  -0.04    -0.07   0.04   0.22
    24   1    -0.31  -0.01   0.04     0.02  -0.12  -0.04    -0.06  -0.08  -0.10
    25   1    -0.06  -0.03   0.06     0.02   0.07  -0.07    -0.10  -0.00   0.03
    26   1    -0.02   0.01   0.01    -0.07   0.07   0.43    -0.09   0.18  -0.14
    27   1    -0.03  -0.04  -0.02    -0.30  -0.00   0.07    -0.02  -0.11  -0.13
    28   1     0.00  -0.01  -0.00     0.15   0.05   0.08    -0.03  -0.02   0.01
    29   1     0.01  -0.08  -0.10     0.11  -0.17  -0.08     0.17   0.19   0.17
    30   1     0.03   0.01  -0.13     0.19   0.05  -0.14    -0.19   0.07   0.20
    31   1     0.06   0.18   0.21     0.11   0.10  -0.14    -0.02  -0.03   0.04
    32   1     0.09  -0.02   0.02     0.12  -0.02  -0.02    -0.04  -0.01  -0.04
    33   1    -0.11  -0.02   0.03    -0.12  -0.03  -0.06     0.03   0.02   0.03
    34   1    -0.11   0.17   0.22    -0.11   0.10  -0.14     0.04  -0.04  -0.01
    35   1    -0.07  -0.09  -0.04     0.04  -0.08   0.10    -0.20   0.19   0.07
    36   1    -0.02  -0.02   0.02    -0.06  -0.01   0.17    -0.16   0.11  -0.00
                     13                     14                     15
                      A                      A                      A
 Frequencies --    387.9283               412.6120               414.6244
 Red. masses --      2.7305                 3.0999                 3.1436
 Frc consts  --      0.2421                 0.3109                 0.3184
 IR Inten    --      0.1195                 0.1235                 0.2000
  Atom  AN      X      Y      Z        X      Y      Z        X      Y      Z
     1   8    -0.00  -0.04   0.01     0.01  -0.04   0.02     0.00  -0.04   0.04
     2   6     0.04   0.01   0.01     0.02  -0.01  -0.00     0.01  -0.00   0.01
     3   6     0.06   0.04   0.02    -0.04  -0.02  -0.02    -0.06  -0.02  -0.03
     4   6     0.05  -0.07   0.10    -0.04   0.03  -0.07    -0.06   0.04  -0.08
     5   6    -0.02   0.13  -0.07    -0.10  -0.02   0.03    -0.13  -0.02   0.02
     6   6     0.08   0.06  -0.04     0.02  -0.05   0.07     0.05  -0.07   0.08
     7   6    -0.12  -0.04  -0.02     0.06  -0.05   0.05     0.06  -0.07   0.08
     8   6    -0.06  -0.04  -0.05     0.05   0.01   0.00     0.06   0.02   0.01
     9   6    -0.04  -0.05  -0.08     0.05   0.09  -0.04     0.06   0.11  -0.07
    10   6     0.02   0.03   0.11     0.01   0.07  -0.03     0.02   0.08  -0.04
    11   6     0.01  -0.00   0.07     0.00  -0.03   0.03     0.01  -0.04   0.02
    12   6    -0.01  -0.03  -0.04    -0.00  -0.09  -0.15    -0.02  -0.00   0.14
    13   6    -0.01  -0.01  -0.03    -0.03   0.05   0.15    -0.02  -0.05  -0.13
    14   6    -0.02   0.02   0.05    -0.01   0.01   0.00    -0.01   0.01   0.00
    15   6    -0.03   0.04   0.08    -0.01   0.04   0.00    -0.02   0.05  -0.00
    16   7    -0.02  -0.02  -0.04    -0.01  -0.02  -0.00    -0.02  -0.02  -0.00
    17   6     0.02  -0.03  -0.04     0.03  -0.06  -0.16     0.02   0.03   0.12
    18   6     0.02  -0.04  -0.02     0.01   0.01   0.18     0.03  -0.10  -0.12
    19   6     0.08   0.10   0.05     0.01   0.07  -0.03     0.04   0.09  -0.02
    20   1    -0.02   0.00  -0.01     0.00   0.03   0.01    -0.01   0.02  -0.00
    21   1     0.10  -0.19   0.20    -0.08   0.02  -0.04    -0.11   0.03  -0.05
    22   1    -0.01  -0.16  -0.04    -0.01   0.03  -0.08    -0.00   0.05  -0.11
    23   1    -0.04   0.33  -0.16    -0.11   0.11  -0.06    -0.15   0.18  -0.13
    24   1    -0.23   0.05  -0.05    -0.24  -0.06   0.09    -0.35  -0.08   0.11
    25   1     0.17  -0.00  -0.01     0.04  -0.05   0.05     0.09  -0.05   0.05
    26   1    -0.12  -0.18   0.18     0.06  -0.01   0.03     0.06  -0.05   0.11
    27   1    -0.33   0.02  -0.08     0.08  -0.09   0.05     0.04  -0.11   0.06
    28   1    -0.05  -0.03  -0.04    -0.02  -0.03  -0.03    -0.02  -0.03  -0.04
    29   1    -0.06  -0.28  -0.15     0.01   0.08  -0.06     0.02   0.08  -0.09
    30   1    -0.05   0.11  -0.28     0.05   0.11  -0.06     0.06   0.14  -0.10
    31   1    -0.03  -0.06  -0.09    -0.01  -0.17  -0.34    -0.05   0.02   0.27
    32   1    -0.01  -0.03  -0.07    -0.05   0.11   0.32    -0.03  -0.09  -0.29
    33   1     0.04  -0.04  -0.11     0.06  -0.11  -0.36     0.05   0.09   0.24
    34   1     0.02  -0.06  -0.06     0.02   0.06   0.34     0.06  -0.16  -0.26
    35   1     0.14   0.17   0.09    -0.13   0.16  -0.07    -0.12   0.18  -0.07
    36   1     0.06   0.07   0.00     0.17   0.12  -0.12     0.20   0.13  -0.13
                     16                     17                     18
                      A                      A                      A
 Frequencies --    441.1183               444.3255               477.1880
 Red. masses --      1.9465                 2.1613                 3.8227
 Frc consts  --      0.2232                 0.2514                 0.5129
 IR Inten    --      0.6617                 3.7121                 6.4564
  Atom  AN      X      Y      Z        X      Y      Z        X      Y      Z
     1   8    -0.00   0.03  -0.03     0.01  -0.05   0.04     0.01  -0.16   0.19
     2   6     0.00  -0.00   0.01     0.00   0.05  -0.07    -0.01   0.10  -0.10
     3   6     0.03  -0.00  -0.04     0.02   0.04  -0.10    -0.04   0.14  -0.11
     4   6     0.04   0.09  -0.01     0.01  -0.05  -0.08    -0.07   0.02   0.04
     5   6    -0.06   0.05  -0.08     0.05  -0.03  -0.01     0.01   0.04   0.04
     6   6     0.03  -0.03  -0.05     0.02   0.00   0.01    -0.03  -0.05   0.02
     7   6    -0.08  -0.05   0.06    -0.05  -0.00   0.04    -0.02  -0.04  -0.02
     8   6     0.02  -0.05   0.03    -0.04   0.09  -0.07     0.06   0.07  -0.13
     9   6     0.01  -0.01   0.12    -0.02   0.12   0.03     0.09  -0.10   0.07
    10   6     0.05  -0.03  -0.02    -0.00   0.06  -0.03     0.01  -0.11   0.05
    11   6     0.04  -0.01  -0.05    -0.00  -0.04  -0.00     0.01   0.06   0.05
    12   6     0.02   0.02  -0.01    -0.01  -0.04   0.01     0.02   0.06  -0.00
    13   6     0.01   0.02   0.03    -0.02  -0.01   0.01     0.03   0.01  -0.05
    14   6    -0.02  -0.01  -0.02    -0.00   0.00  -0.00    -0.01   0.00   0.01
    15   6    -0.04  -0.02  -0.04    -0.00   0.03  -0.02    -0.02  -0.03   0.10
    16   7    -0.04   0.01   0.01    -0.00  -0.01   0.01    -0.01   0.01  -0.04
    17   6     0.00  -0.01   0.02     0.02  -0.01   0.01    -0.02   0.00  -0.05
    18   6     0.01  -0.00   0.01     0.01  -0.04   0.02    -0.01   0.05  -0.01
    19   6     0.04  -0.05  -0.01     0.01  -0.05   0.13    -0.01  -0.04  -0.07
    20   1     0.05  -0.06  -0.04     0.02   0.10  -0.09    -0.15   0.28  -0.13
    21   1    -0.07   0.25  -0.14     0.10  -0.22   0.07    -0.08   0.09  -0.04
    22   1     0.11   0.21   0.19    -0.07  -0.17  -0.27    -0.17   0.04   0.20
    23   1    -0.09   0.28  -0.16     0.06  -0.14   0.04     0.01  -0.03   0.06
    24   1    -0.30  -0.04  -0.04     0.16   0.03   0.02     0.07   0.11   0.15
    25   1     0.04  -0.03  -0.06     0.04   0.02  -0.02    -0.07  -0.07   0.05
    26   1    -0.09  -0.12   0.33    -0.06  -0.06   0.19    -0.03  -0.01   0.08
    27   1    -0.35   0.00  -0.01    -0.21  -0.05  -0.03    -0.10  -0.15  -0.08
    28   1     0.03  -0.05   0.01    -0.06   0.06  -0.11     0.21   0.09  -0.30
    29   1     0.07   0.23   0.21     0.04   0.25   0.08     0.25  -0.04   0.14
    30   1    -0.08  -0.13   0.32    -0.09   0.05   0.14     0.07  -0.17   0.17
    31   1     0.00   0.02   0.01    -0.03  -0.05   0.02     0.05   0.07  -0.02
    32   1     0.03   0.02   0.07    -0.04   0.00   0.02     0.06  -0.02  -0.10
    33   1     0.02   0.01   0.05     0.04   0.00   0.02    -0.03  -0.02  -0.09
    34   1    -0.01   0.02   0.04     0.04  -0.05   0.04    -0.05   0.06  -0.04
    35   1     0.08  -0.09  -0.00     0.18  -0.38   0.13    -0.11   0.16  -0.07
    36   1     0.00  -0.05   0.04    -0.13  -0.01   0.46     0.06  -0.08  -0.29
                     19                     20                     21
                      A                      A                      A
 Frequencies --    503.5991               519.4035               561.9930
 Red. masses --      5.0575                 6.5010                 7.2087
 Frc consts  --      0.7557                 1.0333                 1.3414
 IR Inten    --      0.5003                 1.0825                 0.0889
  Atom  AN      X      Y      Z        X      Y      Z        X      Y      Z
     1   8     0.00   0.05  -0.06     0.03  -0.06  -0.03     0.00  -0.01   0.01
     2   6     0.01  -0.03   0.04     0.12   0.03   0.00    -0.00   0.01  -0.01
     3   6     0.06  -0.02   0.02     0.04   0.03   0.01    -0.01   0.00  -0.01
     4   6     0.04   0.04  -0.13    -0.02   0.01   0.05    -0.00  -0.01   0.02
     5   6     0.00  -0.00   0.00     0.03   0.07  -0.04    -0.00  -0.00   0.00
     6   6    -0.04  -0.01  -0.03     0.10  -0.04  -0.04    -0.01  -0.00   0.00
     7   6    -0.01   0.02   0.02     0.05  -0.03   0.08     0.00   0.01   0.00
     8   6    -0.01  -0.03   0.05     0.06   0.04   0.01     0.01   0.01  -0.00
     9   6    -0.03   0.03   0.02    -0.01   0.02   0.02     0.00  -0.04   0.01
    10   6    -0.00  -0.00  -0.09    -0.15  -0.02  -0.00     0.00  -0.02   0.01
    11   6    -0.02   0.07   0.22    -0.26  -0.01  -0.02     0.00   0.13  -0.04
    12   6    -0.02   0.03   0.13    -0.19  -0.08   0.01     0.01   0.10  -0.03
    13   6    -0.00  -0.07  -0.19    -0.15  -0.10   0.04    -0.01  -0.22   0.07
    14   6     0.01  -0.01  -0.01     0.10   0.00   0.01     0.00  -0.17   0.06
    15   6    -0.00   0.12   0.33     0.27  -0.00  -0.01    -0.00   0.56  -0.19
    16   7     0.02  -0.04  -0.12     0.30   0.01   0.02    -0.00  -0.15   0.05
    17   6     0.01  -0.06  -0.17    -0.16   0.10  -0.03     0.02  -0.23   0.08
    18   6    -0.01   0.03   0.11    -0.19   0.08  -0.05    -0.01   0.10  -0.03
    19   6    -0.00  -0.10  -0.06     0.04  -0.05  -0.04     0.00  -0.02  -0.01
    20   1     0.17  -0.07   0.05    -0.05   0.03  -0.03    -0.03   0.02  -0.01
    21   1     0.05   0.10  -0.20     0.01   0.07  -0.03    -0.02   0.02   0.00
    22   1     0.11   0.09  -0.08     0.03   0.05   0.07    -0.01   0.01   0.06
    23   1    -0.00   0.04   0.04     0.02   0.25  -0.14    -0.00  -0.01   0.01
    24   1    -0.02  -0.02  -0.03    -0.17   0.02   0.04     0.00   0.00   0.01
    25   1    -0.11   0.01  -0.02     0.02  -0.03  -0.02    -0.02   0.00  -0.00
    26   1    -0.01   0.04  -0.00     0.04  -0.10   0.28    -0.00   0.02  -0.00
    27   1     0.01   0.06   0.03    -0.16   0.01   0.02     0.01  -0.00   0.00
    28   1    -0.06  -0.03   0.11    -0.01  -0.01  -0.01     0.04   0.02  -0.02
    29   1    -0.05   0.22   0.06     0.06   0.04   0.05     0.03  -0.05   0.02
    30   1    -0.05  -0.07   0.16     0.03  -0.04   0.08     0.02  -0.05   0.01
    31   1    -0.02   0.01   0.07    -0.09  -0.03  -0.00     0.18   0.19  -0.06
    32   1    -0.00  -0.13  -0.37    -0.32  -0.01   0.01     0.16  -0.31   0.11
    33   1     0.01  -0.12  -0.35    -0.32   0.01   0.01    -0.15  -0.32   0.10
    34   1     0.00   0.00   0.04    -0.10   0.03  -0.02    -0.19   0.19  -0.08
    35   1     0.03  -0.26  -0.08     0.10   0.01  -0.01    -0.02   0.02  -0.01
    36   1    -0.08  -0.09   0.09     0.11  -0.01  -0.02     0.00  -0.03  -0.06
                     22                     23                     24
                      A                      A                      A
 Frequencies --    585.3352               617.0907               636.2689
 Red. masses --      2.9251                 5.3652                 3.6497
 Frc consts  --      0.5905                 1.2038                 0.8705
 IR Inten    --     17.5540                 0.4663                 1.6715
  Atom  AN      X      Y      Z        X      Y      Z        X      Y      Z
[...]
 00000664,0.00004194,0.00001784,-0.00001135,0.00003016,0.00001700,0.000
 06709,0.00001203,0.00002037,-0.00002633,-0.00002753,-0.00001450,0.0000
 4153,0.00059562,0.00057234,-0.00168815,0.00074871,-0.00003055,-0.00044
 929,-0.02954520,-0.01083322,0.05598518,-0.00004346,-0.00001199,-0.0000
 0849,0.00006771,0.00002699,-0.00000744,-0.00002883,0.00006937,-0.00002
 577,0.00002318,-0.00011032,0.00018381,0.00000311,-0.00001533,-0.000007
 38,0.00005405,-0.00001760,0.00002610,-0.00000070,0.00000962,0.00000503
 ,-0.00000061,-0.00003574,-0.00000426,0.00002382,0.00010801,-0.00003754
 ,0.00021043,0.00079767,0.00015640,0.00126754,-0.00320517,0.00530085,0.
 00426897,0.01496271,0.01352122,-0.04876777,-0.01330006,0.00384775,0.00
 266142,-0.01508049,-0.01459174,-0.00109283,0.00134188,-0.00264907,0.00
 011959,0.00000984,0.00046482,0.00021013,-0.00465473,0.00316143,-0.0006
 9457,-0.00018779,0.00021697,-0.00014319,-0.00003426,0.00013830,-0.0000
 1865,-0.00000133,0.00002744,-0.00001510,0.00000901,-0.00001137,-0.0000
 0961,0.00001895,-0.00000261,-0.00000243,0.00000197,0.00000469,0.000001
 48,0.00000135,-0.00000164,-0.00001154,-0.00000253,0.00002684,-0.000005
 07,-0.00000471,0.00000322,0.00000142,-0.00000057,-0.00000066,-0.000013
 90,-0.00000509,0.00001422,0.00004190,-0.00003401,-0.00000410,-0.000028
 16,-0.00001396,0.00002223,-0.00146012,0.00168659,-0.00191679,0.0434137
 0,0.00003256,-0.00000416,0.00000414,-0.00004354,0.00000957,-0.00000306
 ,-0.00000771,-0.00002051,0.00001416,-0.00006025,0.00003062,-0.00003983
 ,-0.00000115,0.00000241,-0.00000132,-0.00000332,0.00001341,0.00000834,
 0.00000903,-0.00000346,-0.00000883,-0.00001355,0.00000026,0.00000185,0
 .00004547,-0.00002912,-0.00000881,0.00003060,0.00005179,0.00025935,-0.
 00279373,0.00278983,-0.00073078,-0.00057558,0.00543189,0.00307285,-0.0
 1421576,-0.20270079,-0.14749050,0.00061348,-0.01333817,-0.01736913,0.0
 0242484,-0.00060706,-0.00000454,-0.00042706,0.00025717,0.00040340,-0.0
 0532482,-0.00092599,0.00062275,-0.00009078,0.00011537,0.00064960,-0.00
 000011,0.00001613,-0.00003676,0.00000294,0.00000035,-0.00000792,0.0000
 0556,0.00000184,0.00000199,0.00001044,-0.00000460,0.00000853,0.0000026
 3,0.00000027,-0.00000371,-0.00000022,0.00000071,0.00000215,0.,-0.00000
 024,-0.00000539,0.00000190,0.00000195,-0.00000585,0.00000012,-0.000001
 31,0.00000244,0.00000356,0.00000175,-0.00000404,-0.00001791,-0.0000018
 7,0.00001990,-0.00001129,0.00001327,-0.00002992,0.00187555,-0.00035011
 ,0.00111064,0.01816455,0.21004112,0.00006611,0.00002096,0.00001189,-0.
 00008330,-0.00004680,-0.00001294,0.00006559,-0.00005040,0.00003304,0.0
 0008775,0.00011066,-0.00022109,0.00000012,0.00002032,0.00001637,-0.000
 11902,-0.00000771,-0.00004048,-0.00000169,-0.00002850,0.00001294,0.000
 02690,0.00002762,0.00002801,-0.00010187,-0.00010808,-0.00003711,-0.000
 60117,-0.00080630,-0.00022123,0.00570977,-0.00014709,-0.00072649,-0.00
 211923,-0.01860270,-0.01259580,0.00293196,-0.14880064,-0.19023897,0.00
 119583,0.00452576,0.00595713,-0.00156173,0.00150080,-0.00026992,0.0000
 2705,-0.00020417,0.00020117,0.00248051,-0.00030031,0.00206712,0.000326
 55,0.00078416,-0.00006937,0.00029653,-0.00006211,-0.00006382,0.0000295
 7,-0.00000213,-0.00003549,0.00000695,-0.00000291,0.00001576,-0.0000163
 0,-0.00000147,-0.00000511,0.00000575,-0.00000321,-0.00000953,-0.000004
 46,0.00000022,0.00000298,0.00002621,0.00000059,-0.00004585,0.00000761,
 0.00000495,-0.00000564,-0.00000813,0.00000862,0.00000030,0.00002367,0.
 00000731,-0.00002220,0.00001555,0.00002194,-0.00001392,0.00001773,-0.0
 0000129,0.00004318,-0.00171648,0.00137996,-0.00026988,-0.00679202,0.16
 041292,0.19635492,-0.00005810,0.00002329,-0.00001134,0.00007216,-0.000
 05087,0.00001246,-0.00002155,0.00002596,-0.00003129,-0.00002832,-0.000
 01836,0.00009910,-0.00000699,-0.00001936,-0.00000971,0.00002587,0.0000
 1778,0.00001551,-0.00000168,0.00000809,-0.00002817,-0.00008017,-0.0000
 6763,-0.00004847,-0.00016482,0.00020423,0.00024006,-0.00021234,-0.0008
 4045,-0.00037112,0.00265657,-0.00150680,0.00557928,0.00000253,0.000617
 17,0.00025071,0.00339167,-0.00131969,0.00175081,0.00312292,0.00133998,
 0.00100249,-0.00145430,0.00178297,-0.00139006,0.00029823,-0.00017506,-
 0.00002761,-0.16047444,-0.14681789,0.02548069,-0.00779430,-0.01489723,
 0.00031800,-0.00006299,-0.00003781,-0.00018213,-0.00002172,0.00000594,
 0.00002192,-0.00002602,-0.00000245,-0.00000755,-0.00001982,-0.00000170
 ,0.00002189,-0.00000393,0.00000371,0.00000543,0.00000900,0.00000711,0.
 00000147,-0.00000422,0.00000229,0.00001905,-0.00000031,0.00000129,0.00
 000969,0.00000376,0.00000201,-0.00000156,-0.00003037,0.00000216,0.0000
 4276,0.00002402,0.00001206,-0.00000309,-0.00001725,-0.00002234,-0.0000
 1327,-0.00058039,0.00034993,-0.00043735,0.00045716,-0.00010941,0.00027
 231,0.16251731,-0.00002232,0.00000144,0.00000050,0.00003161,-0.0000043
 7,0.00000218,-0.00000269,0.00001470,0.00000087,0.00004251,-0.00006828,
 -0.00001660,-0.00000105,-0.00000394,-0.00000409,0.00003036,-0.00001889
 ,-0.00000438,-0.00000863,0.00000979,0.00001002,0.00001522,-0.00002330,
 -0.00001397,0.00004399,0.00000680,0.00007481,0.00006275,0.00003087,-0.
 00018725,-0.00201486,0.00306759,-0.00188262,0.00053557,0.00028024,-0.0
 0020158,-0.00066348,-0.00036775,-0.00506841,-0.01429310,-0.01320155,0.
 00378099,0.00068934,-0.00064742,0.00213851,0.00026956,0.00029021,-0.00
 048947,-0.14595410,-0.22416627,0.01484989,0.00068607,0.00309791,-0.001
 02209,-0.00005305,0.00003347,0.00011225,-0.00000430,0.00000177,0.00000
 688,0.00000695,-0.00000280,-0.00000021,0.00002526,0.00000734,-0.000012
 87,-0.00000229,-0.00000079,0.00000505,0.00000050,0.00000113,-0.0000025
 9,-0.00000541,0.00000002,0.00001798,-0.00000215,-0.00000173,0.00000636
 ,0.00000194,-0.00000204,-0.00000222,-0.00000420,0.00000069,0.00000882,
 -0.00001537,-0.00001493,-0.00000618,0.00001695,0.00001061,-0.00000017,
 0.00036317,-0.00029760,0.00034685,-0.00097659,-0.00050546,0.00011870,0
 .15951384,0.23288786,0.00002902,-0.00002352,0.00000269,-0.00005327,0.0
 0006050,0.00000377,-0.00000389,-0.00004013,-0.00000067,-0.00010367,0.0
 0014872,0.00007409,0.00001360,0.00002322,0.00001073,-0.00004344,0.0000
 0929,0.00000063,0.00001093,-0.00001149,0.00001187,0.00005644,0.0001333
 9,0.00005085,0.00011147,-0.00012774,-0.00040981,0.00052272,0.00107231,
 0.00049012,0.00507039,-0.00260394,-0.00195224,0.00016025,-0.00031656,-
 0.00080041,0.00242416,-0.00414669,-0.00195769,-0.01473322,-0.01806306,
 0.00526558,-0.00248398,0.00061650,0.00035066,0.00041817,0.00012933,-0.
 00004972,0.02636915,0.01609642,-0.05700820,0.01596788,0.02069384,0.001
 69176,0.00006472,-0.00000662,-0.00000239,0.00001131,-0.00000541,-0.000
 01279,-0.00000616,-0.00001635,-0.00000336,-0.00001330,-0.00005970,0.00
 000741,0.00000005,-0.00000329,-0.00000589,-0.00000670,-0.00001195,-0.0
 0000088,0.00000581,-0.00000036,-0.00002823,-0.00000195,-0.00000058,-0.
 00001078,-0.00000467,0.00000032,0.00000047,0.00003482,-0.00000304,-0.0
 0005485,-0.00000232,0.00002914,-0.00000194,-0.00000302,-0.00002033,0.0
 0001657,-0.00042051,0.00036879,-0.00019059,-0.00060007,-0.00109191,0.0
 0046938,-0.03080220,-0.01403194,0.05436008,0.00016271,0.00014345,0.000
 03987,-0.00010071,-0.00035697,-0.00015250,0.00017060,0.00058223,0.0000
 6529,-0.00080146,-0.00078141,0.00031679,-0.00000687,-0.00006207,0.0000
 4197,-0.00008499,-0.00009191,-0.00000822,-0.00001261,-0.00000924,0.000
 03784,0.00003234,0.00005694,0.00004341,-0.00014203,0.00012319,-0.00012
 843,-0.00109615,0.00132898,-0.00166917,0.00366443,-0.01397314,-0.01482
 144,0.00028711,-0.00500462,0.00305720,-0.00082612,-0.00028162,0.000252
 28,0.00159457,-0.00299407,0.00528358,0.00043905,0.00063667,0.00083823,
 -0.00027870,-0.00011305,-0.00000363,0.00369916,0.01545770,0.01426739,-
 0.04855647,-0.01683238,0.00047879,0.00002441,-0.00009787,0.00026988,-0
 .00002153,-0.00001028,0.00002326,0.00011096,0.00003784,0.00001253,-0.0
 0149518,0.00064835,0.00067797,0.00000379,0.00002567,-0.00003620,0.0000
 0249,0.00003107,0.00003282,0.00000810,0.00001298,-0.00005388,0.0000070
 1,-0.00000556,-0.00000122,-0.00000839,0.00002004,-0.00000218,0.0000061
 7,0.00001960,-0.00001136,0.00003757,0.00013583,-0.00003824,0.00005198,
 -0.00001313,0.00002052,0.00025299,-0.00089677,-0.00074666,-0.00049088,
 0.00046133,-0.00045890,-0.00156976,0.00171957,-0.00197348,0.04452056,0
 .00011407,0.00006900,0.00000962,-0.00010416,-0.00018873,-0.00005687,-0
 .00001926,0.00021897,0.00002165,0.00004301,-0.00027966,-0.00008617,-0.
 00001679,0.00002850,-0.00003459,0.00026522,0.00045796,0.00038825,0.000
 09056,-0.00010281,-0.00021022,-0.00005371,0.00001599,-0.00001608,-0.00
 000006,-0.00000539,0.00026517,0.00204184,-0.00073049,-0.00041154,0.000
 26735,-0.01396092,-0.01754026,-0.00551321,-0.00117691,0.00037398,-0.00
 030382,-0.00009519,0.00077565,-0.00263161,0.00318838,-0.00071256,-0.00
 021363,0.00031660,0.00003428,0.00004499,-0.00011717,0.00001962,-0.0006
 4717,0.00440306,0.00252349,-0.01641900,-0.20313291,-0.14516087,-0.0007
 1753,-0.00072887,-0.00025376,0.00001566,-0.00001139,0.00000843,0.00018
 469,0.00009509,-0.00000015,0.00043133,0.00069894,-0.00016003,0.0000402
 3,-0.00001540,-0.00002107,-0.00000667,0.00003039,0.00002352,-0.0000461
 9,-0.00000242,0.00004026,0.00008805,0.00007078,0.00000979,-0.00001100,
 -0.00000378,0.00000799,-0.00000016,0.00000991,0.00003889,-0.00002866,0
 .00007845,-0.00005660,0.00015850,0.00006097,0.00002551,0.00002274,-0.0
 0070040,-0.00109595,0.00047151,-0.00028569,0.00021451,0.00191782,-0.00
 037659,0.00119716,0.02011304,0.21151481,0.00000405,0.00007230,0.000017
 44,0.00004866,-0.00017894,-0.00010618,0.00005369,0.00038662,-0.0000202
 1,0.00036733,-0.00046050,-0.00014798,0.00006106,0.00002118,0.00001940,
 0.00000628,-0.00015073,-0.00004714,0.00001828,0.00003430,0.00005912,-0
 .00004860,-0.00006351,-0.00001135,-0.00024325,0.00014456,0.00013577,-0
 .00088456,0.00062457,-0.00132893,-0.00059389,0.00225342,0.00617528,0.0
 0255079,-0.00033961,0.00218241,0.00022641,0.00073829,-0.00001471,0.005
 63790,-0.00019975,-0.00053938,-0.00001862,-0.00115063,-0.00055136,0.00
 015600,0.00023986,-0.00017475,-0.00192152,-0.01991120,-0.01456034,0.00
 095704,-0.14459033,-0.18267609,0.00038449,0.00048153,-0.00059832,-0.00
 004583,-0.00000070,0.00004565,-0.00004755,-0.00001885,0.00005007,0.000
 71549,0.00047694,0.00022646,-0.00003087,-0.00000922,-0.00000955,0.0000
 0030,-0.00002289,-0.00001468,-0.00000177,0.00001077,0.00000945,-0.0000
 1469,-0.00001801,0.00001149,-0.00000194,0.00000099,-0.00000590,-0.0000
 3198,0.00000694,0.00003451,0.00001246,0.00002933,-0.00001684,-0.000020
 62,-0.00004878,-0.00000093,0.00018350,0.00018458,0.00029883,-0.0004466
 6,0.00022845,-0.00029582,-0.00177397,0.00146383,-0.00026455,-0.0056768
 9,0.15873588,0.19354149,-0.00000441,-0.00037070,-0.00000304,0.00019982
 ,0.00095632,0.00000527,0.00048511,-0.00045352,0.00000083,-0.00114360,-
 0.00128269,-0.00356042,-0.00116504,-0.00158253,0.00386768,-0.01187767,
 0.01552245,0.00005580,0.00032991,0.00142576,-0.00076575,-0.00011508,-0
 .00050103,-0.00000469,0.00027664,0.00148259,0.00069732,-0.01129890,0.0
 1456796,-0.00133699,-0.00003608,-0.00041308,0.00099916,0.00023087,-0.0
 0005469,-0.00009917,0.00000181,0.00001095,-0.00011857,-0.00002208,-0.0
 0011008,-0.00007992,-0.00000452,-0.00001786,0.00004338,0.00000728,0.00
 000027,-0.00001249,-0.00017216,0.00020990,0.00015780,0.00032374,-0.000
 15012,-0.00026212,-0.13567790,0.11881144,-0.00000024,0.00001299,-0.000
 01438,-0.00000544,-0.00054333,0.00100948,0.00001323,0.00005673,0.00021
 040,0.00003278,-0.00057830,0.00108414,-0.00007278,0.00012183,0.0002391
 0,-0.00003084,0.00082476,-0.00033455,-0.00002626,0.00041410,-0.0002000
 3,0.00001354,-0.00007541,-0.00094840,0.00021484,-0.00005673,-0.0000369
 9,-0.00000194,-0.00012588,-0.00092334,-0.00026606,0.00038292,-0.000233
 77,0.00002259,-0.00001789,-0.00002841,-0.00004631,0.00001021,0.0000031
 5,-0.00001873,0.00000602,-0.00000197,-0.00000944,0.00008370,0.00001842
 ,-0.00000389,0.14668132,0.00017850,0.00015146,-0.00000326,-0.00026412,
 -0.00038014,0.00000736,-0.00011997,0.00010440,0.00001036,-0.00026200,0
 .00101821,0.00052663,-0.00041825,0.00103657,-0.00062757,-0.00100737,-0
 .00028487,-0.00033043,-0.00064297,0.00061875,0.00031437,0.00013858,0.0
 0003611,-0.00001719,-0.00071918,0.00056223,-0.00027971,-0.00039726,-0.
 00087402,0.00041682,0.00027293,0.00048939,-0.00038417,-0.00019588,0.00
 012661,0.00030636,0.00003854,0.00006296,0.00002079,-0.00005971,-0.0000
 2951,0.00007854,0.00001121,0.00001414,-0.00000020,-0.00002126,0.000004
 49,0.00000585,0.00000070,0.00012482,0.00009045,-0.00039914,-0.00049084
 ,-0.00007855,0.11947986,-0.21996258,0.00038888,0.00003733,-0.00003811,
 -0.00000235,0.00030026,0.00013008,-0.00004420,-0.00013750,0.00034297,-
 0.00013652,0.00033613,0.00012782,0.00010835,-0.00012345,0.00042625,0.0
 0012543,0.00004174,0.00010020,-0.00053813,-0.00003755,0.00020113,-0.00
 010213,0.00019462,0.00053846,0.00006664,0.00000268,0.00001817,0.000002
 22,0.00012866,0.00051310,-0.00008315,-0.00002820,0.00018306,0.00010229
 ,0.00003224,0.00000544,-0.00000284,-0.00000498,0.00000019,0.00002005,0
 .00001138,-0.00002301,0.00001235,0.00014899,0.00015295,0.00001066,-0.1
 3189674,0.23644430,-0.00001301,0.00002210,-0.00002365,0.00001458,-0.00
 006235,-0.00005052,0.00008418,-0.00005327,-0.00043105,-0.00312333,-0.0
 0107250,-0.00535331,0.00324593,0.00138022,-0.00502629,0.01660093,-0.02
 336745,0.00027189,-0.00066959,-0.00103260,0.00105182,-0.00002451,0.000
 00445,-0.00026791,0.00075305,0.00112352,0.00102630,-0.01628171,0.02309
 272,-0.00186047,-0.00107618,0.00087531,0.00161183,0.00011138,-0.000291
 29,0.00006532,0.00005128,-0.00001899,-0.00012524,-0.00005802,-0.000044
 00,0.00000108,0.00002975,-0.00000786,-0.00004126,-0.00001839,-0.000002
 80,0.00002852,0.00003776,0.00004953,0.00002212,0.00031332,0.00007186,0
 .00003816,0.00021802,-0.00022454,-0.04788283,0.00002190,0.00000040,0.0
 0029265,-0.00143330,0.00149719,0.00022435,0.00022561,-0.00020138,0.000
 00625,0.00140186,-0.00144050,0.00011433,-0.00025032,0.00031261,-0.0000
 1066,-0.00081189,-0.00018647,0.00090102,-0.00040450,-0.00001798,-0.000
 07552,-0.00005795,0.00071689,0.00006231,-0.00000580,0.00000350,0.00010
 155,0.00005384,-0.00067776,0.00008781,0.00035966,-0.00000797,-0.000034
 26,-0.00003250,-0.00000286,-0.00003318,-0.00000222,0.00000636,-0.00000
 697,-0.00000066,0.00000406,-0.00001585,-0.00009370,-0.00005737,0.00001
 944,0.00035490,0.00002066,0.05548286,-0.00002700,0.00036590,-0.0000067
 6,0.00022092,-0.00094177,0.00001935,-0.00010887,0.00047535,-0.00000833
 ,0.00047127,-0.00136812,0.00065833,0.00027286,-0.00141896,-0.00077387,
 -0.01243299,-0.01551893,0.00009542,-0.00115091,0.00164057,0.00384706,0
 .00044350,0.00039200,-0.00003925,-0.00107899,0.00158332,-0.00357719,-0
 .01181430,-0.01476057,-0.00108396,-0.00023809,0.00064253,0.00101583,0.
 00021018,-0.00027116,-0.00028921,-0.00016350,-0.00006203,0.00021145,0.
 00001899,0.00021635,0.00008255,-0.00000142,0.00006015,0.00000091,-0.00
 000796,-0.00001027,0.00001222,0.00028444,0.00020728,-0.00001454,0.0000
 1188,-0.00083495,0.00060170,-0.14060095,-0.12125834,-0.00349226,-0.000
 05530,0.00003747,0.00000281,0.00032426,0.00019043,0.00000281,-0.000068
 66,0.00081553,-0.00018722,0.00042939,0.00020097,0.00002134,-0.00008428
 ,0.00097838,0.00017401,0.00089306,0.00034234,-0.00004268,-0.00058715,-
 0.00106984,-0.00006476,0.00011879,-0.00022959,-0.00002790,-0.00000156,
 0.00002279,0.00001976,0.00010291,-0.00027673,0.00003031,-0.00056871,-0
 .00109025,0.00000811,-0.00003839,0.00007535,0.00006339,-0.00000840,0.0
 0000849,-0.00001699,0.00004658,-0.00002958,-0.00000562,0.00033217,0.00
 040360,0.00042339,0.01246520,0.01538119,0.00047965,0.15239101,-0.00018
 812,0.00015900,0.00000082,0.00025973,-0.00040110,-0.00000741,-0.000080
 99,0.00000543,0.00002142,0.00051506,0.00060372,-0.00001209,0.00067267,
 0.00061502,-0.00032665,0.00084291,-0.00057559,0.00028916,0.00039102,0.
 00104553,0.00070670,0.00011203,0.00008179,-0.00002925,0.00021752,0.001
 04559,-0.00052982,0.00096477,-0.00060378,-0.00046001,-0.00087177,0.000
 01538,0.00050913,0.00011321,-0.00011969,-0.00038349,-0.00015521,-0.000
 03912,0.00022896,0.00002437,0.00023296,-0.00002108,-0.00000618,0.00006
 105,-0.00000157,0.00000037,-0.00000910,0.00001789,0.00036852,0.0000805
 7,-0.00005767,0.00023827,-0.00067432,0.00083373,-0.12157776,-0.2157461
 0,-0.00412810,0.00000261,0.00001941,-0.00001465,-0.00003748,0.00014960
 ,-0.00007514,-0.00012875,0.00042690,0.00006680,0.00002861,0.00020761,0
 .00010198,-0.00018032,0.00054773,-0.00004747,-0.00001242,0.00012247,0.
 00052817,-0.00037306,0.00010660,-0.00010422,0.00013009,0.00043883,-0.0
 0012996,-0.00004361,-0.00003204,0.00001013,0.00014108,0.00041461,0.000
 14255,-0.00035950,0.00015583,0.00006390,0.00001277,0.00007143,0.000083
 14,0.00001725,-0.00000136,-0.00000423,0.00003803,-0.00001568,-0.000006
 65,-0.00017940,0.00050397,0.00101865,-0.01599746,-0.02145120,-0.000411
 42,0.13510112,0.23255807,-0.00003962,-0.00003032,-0.00002126,0.0000498
 6,0.00009487,-0.00005383,-0.00008591,-0.00000215,-0.00027405,0.0009769
 8,-0.00089152,0.00122210,-0.00062251,0.00099871,0.00096785,0.01742973,
 0.02308346,0.00007660,0.00327649,-0.00139126,-0.00493856,0.00007705,0.
 00004281,-0.00046388,-0.00296185,0.00110750,-0.00537697,-0.01638252,-0
 .02273878,-0.00157706,-0.00068245,-0.00054924,0.00162315,0.00026667,-0
 .00027206,-0.00030751,-0.00030162,-0.00006509,0.00024928,0.00010641,0.
 00030743,0.00019859,0.00003520,0.00007705,-0.00004030,-0.00003157,-0.0
 0001627,0.00004511,0.00042935,0.00010351,-0.00024152,-0.00006446,-0.00
 045032,-0.00095146,-0.00263987,-0.00285148,-0.04702239,-0.00001725,-0.
 00000330,0.00010122,0.00033506,0.00001835,-0.00007486,-0.00000142,0.00
 061966,0.00013866,-0.00040994,0.00003131,-0.00006917,-0.00008165,-0.00
 067881,0.00010298,-0.00075982,0.00022260,0.00093215,0.00139825,0.00140
 679,0.00010113,-0.00024718,-0.00030998,-0.00001524,0.00001704,-0.00000
 416,0.00028455,0.00021453,0.00021283,0.00001694,-0.00146297,-0.0014763
 1,0.00009819,-0.00002705,0.00011007,0.00011426,-0.00001151,0.00001249,
 -0.00000659,-0.00000406,-0.00000190,-0.00003583,0.00011646,0.00116044,
 -0.00144182,0.00024597,-0.00000469,-0.00017067,0.00186015,0.00212775,0
 .05681021\\0.00003564,-0.00000835,0.00005671,-0.00006028,0.00003011,-0
 .00001096,0.00001291,-0.00000393,-0.00006631,-0.00003101,0.00007472,0.
 00005185,0.00004293,0.00001878,0.00000160,0.00002731,-0.00007033,-0.00
 004713,0.00001461,0.00000683,0.00000744,-0.00001783,-0.00005588,-0.000
 05216,0.00000126,0.00004605,0.00003901,0.00003925,0.00001220,0.0000087
 8,0.00003689,-0.00006084,0.00003845,-0.00001205,0.00000361,-0.00001940
 ,-0.00000730,-0.00003468,-0.00000577,-0.00000782,0.00000016,-0.0000075
 1,-0.00000609,-0.00000774,0.00001085,0.00003300,0.00000571,-0.00003374
 ,0.00001100,0.00004348,0.00001303,0.00001562,0.00003616,-0.00003485,-0
 .00001662,-0.00002661,0.00004753,-0.00002716,0.00001927,0.00000054,-0.
 00001480,0.00002440,-0.00001604,-0.00000009,0.00002951,-0.00000436,-0.
 00001742,0.00001356,0.00001916,-0.00000557,0.00001451,-0.00000194,0.00
 000527,0.00000164,-0.00000328,-0.00000648,-0.00001103,-0.00000118,0.00
 000505,-0.00000881,0.00000408,-0.00003081,-0.00002209,-0.00000129,0.00
 001175,-0.00001002,-0.00001491,-0.00001414,0.00000202,0.00000002,-0.00
 001681,-0.00001050,0.00001655,0.00000497,-0.00000704,-0.00000541,0.000
 00707,0.00000020,-0.00000517,-0.00001308,-0.00001305,-0.00002327,0.000
 00967,-0.00001899,0.00000299,-0.00000883,-0.00001302,0.00003609\\\@


 IT IS THE BEHAVIOR AND DISTRIBUTION OF THE ELECTRONS 
 AROUND THE NUCLEUS THAT GIVES THE FUNDAMENTAL 
 CHARACTER OF AN ATOM:  IT MUST BE THE SAME FOR MOLECULES.

                               -- C. A. COULSON, 1951
 Job cpu time:       0 days  0 hours  7 minutes 14.1 seconds.
 Elapsed time:       0 days  0 hours  8 minutes 28.1 seconds.
 File lengths (MBytes):  RWF=    428 Int=      0 D2E=      0 Chk=     16 Scr=      1
 Normal termination of Gaussian 16 at Fri Feb 23 22:02:45 2024.
