 Entering Gaussian System, Link 0=g16
 Input=/Volumes/SSD-PMU3/b3lyp_6-31gd_freq/CQZJUUNZJGFFFN-YXYNXPFZSA-N_calculating/gaussianinput1.gjf
 Output=/Volumes/SSD-PMU3/b3lyp_6-31gd_freq/CQZJUUNZJGFFFN-YXYNXPFZSA-N_calculating/gaussianinput1.log
 Initial command:
 /Applications/g16/l1.exe "/Users/macmini_m1_2022/PycharmProjects/sphere_model/sphere_model_lib/Gau-76324.inp" -scrdir="/Users/macmini_m1_2022/PycharmProjects/sphere_model/sphere_model_lib/"
 Entering Link 1 = /Applications/g16/l1.exe PID=     76325.
  
 Copyright (c) 1988,1990,1992,1993,1995,1998,2003,2009,2016,
            Gaussian, Inc.  All Rights Reserved.
  
 This is part of the Gaussian(R) 16 program.  It is based on
 the Gaussian(R) 09 system (copyright 2009, Gaussian, Inc.),
 the Gaussian(R) 03 system (copyright 2003, Gaussian, Inc.),
 the Gaussian(R) 98 system (copyright 1998, Gaussian, Inc.),
 the Gaussian(R) 94 system (copyright 1995, Gaussian, Inc.),
 the Gaussian 92(TM) system (copyright 1992, Gaussian, Inc.),
 the Gaussian 90(TM) system (copyright 1990, Gaussian, Inc.),
 the Gaussian 88(TM) system (copyright 1988, Gaussian, Inc.),
 the Gaussian 86(TM) system (copyright 1986, Carnegie Mellon
 University), and the Gaussian 82(TM) system (copyright 1983,
 Carnegie Mellon University). Gaussian is a federally registered
 trademark of Gaussian, Inc.
  
 This software contains proprietary and confidential information,
 including trade secrets, belonging to Gaussian, Inc.
  
 This software is provided under written license and may be
 used, copied, transmitted, or stored only in accord with that
 written license.
  
 The following legend is applicable only to US Government
 contracts under FAR:
  
                    RESTRICTED RIGHTS LEGEND
  
 Use, reproduction and disclosure by the US Government is
 subject to restrictions as set forth in subparagraphs (a)
 and (c) of the Commercial Computer Software - Restricted
 Rights clause in FAR 52.227-19.
  
 Gaussian, Inc.
 340 Quinnipiac St., Bldg. 40, Wallingford CT 06492
  
  
 ---------------------------------------------------------------
 Warning -- This program may not be used in any manner that
 competes with the business of Gaussian, Inc. or will provide
 assistance to any competitor of Gaussian, Inc.  The licensee
 of this program is prohibited from giving any competitor of
 Gaussian, Inc. access to this program.  By using this program,
 the user acknowledges that Gaussian, Inc. is engaged in the
 business of creating and licensing software in the field of
 computational chemistry and represents and warrants to the
 licensee that it is not a competitor of Gaussian, Inc. and that
 it will not use this program in any manner prohibited above.
 ---------------------------------------------------------------
  

 Cite this work as:
 Gaussian 16, Revision A.03,
 M. J. Frisch, G. W. Trucks, H. B. Schlegel, G. E. Scuseria, 
 M. A. Robb, J. R. Cheeseman, G. Scalmani, V. Barone, 
 G. A. Petersson, H. Nakatsuji, X. Li, M. Caricato, A. V. Marenich, 
 J. Bloino, B. G. Janesko, R. Gomperts, B. Mennucci, H. P. Hratchian, 
 J. V. Ortiz, A. F. Izmaylov, J. L. Sonnenberg, D. Williams-Young, 
 F. Ding, F. Lipparini, F. Egidi, J. Goings, B. Peng, A. Petrone, 
 T. Henderson, D. Ranasinghe, V. G. Zakrzewski, J. Gao, N. Rega, 
 G. Zheng, W. Liang, M. Hada, M. Ehara, K. Toyota, R. Fukuda, 
 J. Hasegawa, M. Ishida, T. Nakajima, Y. Honda, O. Kitao, H. Nakai, 
 T. Vreven, K. Throssell, J. A. Montgomery, Jr., J. E. Peralta, 
 F. Ogliaro, M. J. Bearpark, J. J. Heyd, E. N. Brothers, K. N. Kudin, 
 V. N. Staroverov, T. A. Keith, R. Kobayashi, J. Normand, 
 K. Raghavachari, A. P. Rendell, J. C. Burant, S. S. Iyengar, 
 J. Tomasi, M. Cossi, J. M. Millam, M. Klene, C. Adamo, R. Cammi, 
 J. W. Ochterski, R. L. Martin, K. Morokuma, O. Farkas, 
 J. B. Foresman, and D. J. Fox, Gaussian, Inc., Wallingford CT, 2016.
 
 ******************************************
 Gaussian 16:  EM64M-G16RevA.03 25-Dec-2016
                23-Feb-2024 
 ******************************************
 %nprocshared=10
 Will use up to   10 processors via shared memory.
 %mem=12GB
 %chk= 1.chk
 ---------------------
 # freq b3lyp/6-31g(d)
 ---------------------
 1/10=4,30=1,38=1/1,3;
 2/12=2,17=6,18=5,40=1/2;
 3/5=1,6=6,7=1,11=2,25=1,30=1,71=2,74=-5,140=1/1,2,3;
 4//1;
 5/5=2,38=5,98=1/2;
 8/6=4,10=90,11=11/1;
 11/6=1,8=1,9=11,15=111,16=1/1,2,10;
 10/6=1/2;
 6/7=2,8=2,9=2,10=2,28=1/1;
 7/8=1,10=1,25=1/1,2,3,16;
 1/10=4,30=1/3;
 99//99;
 ---------
 good luck
 ---------
 Symbolic Z-matrix:
 Charge =  0 Multiplicity = 1
 O                     1.21561   0.        0. 
 C                     0.        0.        0. 
 C                    -0.85067  -1.26608  -0.00105 
 C                    -1.75394  -1.25676   1.2566 
 C                    -1.73062  -1.26193  -1.27464 
 C                    -2.62584  -0.00876  -1.27207 
 C                    -1.74115   1.2536   -1.26965 
 C                    -0.85223   1.26416  -0.00105 
 C                    -1.74952   1.25172   1.26064 
 C                    -2.66832  -0.0056    1.28108 
 C                    -3.5808    0.03709   2.5121 
 C                    -4.47625   1.10929   2.68258 
 C                    -5.32208   1.18967   3.78123 
 C                    -5.29752   0.18221   4.76004 
 C                    -6.16661   0.255     5.89764 
 N                    -6.8728    0.31471   6.82036 
 C                    -4.41289  -0.89429   4.60928 
 C                    -3.57166  -0.95864   3.50056 
 C                    -3.52464  -0.01484  -0.01942 
 H                    -0.18313  -2.13323   0.01548 
 H                    -2.36174  -2.17132   1.25959 
 H                    -1.12529  -1.28414   2.15587 
 H                    -2.34405  -2.17275  -1.29703 
 H                    -1.09719  -1.27945  -2.17079 
 H                    -3.25945  -0.00918  -2.16822 
 H                    -2.3634    2.15876  -1.28551 
 H                    -1.11317   1.2813   -2.16932 
 H                    -0.18726   2.13355   0.00903 
 H                    -1.13062   1.26837   2.16687 
 H                    -2.35397   2.16694   1.27506 
 H                    -4.5177    1.9026    1.94241 
 H                    -6.00347   2.02753   3.88953 
 H                    -4.38654  -1.67726   5.36049 
 H                    -2.90102  -1.80582   3.4182 
 H                    -4.17204  -0.90182  -0.02044 
 H                    -4.1882    0.85843  -0.03898 
 

 GradGradGradGradGradGradGradGradGradGradGradGradGradGradGradGradGradGrad
 Berny optimization.
 Initialization pass.
 Trust Radius=3.00D-01 FncErr=1.00D-07 GrdErr=1.00D-07 EigMax=2.50D+02 EigMin=1.00D-04
 Number of steps in this run=      2 maximum allowed number of steps=      2.
 GradGradGradGradGradGradGradGradGradGradGradGradGradGradGradGradGradGrad

                          Input orientation:                          
 ---------------------------------------------------------------------
 Center     Atomic      Atomic             Coordinates (Angstroms)
 Number     Number       Type             X           Y           Z
 ---------------------------------------------------------------------
      1          8           0        1.215609    0.000000    0.000000
      2          6           0        0.000000    0.000000    0.000000
      3          6           0       -0.850674   -1.266076   -0.001051
      4          6           0       -1.753944   -1.256758    1.256601
      5          6           0       -1.730621   -1.261927   -1.274635
      6          6           0       -2.625842   -0.008759   -1.272072
      7          6           0       -1.741153    1.253596   -1.269652
      8          6           0       -0.852227    1.264162   -0.001051
      9          6           0       -1.749520    1.251724    1.260640
     10          6           0       -2.668318   -0.005597    1.281077
     11          6           0       -3.580801    0.037091    2.512097
     12          6           0       -4.476249    1.109287    2.682584
     13          6           0       -5.322076    1.189672    3.781233
     14          6           0       -5.297519    0.182206    4.760039
     15          6           0       -6.166613    0.255000    5.897644
     16          7           0       -6.872800    0.314708    6.820360
     17          6           0       -4.412887   -0.894293    4.609278
     18          6           0       -3.571662   -0.958637    3.500558
     19          6           0       -3.524641   -0.014837   -0.019421
     20          1           0       -0.183131   -2.133227    0.015477
     21          1           0       -2.361741   -2.171316    1.259593
     22          1           0       -1.125292   -1.284137    2.155868
     23          1           0       -2.344045   -2.172749   -1.297030
     24          1           0       -1.097193   -1.279453   -2.170794
     25          1           0       -3.259452   -0.009180   -2.168217
     26          1           0       -2.363400    2.158764   -1.285511
     27          1           0       -1.113171    1.281300   -2.169318
     28          1           0       -0.187259    2.133545    0.009025
     29          1           0       -1.130621    1.268365    2.166872
     30          1           0       -2.353967    2.166935    1.275058
     31          1           0       -4.517698    1.902601    1.942410
     32          1           0       -6.003471    2.027526    3.889531
     33          1           0       -4.386536   -1.677262    5.360487
     34          1           0       -2.901020   -1.805824    3.418195
     35          1           0       -4.172035   -0.901822   -0.020436
     36          1           0       -4.188205    0.858425   -0.038976
 ---------------------------------------------------------------------
                    Distance matrix (angstroms):
                    1          2          3          4          5
     1  O    0.000000
     2  C    1.215609   0.000000
     3  C    2.423319   1.525318   0.000000
     4  C    3.460742   2.496959   1.548442   0.000000
     5  C    3.449264   2.492429   1.548012   2.531349   0.000000
     6  C    4.046602   2.917754   2.519437   2.951592   1.540084
     7  C    3.453398   2.493017   2.958217   3.561460   2.515550
     8  C    2.423644   1.524597   2.530238   2.958009   2.962215
     9  C    3.456590   2.493360   2.956198   2.508489   3.570213
    10  C    4.089753   2.959917   2.556656   1.549865   2.998217
    11  C    5.414569   4.374259   3.932906   2.566656   4.410210
    12  C    6.389368   5.335127   5.097945   3.878471   5.368492
    13  C    7.645546   6.636078   6.350575   5.009027   6.668635
    14  C    8.069201   7.124246   6.673824   5.186677   7.157204
    15  C    9.452218   8.536647   8.085016   6.579995   8.568587
    16  N   10.584834   9.687710   9.235612   7.721891   9.718885
    17  C    7.329746   6.443506   5.838041   4.294392   6.476893
    18  C    6.007566   5.092118   4.445173   2.903157   5.126781
    19  C    4.740313   3.524726   2.952293   2.511169   2.519782
    20  H    2.550955   2.141129   1.094458   2.185415   2.195058
    21  H    4.370197   3.446594   2.166104   1.098109   2.765432
    22  H    3.431704   2.750101   2.174406   1.097558   3.483571
    23  H    4.367409   3.449300   2.175264   2.776381   1.098357
    24  H    3.420292   2.748305   2.183743   3.489824   1.097561
    25  H    4.972667   3.914751   3.475429   3.943651   2.169145
    26  H    4.372883   3.449414   3.958245   4.301112   3.478743
    27  H    3.430873   2.754418   3.355505   4.311525   2.765810
    28  H    2.553455   2.141766   3.463762   3.937652   3.944487
    29  H    3.436405   2.753614   3.346887   2.755607   4.313508
    30  H    4.366149   3.444204   3.959029   3.475923   4.318170
    31  H    6.345365   5.272802   5.221553   4.253260   5.303906
    32  H    8.447155   7.435118   7.248156   5.981415   7.466348
    33  H    7.932973   7.126691   6.435642   4.893797   7.158997
    34  H    5.647273   4.833319   4.023244   2.507936   4.867064
    35  H    5.462637   4.268440   3.341331   2.757529   2.768247
    36  H    5.471711   4.275450   3.956521   3.475363   3.473106
                    6          7          8          9         10
     6  C    0.000000
     7  C    1.541499   0.000000
     8  C    2.526170   1.549080   0.000000
     9  C    2.961653   2.530307   1.548274   0.000000
    10  C    2.553504   2.991892   2.560142   1.557390   0.000000
    11  C    3.903074   4.377878   3.907267   2.528847   1.532925
    12  C    4.507032   4.808508   4.512141   3.078517   2.544760
    13  C    5.851650   6.191812   5.855832   4.372687   3.836910
    14  C    6.600052   7.081863   6.602971   5.096858   4.364762
    15  C    8.000716   8.482454   8.003481   6.481202   5.798161
    16  N    9.144875   9.626194   9.147700   7.618168   6.961603
    17  C    6.210312   6.805395   6.212275   4.786678   3.861376
    18  C    4.957302   5.567732   4.959579   3.636362   2.578839
    19  C    1.541756   2.520482   2.962764   2.528594   1.557135
    20  H    3.483961   3.943293   3.462689   3.932162   3.507807
    21  H    3.340019   4.302584   3.958581   3.477358   2.187416
    22  H    3.953355   4.307384   3.349730   2.760740   2.186516
    23  H    2.182404   3.479090   3.964523   4.315339   3.383539
    24  H    2.181544   2.764612   3.352278   4.313598   4.000819
    25  H    1.097514   2.169621   3.480336   3.953079   3.499583
    26  H    2.183395   1.098532   2.175728   2.771724   3.371173
    27  H    2.181164   1.097510   2.183980   3.488614   3.997476
    28  H    3.489608   2.196341   1.094582   2.187420   3.514214
    29  H    3.961448   3.490367   2.185729   1.097529   2.184519
    30  H    3.360868   2.772233   2.167643   1.096893   2.195165
    31  H    4.191099   4.295085   4.197657   2.924254   2.738391
    32  H    6.495920   6.736727   6.500359   5.060537   4.696900
    33  H    7.062208   7.716652   7.063243   5.686964   4.731630
    34  H    5.030285   5.716752   5.031263   3.915303   2.803969
    35  H    2.180566   3.480741   3.963961   3.485326   2.181357
    36  H    2.171062   2.767451   3.360775   2.791213   2.190692
                   11         12         13         14         15
    11  C    0.000000
    12  C    1.407301   0.000000
    13  C    2.443601   1.388854   0.000000
    14  C    2.832212   2.418632   1.404867   0.000000
    15  C    4.265658   3.731454   2.462935   1.433446   0.000000
    16  N    5.429131   4.847268   3.522300   2.596919   1.163473
    17  C    2.440904   2.780377   2.419751   1.401482   2.460958
    18  C    1.403073   2.400764   2.785311   2.422065   3.735332
    19  C    2.532673   3.077344   4.373395   5.101486   6.485714
    20  H    4.742104   6.004850   7.185495   7.350446   8.723851
    21  H    2.816369   4.154323   5.139892   5.139161   6.471134
    22  H    2.811062   4.151484   5.135615   5.132187   6.464112
    23  H    4.574102   5.581701   6.779624   7.138411   8.501137
    24  H    5.461782   6.378039   7.705377   8.235025   9.651593
    25  H    4.691561   5.124630   6.409962   7.224339   8.577849
    26  H    4.517232   4.616418   5.946831   7.004606   8.347842
    27  H    5.436258   5.906000   7.289193   8.169012   9.574259
    28  H    4.709205   5.156788   6.441024   7.245317   8.599851
    29  H    2.763801   3.388878   4.492288   5.026658   6.348762
    30  H    2.751658   2.757504   4.005699   4.974811   6.289679
    31  H    2.163896   1.085782   2.129921   3.392184   4.591011
    32  H    3.424688   2.152276   1.085369   2.159018   2.683464
    33  H    3.420751   3.865756   3.404202   2.155933   2.681576
    34  H    2.163204   3.394163   3.868631   3.390578   4.588983
    35  H    2.764930   3.382813   4.488834   5.029391   6.351397
    36  H    2.748000   2.748234   3.998673   4.971760   6.286627
                   16         17         18         19         20
    16  N    0.000000
    17  C    3.521610   0.000000
    18  C    4.851804   1.393219   0.000000
    19  C    7.622426   4.794505   3.644615   0.000000
    20  H    9.851421   6.366223   5.000759   3.956575   0.000000
    21  H    7.579716   4.130179   2.820713   2.763804   2.509107
    22  H    7.572822   4.120616   2.810492   3.478488   2.487950
    23  H    9.622322   6.387412   5.098820   2.771764   2.528594
    24  H   10.804621   7.557218   6.195979   3.481402   2.518774
    25  H    9.693075   6.931686   5.756210   2.165105   4.329416
    26  H    9.457292   6.947668   5.838197   2.770561   4.986715
    27  H   10.720165   7.846700   6.573355   3.480979   4.159002
    28  H    9.715910   6.941618   5.762515   3.969190   4.266779
    29  H    7.452317   4.627711   3.563276   3.486806   4.134860
    30  H    7.389247   4.972654   4.025523   2.793973   4.979003
    31  H    5.644671   3.865978   3.392564   2.917449   6.228118
    32  H    3.504174   3.403677   3.870680   5.059224   8.136124
    33  H    3.504380   1.085380   2.154014   5.696484   6.815105
    34  H    5.643263   2.129627   1.083637   3.926034   4.367219
    35  H    7.454567   4.635981   3.572265   1.098118   4.174806
    36  H    7.386012   4.972803   4.026182   1.096944   4.999356
                   21         22         23         24         25
    21  H    0.000000
    22  H    1.766126   0.000000
    23  H    2.556685   3.767956   0.000000
    24  H    3.763251   4.326756   1.765243   0.000000
    25  H    4.150976   4.987772   2.505587   2.507781   0.000000
    26  H    5.022664   5.022904   4.331572   3.769395   2.506404
    27  H    5.023636   5.028802   3.769137   2.560803   2.504369
    28  H    4.982381   4.143596   4.990158   4.150680   4.332438
    29  H    3.764335   2.552531   5.031131   5.030690   4.995702
    30  H    4.338286   3.767674   5.044660   5.032988   4.172712
    31  H    4.659527   4.659322   5.641562   6.224449   4.704821
    32  H    6.148906   6.145676   7.611447   8.469664   6.955151
    33  H    4.600132   4.589100   6.981390   8.227893   7.793215
    34  H    2.254766   2.240276   4.762164   5.896410   5.879150
    35  H    2.554849   3.763656   2.566417   3.771114   2.498516
    36  H    3.768499   4.334668   3.764524   4.320825   2.479715
                   26         27         28         29         30
    26  H    0.000000
    27  H    1.764690   0.000000
    28  H    2.532202   2.515713   0.000000
    29  H    3.772466   4.336244   2.508938   0.000000
    30  H    2.560599   3.766650   2.509697   1.760493   0.000000
    31  H    3.889228   5.374302   4.748054   3.453249   2.279685
    32  H    6.328381   7.821863   6.992703   5.223844   4.491524
    33  H    7.935834   8.727312   7.797071   5.429261   5.966567
    34  H    6.175099   6.629256   5.874144   3.761750   4.546990
    35  H    3.773428   4.329014   5.009267   4.329460   3.794858
    36  H    2.564107   3.764706   4.199500   3.792445   2.608316
                   31         32         33         34         35
    31  H    0.000000
    32  H    2.452429   0.000000
    33  H    4.951351   4.301586   0.000000
    34  H    4.306275   4.953981   2.448629   0.000000
    35  H    3.440499   5.217574   5.440740   3.775829   0.000000
    36  H    2.263793   4.482762   5.968521   4.550505   1.760419
                   36
    36  H    0.000000
 Stoichiometry    C17H17NO
 Framework group  C1[X(C17H17NO)]
 Deg. of freedom   102
 Full point group                 C1      NOp   1
 Largest Abelian subgroup         C1      NOp   1
 Largest concise Abelian subgroup C1      NOp   1
                         Standard orientation:                         
 ---------------------------------------------------------------------
 Center     Atomic      Atomic             Coordinates (Angstroms)
 Number     Number       Type             X           Y           Z
 ---------------------------------------------------------------------
      1          8           0       -3.907035   -1.512167   -1.400807
      2          6           0       -3.130643   -0.822694   -0.768709
      3          6           0       -2.627931   -1.170200    0.628830
      4          6           0       -1.083817   -1.278069    0.586999
      5          6           0       -3.044955   -0.034152    1.594141
      6          6           0       -2.431832    1.294376    1.113568
      7          6           0       -2.955334    1.619467   -0.299402
      8          6           0       -2.547413    0.490460   -1.278480
      9          6           0       -1.004695    0.362918   -1.308632
     10          6           0       -0.441678    0.049093    0.109108
     11          6           0        1.088894   -0.018398    0.057586
     12          6           0        1.825577    1.107921   -0.353754
     13          6           0        3.212991    1.093271   -0.415266
     14          6           0        3.918173   -0.068970   -0.060914
     15          6           0        5.350159   -0.094802   -0.120230
     16          7           0        6.512474   -0.114603   -0.168186
     17          6           0        3.203428   -1.201800    0.351382
     18          6           0        1.811715   -1.169003    0.407230
     19          6           0       -0.894903    1.176362    1.083029
     20          1           0       -3.068828   -2.125882    0.929029
     21          1           0       -0.722070   -1.534757    1.591535
     22          1           0       -0.794809   -2.100418   -0.079972
     23          1           0       -2.699015   -0.272555    2.608970
     24          1           0       -4.139057    0.041362    1.637467
     25          1           0       -2.716147    2.099746    1.802829
     26          1           0       -2.541657    2.574062   -0.652092
     27          1           0       -4.047232    1.729486   -0.285946
     28          1           0       -2.937047    0.678579   -2.283919
     29          1           0       -0.702720   -0.428492   -2.006523
     30          1           0       -0.578793    1.298928   -1.690297
     31          1           0        1.307920    2.020427   -0.633549
     32          1           0        3.757784    1.975429   -0.736241
     33          1           0        3.739538   -2.104452    0.626799
     34          1           0        1.293435   -2.064099    0.730431
     35          1           0       -0.510080    0.962216    2.088969
     36          1           0       -0.458682    2.135303    0.777367
 ---------------------------------------------------------------------
 Rotational constants (GHZ):           1.1028015           0.1938257           0.1882889
 Standard basis: 6-31G(d) (6D, 7F)
 There are   319 symmetry adapted cartesian basis functions of A   symmetry.
 There are   319 symmetry adapted basis functions of A   symmetry.
   319 basis functions,   600 primitive gaussians,   319 cartesian basis functions
    67 alpha electrons       67 beta electrons
       nuclear repulsion energy      1382.6871867299 Hartrees.
 NAtoms=   36 NActive=   36 NUniq=   36 SFac= 1.00D+00 NAtFMM=   60 NAOKFM=F Big=F
 Integral buffers will be    131072 words long.
 Raffenetti 2 integral format.
 Two-electron integral symmetry is turned on.
 One-electron integrals computed using PRISM.
 NBasis=   319 RedAO= T EigKep=  4.02D-04  NBF=   319
 NBsUse=   319 1.00D-06 EigRej= -1.00D+00 NBFU=   319
 ExpMin= 1.61D-01 ExpMax= 5.48D+03 ExpMxC= 8.25D+02 IAcc=3 IRadAn=         5 AccDes= 0.00D+00
 Harris functional with IExCor=  402 and IRadAn=       5 diagonalized for initial guess.
 HarFok:  IExCor=  402 AccDes= 0.00D+00 IRadAn=         5 IDoV= 1 UseB2=F ITyADJ=14
 ICtDFT=  3500011 ScaDFX=  1.000000  1.000000  1.000000  1.000000
 FoFCou: FMM=F IPFlag=           0 FMFlag=      100000 FMFlg1=           0
         NFxFlg=           0 DoJE=T BraDBF=F KetDBF=T FulRan=T
         wScrn=  0.000000 ICntrl=       500 IOpCl=  0 I1Cent=   200000004 NGrid=           0
         NMat0=    1 NMatS0=      1 NMatT0=    0 NMatD0=    1 NMtDS0=    0 NMtDT0=    0
 Petite list used in FoFCou.
 Requested convergence on RMS density matrix=1.00D-08 within 128 cycles.
 Requested convergence on MAX density matrix=1.00D-06.
 Requested convergence on             energy=1.00D-06.
 No special actions if energy rises.
 Integral accuracy reduced to 1.0D-05 until final iterations.
 Initial convergence to 1.0D-05 achieved.  Increase integral accuracy.
 SCF Done:  E(RB3LYP) =  -788.026818439     A.U. after   15 cycles
            NFock= 15  Conv=0.73D-08     -V/T= 2.0096
 DoSCS=F DFT=T ScalE2(SS,OS)=  1.000000  1.000000
 Range of M.O.s used for correlation:     1   319
 NBasis=   319 NAE=    67 NBE=    67 NFC=     0 NFV=     0
 NROrb=    319 NOA=    67 NOB=    67 NVA=   252 NVB=   252
 Symmetrizing basis deriv contribution to polar:
 IMax=3 JMax=2 DiffMx= 0.00D+00
 G2DrvN: will do    37 centers at a time, making    1 passes.
 Calling FoFCou, ICntrl=  3107 FMM=F I1Cent=   0 AccDes= 0.00D+00.
 End of G2Drv F.D. properties file   721 does not exist.
 End of G2Drv F.D. properties file   722 does not exist.
 End of G2Drv F.D. properties file   788 does not exist.
          IDoAtm=111111111111111111111111111111111111
          Differentiating once with respect to electric field.
                with respect to dipole field.
          Differentiating once with respect to nuclear coordinates.
 Keep R1 ints in memory in canonical form, NReq=1318967066.
          There are   111 degrees of freedom in the 1st order CPHF.  IDoFFX=6 NUNeed=     3.
    108 vectors produced by pass  0 Test12= 1.69D-14 1.00D-09 XBig12= 2.54D+02 1.06D+01.
 AX will form   108 AO Fock derivatives at one time.
    108 vectors produced by pass  1 Test12= 1.69D-14 1.00D-09 XBig12= 5.51D+01 2.48D+00.
    108 vectors produced by pass  2 Test12= 1.69D-14 1.00D-09 XBig12= 8.68D-01 1.18D-01.
    108 vectors produced by pass  3 Test12= 1.69D-14 1.00D-09 XBig12= 3.78D-03 9.40D-03.
    108 vectors produced by pass  4 Test12= 1.69D-14 1.00D-09 XBig12= 5.90D-06 2.55D-04.
     75 vectors produced by pass  5 Test12= 1.69D-14 1.00D-09 XBig12= 6.01D-09 8.29D-06.
     11 vectors produced by pass  6 Test12= 1.69D-14 1.00D-09 XBig12= 5.48D-12 3.98D-07.
      3 vectors produced by pass  7 Test12= 1.69D-14 1.00D-09 XBig12= 4.53D-15 8.24D-09.
 InvSVY:  IOpt=1 It=  1 EMax= 8.88D-15
 Solved reduced A of dimension   629 with   111 vectors.
 Isotropic polarizability for W=    0.000000      174.66 Bohr**3.
 End of Minotr F.D. properties file   721 does not exist.
 End of Minotr F.D. properties file   722 does not exist.
 End of Minotr F.D. properties file   788 does not exist.

 **********************************************************************

            Population analysis using the SCF density.

 **********************************************************************

 Orbital symmetries:
       Occupied  (A) (A) (A) (A) (A) (A) (A) (A) (A) (A) (A) (A)
                 (A) (A) (A) (A) (A) (A) (A) (A) (A) (A) (A) (A)
                 (A) (A) (A) (A) (A) (A) (A) (A) (A) (A) (A) (A)
                 (A) (A) (A) (A) (A) (A) (A) (A) (A) (A) (A) (A)
                 (A) (A) (A) (A) (A) (A) (A) (A) (A) (A) (A) (A)
                 (A) (A) (A) (A) (A) (A) (A)
       Virtual   (A) (A) (A) (A) (A) (A) (A) (A) (A) (A) (A) (A)
                 (A) (A) (A) (A) (A) (A) (A) (A) (A) (A) (A) (A)
                 (A) (A) (A) (A) (A) (A) (A) (A) (A) (A) (A) (A)
                 (A) (A) (A) (A) (A) (A) (A) (A) (A) (A) (A) (A)
                 (A) (A) (A) (A) (A) (A) (A) (A) (A) (A) (A) (A)
                 (A) (A) (A) (A) (A) (A) (A) (A) (A) (A) (A) (A)
                 (A) (A) (A) (A) (A) (A) (A) (A) (A) (A) (A) (A)
                 (A) (A) (A) (A) (A) (A) (A) (A) (A) (A) (A) (A)
                 (A) (A) (A) (A) (A) (A) (A) (A) (A) (A) (A) (A)
                 (A) (A) (A) (A) (A) (A) (A) (A) (A) (A) (A) (A)
                 (A) (A) (A) (A) (A) (A) (A) (A) (A) (A) (A) (A)
                 (A) (A) (A) (A) (A) (A) (A) (A) (A) (A) (A) (A)
                 (A) (A) (A) (A) (A) (A) (A) (A) (A) (A) (A) (A)
                 (A) (A) (A) (A) (A) (A) (A) (A) (A) (A) (A) (A)
                 (A) (A) (A) (A) (A) (A) (A) (A) (A) (A) (A) (A)
                 (A) (A) (A) (A) (A) (A) (A) (A) (A) (A) (A) (A)
                 (A) (A) (A) (A) (A) (A) (A) (A) (A) (A) (A) (A)
                 (A) (A) (A) (A) (A) (A) (A) (A) (A) (A) (A) (A)
                 (A) (A) (A) (A) (A) (A) (A) (A) (A) (A) (A) (A)
                 (A) (A) (A) (A) (A) (A) (A) (A) (A) (A) (A) (A)
                 (A) (A) (A) (A) (A) (A) (A) (A) (A) (A) (A) (A)
 The electronic state is 1-A.
 Alpha  occ. eigenvalues --  -19.14084 -14.33527 -10.27189 -10.24049 -10.22850
 Alpha  occ. eigenvalues --  -10.22452 -10.22379 -10.22100 -10.22076 -10.21344
 Alpha  occ. eigenvalues --  -10.21267 -10.20601 -10.20503 -10.20501 -10.20396
 Alpha  occ. eigenvalues --  -10.20356 -10.20117 -10.20073 -10.20004  -1.03923
 Alpha  occ. eigenvalues --   -0.90736  -0.89436  -0.87481  -0.81348  -0.79197
 Alpha  occ. eigenvalues --   -0.77906  -0.77146  -0.75861  -0.69081  -0.66556
 Alpha  occ. eigenvalues --   -0.65353  -0.63431  -0.60960  -0.59411  -0.58238
 Alpha  occ. eigenvalues --   -0.56822  -0.52280  -0.49395  -0.48627  -0.47384
 Alpha  occ. eigenvalues --   -0.46822  -0.46221  -0.45316  -0.44901  -0.44452
 Alpha  occ. eigenvalues --   -0.43992  -0.43077  -0.42023  -0.41184  -0.41035
 Alpha  occ. eigenvalues --   -0.40167  -0.38672  -0.37888  -0.37605  -0.37030
 Alpha  occ. eigenvalues --   -0.35793  -0.35728  -0.34925  -0.34612  -0.33947
 Alpha  occ. eigenvalues --   -0.32958  -0.31489  -0.31298  -0.30714  -0.27638
 Alpha  occ. eigenvalues --   -0.26009  -0.23838
 Alpha virt. eigenvalues --   -0.05247  -0.02678  -0.01707   0.03641   0.05614
 Alpha virt. eigenvalues --    0.07255   0.07840   0.09727   0.10671   0.11608
 Alpha virt. eigenvalues --    0.11924   0.12206   0.13242   0.13526   0.14354
 Alpha virt. eigenvalues --    0.14512   0.15747   0.16024   0.17265   0.17499
 Alpha virt. eigenvalues --    0.18011   0.18250   0.18759   0.19459   0.20016
 Alpha virt. eigenvalues --    0.20762   0.20813   0.22034   0.22867   0.23070
 Alpha virt. eigenvalues --    0.24397   0.25404   0.26734   0.27170   0.27474
 Alpha virt. eigenvalues --    0.28212   0.30746   0.32204   0.32937   0.33275
 Alpha virt. eigenvalues --    0.35399   0.36518   0.40771   0.46362   0.48623
 Alpha virt. eigenvalues --    0.49255   0.49819   0.50211   0.51428   0.51689
 Alpha virt. eigenvalues --    0.53434   0.54140   0.54697   0.55877   0.56366
 Alpha virt. eigenvalues --    0.56775   0.57474   0.58224   0.58949   0.59775
 Alpha virt. eigenvalues --    0.60449   0.61262   0.62781   0.63215   0.63340
 Alpha virt. eigenvalues --    0.65110   0.65579   0.66272   0.66863   0.67112
 Alpha virt. eigenvalues --    0.67767   0.70078   0.70387   0.70780   0.72195
 Alpha virt. eigenvalues --    0.73998   0.74296   0.75758   0.76287   0.77705
 Alpha virt. eigenvalues --    0.77786   0.79241   0.79544   0.80736   0.81335
 Alpha virt. eigenvalues --    0.82178   0.84106   0.84303   0.85118   0.85641
 Alpha virt. eigenvalues --    0.86040   0.86367   0.86675   0.87634   0.87692
 Alpha virt. eigenvalues --    0.88782   0.89976   0.90594   0.91790   0.93050
 Alpha virt. eigenvalues --    0.93121   0.94206   0.95402   0.96564   0.97373
 Alpha virt. eigenvalues --    0.97615   0.98518   1.00445   1.04067   1.07783
 Alpha virt. eigenvalues --    1.08107   1.08717   1.10539   1.12180   1.14099
 Alpha virt. eigenvalues --    1.15361   1.15600   1.16263   1.17079   1.20199
 Alpha virt. eigenvalues --    1.20624   1.22538   1.24935   1.25427   1.26381
 Alpha virt. eigenvalues --    1.28778   1.32794   1.36889   1.39442   1.40904
 Alpha virt. eigenvalues --    1.43155   1.43306   1.43823   1.45692   1.47178
 Alpha virt. eigenvalues --    1.48877   1.50841   1.51195   1.53819   1.55408
 Alpha virt. eigenvalues --    1.58814   1.59605   1.59849   1.64110   1.66262
 Alpha virt. eigenvalues --    1.67812   1.70214   1.71974   1.73048   1.73861
 Alpha virt. eigenvalues --    1.75746   1.76070   1.76505   1.77680   1.79415
 Alpha virt. eigenvalues --    1.80049   1.81127   1.81228   1.82872   1.83836
 Alpha virt. eigenvalues --    1.84622   1.85826   1.87974   1.89177   1.90810
 Alpha virt. eigenvalues --    1.93695   1.94889   1.95482   1.95913   1.97554
 Alpha virt. eigenvalues --    1.99788   2.00268   2.01632   2.02685   2.05405
 Alpha virt. eigenvalues --    2.06610   2.06724   2.07688   2.09920   2.11302
 Alpha virt. eigenvalues --    2.11721   2.12746   2.13428   2.14656   2.15652
 Alpha virt. eigenvalues --    2.16968   2.19809   2.20970   2.22889   2.24795
 Alpha virt. eigenvalues --    2.26810   2.28295   2.28628   2.30372   2.32067
 Alpha virt. eigenvalues --    2.33919   2.34867   2.37264   2.39129   2.41151
 Alpha virt. eigenvalues --    2.42128   2.45446   2.45880   2.48506   2.49798
 Alpha virt. eigenvalues --    2.51630   2.55233   2.56955   2.58782   2.60904
 Alpha virt. eigenvalues --    2.62169   2.63900   2.66803   2.67733   2.69146
 Alpha virt. eigenvalues --    2.70300   2.72138   2.72781   2.74064   2.74834
 Alpha virt. eigenvalues --    2.77199   2.78821   2.79822   2.80393   2.82019
 Alpha virt. eigenvalues --    2.84144   2.96406   3.00362   3.01863   3.03628
 Alpha virt. eigenvalues --    3.16934   3.25659   3.44045   4.03475   4.08706
 Alpha virt. eigenvalues --    4.09012   4.10120   4.14638   4.19007   4.25743
 Alpha virt. eigenvalues --    4.28115   4.29486   4.30279   4.33768   4.48080
 Alpha virt. eigenvalues --    4.53019   4.56598   4.70174   4.75630   4.79218
 Alpha virt. eigenvalues --    4.83552   4.84141
          Condensed to atoms (all electrons):
               1          2          3          4          5          6
     1  O    8.006794   0.580864  -0.073805   0.000998   0.000892   0.000045
     2  C    0.580864   4.513834   0.329547  -0.027785  -0.029321  -0.020445
     3  C   -0.073805   0.329547   5.231150   0.321735   0.338878  -0.027789
     4  C    0.000998  -0.027785   0.321735   5.181688  -0.038080  -0.014231
     5  C    0.000892  -0.029321   0.338878  -0.038080   5.093428   0.374781
     6  C    0.000045  -0.020445  -0.027789  -0.014231   0.374781   4.941796
     7  C    0.000942  -0.029625  -0.007917  -0.003047  -0.049213   0.374655
     8  C   -0.073576   0.329959  -0.126259  -0.005949  -0.008276  -0.028335
     9  C    0.000928  -0.027741  -0.006862  -0.058630  -0.002504  -0.014790
    10  C    0.000107  -0.019494  -0.017820   0.362405  -0.016514  -0.021388
    11  C    0.000001   0.000020   0.003433  -0.038526  -0.000051   0.004063
    12  C   -0.000000  -0.000006  -0.000097   0.005509  -0.000000   0.000320
    13  C   -0.000000   0.000000   0.000001  -0.000152   0.000000  -0.000000
    14  C   -0.000000  -0.000000   0.000000  -0.000017  -0.000000  -0.000000
    15  C    0.000000  -0.000000  -0.000000  -0.000000  -0.000000  -0.000000
    16  N    0.000000  -0.000000  -0.000000  -0.000000  -0.000000   0.000000
    17  C   -0.000000   0.000000  -0.000007   0.000230   0.000000   0.000001
    18  C   -0.000000  -0.000013   0.000531  -0.009555  -0.000012  -0.000068
    19  C   -0.000031  -0.002776  -0.013355  -0.057158  -0.045921   0.355599
    20  H    0.004255  -0.031402   0.346628  -0.031170  -0.031046   0.004211
    21  H   -0.000084   0.003511  -0.030572   0.354357  -0.005931  -0.000773
    22  H    0.000759  -0.001017  -0.039085   0.361717   0.005075  -0.000040
    23  H   -0.000081   0.003522  -0.030979  -0.006122   0.361628  -0.033430
    24  H    0.000752  -0.000858  -0.039564   0.005131   0.368895  -0.034868
    25  H   -0.000000   0.000285   0.004655   0.000102  -0.037644   0.370011
    26  H   -0.000081   0.003541  -0.000321   0.000114   0.005236  -0.033899
    27  H    0.000719  -0.000804  -0.000070   0.000060  -0.004208  -0.034697
    28  H    0.004178  -0.031179   0.007089  -0.000062  -0.000063   0.004148
    29  H    0.000720  -0.001280   0.000502  -0.006532  -0.000009  -0.000040
    30  H   -0.000082   0.003515  -0.000338   0.005782   0.000100  -0.000680
    31  H   -0.000000  -0.000004  -0.000003   0.000099  -0.000000  -0.000136
    32  H    0.000000  -0.000000  -0.000000   0.000002  -0.000000  -0.000000
    33  H    0.000000   0.000000  -0.000000   0.000005  -0.000000  -0.000000
    34  H   -0.000000  -0.000015   0.000050   0.007986  -0.000003  -0.000008
    35  H    0.000000   0.000141  -0.001111  -0.005796  -0.003833  -0.033685
    36  H    0.000000   0.000145  -0.000082   0.005738   0.005102  -0.033513
               7          8          9         10         11         12
     1  O    0.000942  -0.073576   0.000928   0.000107   0.000001  -0.000000
     2  C   -0.029625   0.329959  -0.027741  -0.019494   0.000020  -0.000006
     3  C   -0.007917  -0.126259  -0.006862  -0.017820   0.003433  -0.000097
     4  C   -0.003047  -0.005949  -0.058630   0.362405  -0.038526   0.005509
     5  C   -0.049213  -0.008276  -0.002504  -0.016514  -0.000051  -0.000000
     6  C    0.374655  -0.028335  -0.014790  -0.021388   0.004063   0.000320
     7  C    5.097410   0.338764  -0.039093  -0.016565   0.000040  -0.000052
     8  C    0.338764   5.235716   0.315700  -0.020398   0.004036   0.000309
     9  C   -0.039093   0.315700   5.173839   0.363981  -0.044587  -0.008688
    10  C   -0.016565  -0.020398   0.363981   4.964367   0.356240  -0.052210
    11  C    0.000040   0.004036  -0.044587   0.356240   4.707229   0.515013
    12  C   -0.000052   0.000309  -0.008688  -0.052210   0.515013   5.023751
    13  C   -0.000000  -0.000000   0.000294   0.005197  -0.021046   0.496753
    14  C   -0.000000  -0.000000  -0.000002   0.000310  -0.024925  -0.023845
    15  C   -0.000000  -0.000000  -0.000000   0.000003   0.001113   0.005410
    16  N   -0.000000   0.000000  -0.000000  -0.000000   0.000011  -0.000082
    17  C    0.000000   0.000001  -0.000165   0.006749  -0.022510  -0.052188
    18  C   -0.000003  -0.000057   0.001132  -0.051878   0.543187  -0.045305
    19  C   -0.046539  -0.012957  -0.052038   0.370340  -0.047848  -0.008577
    20  H   -0.000052   0.007102  -0.000075   0.003465  -0.000103   0.000002
    21  H    0.000135  -0.000415   0.005920  -0.028410  -0.006544  -0.000133
    22  H    0.000007   0.000506  -0.006407  -0.029919  -0.006703  -0.000092
    23  H    0.005202  -0.000300   0.000102  -0.001149  -0.000094   0.000000
    24  H   -0.004294  -0.000029   0.000043   0.000194   0.000012  -0.000000
    25  H   -0.037464   0.004604   0.000087   0.004146  -0.000095  -0.000008
    26  H    0.360998  -0.031779  -0.005633  -0.001312  -0.000078  -0.000035
    27  H    0.368286  -0.039079   0.005116   0.000194   0.000012   0.000001
    28  H   -0.030803   0.346060  -0.030587   0.003540  -0.000103  -0.000006
    29  H    0.005015  -0.037354   0.364358  -0.034616  -0.002355  -0.000272
    30  H   -0.005798  -0.029320   0.355384  -0.030789  -0.009225   0.005101
    31  H   -0.000015  -0.000118   0.000294  -0.007428  -0.045867   0.353747
    32  H   -0.000000  -0.000000   0.000001  -0.000145   0.003219  -0.037597
    33  H   -0.000000  -0.000000   0.000001  -0.000141   0.003356   0.000501
    34  H   -0.000001  -0.000007   0.000261  -0.015357  -0.038114   0.005781
    35  H    0.005085  -0.000140   0.005719  -0.036067  -0.001862  -0.000241
    36  H   -0.003554  -0.001075  -0.004967  -0.033593  -0.009097   0.005060
              13         14         15         16         17         18
     1  O   -0.000000  -0.000000   0.000000   0.000000  -0.000000  -0.000000
     2  C    0.000000  -0.000000  -0.000000  -0.000000   0.000000  -0.000013
     3  C    0.000001   0.000000  -0.000000  -0.000000  -0.000007   0.000531
     4  C   -0.000152  -0.000017  -0.000000  -0.000000   0.000230  -0.009555
     5  C    0.000000  -0.000000  -0.000000  -0.000000   0.000000  -0.000012
     6  C   -0.000000  -0.000000  -0.000000   0.000000   0.000001  -0.000068
     7  C   -0.000000  -0.000000  -0.000000  -0.000000   0.000000  -0.000003
     8  C   -0.000000  -0.000000  -0.000000   0.000000   0.000001  -0.000057
     9  C    0.000294  -0.000002  -0.000000  -0.000000  -0.000165   0.001132
    10  C    0.005197   0.000310   0.000003  -0.000000   0.006749  -0.051878
    11  C   -0.021046  -0.024925   0.001113   0.000011  -0.022510   0.543187
    12  C    0.496753  -0.023845   0.005410  -0.000082  -0.052188  -0.045305
    13  C    4.929317   0.534774  -0.043555  -0.000163  -0.036194  -0.049784
    14  C    0.534774   4.820985   0.212773  -0.096384   0.539716  -0.023413
    15  C   -0.043555   0.212773   4.762419   0.877215  -0.042978   0.005160
    16  N   -0.000163  -0.096384   0.877215   6.696185  -0.000227  -0.000084
    17  C   -0.036194   0.539716  -0.042978  -0.000227   4.950916   0.479347
    18  C   -0.049784  -0.023413   0.005160  -0.000084   0.479347   5.014731
    19  C    0.000288  -0.000002  -0.000000  -0.000000  -0.000164   0.001200
    20  H   -0.000000  -0.000000   0.000000   0.000000   0.000000   0.000005
    21  H    0.000001  -0.000007  -0.000000   0.000000   0.000058   0.001779
    22  H    0.000001  -0.000008  -0.000000   0.000000   0.000068   0.001631
    23  H   -0.000000  -0.000000  -0.000000  -0.000000  -0.000000  -0.000003
    24  H    0.000000   0.000000   0.000000   0.000000  -0.000000   0.000000
    25  H   -0.000000   0.000000   0.000000  -0.000000  -0.000000   0.000001
    26  H   -0.000000  -0.000000  -0.000000  -0.000000  -0.000000   0.000001
    27  H    0.000000   0.000000   0.000000   0.000000   0.000000  -0.000000
    28  H   -0.000000   0.000000   0.000000  -0.000000  -0.000000   0.000000
    29  H   -0.000040  -0.000012  -0.000000   0.000000  -0.000018   0.001230
    30  H    0.000035  -0.000007  -0.000000  -0.000000   0.000007  -0.000257
    31  H   -0.038567   0.003824  -0.000219  -0.000000   0.000687   0.005438
    32  H    0.359166  -0.040342  -0.006509   0.000555   0.005050   0.000508
    33  H    0.005030  -0.040793  -0.006658   0.000542   0.359015  -0.036763
    34  H    0.000623   0.003946  -0.000205  -0.000000  -0.044815   0.355740
    35  H   -0.000052  -0.000011  -0.000000   0.000000  -0.000023   0.001236
    36  H    0.000019  -0.000006  -0.000000  -0.000000   0.000005  -0.000226
              19         20         21         22         23         24
     1  O   -0.000031   0.004255  -0.000084   0.000759  -0.000081   0.000752
     2  C   -0.002776  -0.031402   0.003511  -0.001017   0.003522  -0.000858
     3  C   -0.013355   0.346628  -0.030572  -0.039085  -0.030979  -0.039564
     4  C   -0.057158  -0.031170   0.354357   0.361717  -0.006122   0.005131
     5  C   -0.045921  -0.031046  -0.005931   0.005075   0.361628   0.368895
     6  C    0.355599   0.004211  -0.000773  -0.000040  -0.033430  -0.034868
     7  C   -0.046539  -0.000052   0.000135   0.000007   0.005202  -0.004294
     8  C   -0.012957   0.007102  -0.000415   0.000506  -0.000300  -0.000029
     9  C   -0.052038  -0.000075   0.005920  -0.006407   0.000102   0.000043
    10  C    0.370340   0.003465  -0.028410  -0.029919  -0.001149   0.000194
    11  C   -0.047848  -0.000103  -0.006544  -0.006703  -0.000094   0.000012
    12  C   -0.008577   0.000002  -0.000133  -0.000092   0.000000  -0.000000
    13  C    0.000288  -0.000000   0.000001   0.000001  -0.000000   0.000000
    14  C   -0.000002  -0.000000  -0.000007  -0.000008  -0.000000   0.000000
    15  C   -0.000000   0.000000  -0.000000  -0.000000  -0.000000   0.000000
    16  N   -0.000000   0.000000   0.000000   0.000000  -0.000000   0.000000
    17  C   -0.000164   0.000000   0.000058   0.000068  -0.000000  -0.000000
    18  C    0.001200   0.000005   0.001779   0.001631  -0.000003   0.000000
    19  C    5.148223   0.000145  -0.005504   0.005735  -0.003643   0.005024
    20  H    0.000145   0.594885  -0.003991  -0.002646  -0.004112  -0.002433
    21  H   -0.005504  -0.003991   0.597897  -0.038861   0.005713  -0.000046
    22  H    0.005735  -0.002646  -0.038861   0.590474  -0.000060  -0.000156
    23  H   -0.003643  -0.004112   0.005713  -0.000060   0.596613  -0.034616
    24  H    0.005024  -0.002433  -0.000046  -0.000156  -0.034616   0.587579
    25  H   -0.038123  -0.000143  -0.000096   0.000018  -0.003199  -0.003299
    26  H   -0.003451   0.000023  -0.000005   0.000001  -0.000200   0.000009
    27  H    0.005013  -0.000080   0.000000  -0.000005   0.000009   0.004187
    28  H    0.000135  -0.000180   0.000024  -0.000089   0.000022  -0.000084
    29  H    0.005582  -0.000088  -0.000012   0.004830   0.000001  -0.000005
    30  H   -0.004842   0.000023  -0.000200   0.000006  -0.000004   0.000001
    31  H    0.000318   0.000000  -0.000000   0.000002  -0.000000  -0.000000
    32  H    0.000001   0.000000   0.000000   0.000000   0.000000  -0.000000
    33  H    0.000002   0.000000   0.000003   0.000004   0.000000  -0.000000
    34  H    0.000252   0.000002   0.002016   0.002109  -0.000001  -0.000000
    35  H    0.361535  -0.000075   0.005303  -0.000065   0.004554  -0.000033
    36  H    0.359242   0.000017  -0.000055  -0.000167  -0.000049  -0.000161
              25         26         27         28         29         30
     1  O   -0.000000  -0.000081   0.000719   0.004178   0.000720  -0.000082
     2  C    0.000285   0.003541  -0.000804  -0.031179  -0.001280   0.003515
     3  C    0.004655  -0.000321  -0.000070   0.007089   0.000502  -0.000338
     4  C    0.000102   0.000114   0.000060  -0.000062  -0.006532   0.005782
     5  C   -0.037644   0.005236  -0.004208  -0.000063  -0.000009   0.000100
     6  C    0.370011  -0.033899  -0.034697   0.004148  -0.000040  -0.000680
     7  C   -0.037464   0.360998   0.368286  -0.030803   0.005015  -0.005798
     8  C    0.004604  -0.031779  -0.039079   0.346060  -0.037354  -0.029320
     9  C    0.000087  -0.005633   0.005116  -0.030587   0.364358   0.355384
    10  C    0.004146  -0.001312   0.000194   0.003540  -0.034616  -0.030789
    11  C   -0.000095  -0.000078   0.000012  -0.000103  -0.002355  -0.009225
    12  C   -0.000008  -0.000035   0.000001  -0.000006  -0.000272   0.005101
    13  C   -0.000000  -0.000000   0.000000  -0.000000  -0.000040   0.000035
    14  C    0.000000  -0.000000   0.000000   0.000000  -0.000012  -0.000007
    15  C    0.000000  -0.000000   0.000000   0.000000  -0.000000  -0.000000
    16  N   -0.000000  -0.000000   0.000000  -0.000000   0.000000  -0.000000
    17  C   -0.000000  -0.000000   0.000000  -0.000000  -0.000018   0.000007
    18  C    0.000001   0.000001  -0.000000   0.000000   0.001230  -0.000257
    19  C   -0.038123  -0.003451   0.005013   0.000135   0.005582  -0.004842
    20  H   -0.000143   0.000023  -0.000080  -0.000180  -0.000088   0.000023
    21  H   -0.000096  -0.000005   0.000000   0.000024  -0.000012  -0.000200
    22  H    0.000018   0.000001  -0.000005  -0.000089   0.004830   0.000006
    23  H   -0.003199  -0.000200   0.000009   0.000022   0.000001  -0.000004
    24  H   -0.003299   0.000009   0.004187  -0.000084  -0.000005   0.000001
    25  H    0.618538  -0.003215  -0.003389  -0.000138   0.000018  -0.000078
    26  H   -0.003215   0.599964  -0.034694  -0.004017  -0.000062   0.005763
    27  H   -0.003389  -0.034694   0.587464  -0.002518  -0.000155  -0.000059
    28  H   -0.000138  -0.004017  -0.002518   0.593434  -0.002484  -0.004132
    29  H    0.000018  -0.000062  -0.000155  -0.002484   0.583506  -0.034263
    30  H   -0.000078   0.005763  -0.000059  -0.004132  -0.034263   0.595189
    31  H    0.000005   0.000046  -0.000001   0.000002   0.000038   0.003756
    32  H    0.000000   0.000000  -0.000000   0.000000   0.000000   0.000005
    33  H    0.000000   0.000000  -0.000000   0.000000   0.000001   0.000000
    34  H    0.000000   0.000000  -0.000000   0.000000  -0.000027  -0.000009
    35  H   -0.003433  -0.000058  -0.000159   0.000017  -0.000159  -0.000070
    36  H   -0.003820   0.004705  -0.000044  -0.000059  -0.000056   0.003402
              31         32         33         34         35         36
     1  O   -0.000000   0.000000   0.000000  -0.000000   0.000000   0.000000
     2  C   -0.000004  -0.000000   0.000000  -0.000015   0.000141   0.000145
     3  C   -0.000003  -0.000000  -0.000000   0.000050  -0.001111  -0.000082
     4  C    0.000099   0.000002   0.000005   0.007986  -0.005796   0.005738
     5  C   -0.000000  -0.000000  -0.000000  -0.000003  -0.003833   0.005102
     6  C   -0.000136  -0.000000  -0.000000  -0.000008  -0.033685  -0.033513
     7  C   -0.000015  -0.000000  -0.000000  -0.000001   0.005085  -0.003554
     8  C   -0.000118  -0.000000  -0.000000  -0.000007  -0.000140  -0.001075
     9  C    0.000294   0.000001   0.000001   0.000261   0.005719  -0.004967
    10  C   -0.007428  -0.000145  -0.000141  -0.015357  -0.036067  -0.033593
    11  C   -0.045867   0.003219   0.003356  -0.038114  -0.001862  -0.009097
    12  C    0.353747  -0.037597   0.000501   0.005781  -0.000241   0.005060
    13  C   -0.038567   0.359166   0.005030   0.000623  -0.000052   0.000019
    14  C    0.003824  -0.040342  -0.040793   0.003946  -0.000011  -0.000006
    15  C   -0.000219  -0.006509  -0.006658  -0.000205  -0.000000  -0.000000
    16  N   -0.000000   0.000555   0.000542  -0.000000   0.000000  -0.000000
    17  C    0.000687   0.005050   0.359015  -0.044815  -0.000023   0.000005
    18  C    0.005438   0.000508  -0.036763   0.355740   0.001236  -0.000226
    19  C    0.000318   0.000001   0.000002   0.000252   0.361535   0.359242
    20  H    0.000000   0.000000   0.000000   0.000002  -0.000075   0.000017
    21  H   -0.000000   0.000000   0.000003   0.002016   0.005303  -0.000055
    22  H    0.000002   0.000000   0.000004   0.002109  -0.000065  -0.000167
    23  H   -0.000000   0.000000   0.000000  -0.000001   0.004554  -0.000049
    24  H   -0.000000  -0.000000  -0.000000  -0.000000  -0.000033  -0.000161
    25  H    0.000005   0.000000   0.000000   0.000000  -0.003433  -0.003820
    26  H    0.000046   0.000000   0.000000   0.000000  -0.000058   0.004705
    27  H   -0.000001  -0.000000  -0.000000  -0.000000  -0.000159  -0.000044
    28  H    0.000002   0.000000   0.000000   0.000000   0.000017  -0.000059
    29  H    0.000038   0.000000   0.000001  -0.000027  -0.000159  -0.000056
    30  H    0.003756   0.000005   0.000000  -0.000009  -0.000070   0.003402
    31  H    0.584838  -0.005173   0.000018  -0.000171   0.000059   0.003988
    32  H   -0.005173   0.562601  -0.000160   0.000017   0.000000   0.000006
    33  H    0.000018  -0.000160   0.561775  -0.005171   0.000001   0.000000
    34  H   -0.000171   0.000017  -0.005171   0.579967  -0.000013  -0.000006
    35  H    0.000059   0.000000   0.000001  -0.000013   0.596847  -0.034223
    36  H    0.003988   0.000006   0.000000  -0.000006  -0.034223   0.601678
 Mulliken charges:
               1
     1  O   -0.455213
     2  C    0.454879
     3  C   -0.168163
     4  C   -0.310846
     5  C   -0.281387
     6  C   -0.096817
     7  C   -0.282506
     8  C   -0.167333
     9  C   -0.290392
    10  C   -0.006041
    11  C    0.178748
    12  C   -0.187823
    13  C   -0.141943
    14  C    0.133448
    15  C    0.236033
    16  N   -0.477569
    17  C   -0.142563
    18  C   -0.195436
    19  C   -0.275706
    20  H    0.146837
    21  H    0.144925
    22  H    0.152379
    23  H    0.140677
    24  H    0.148618
    25  H    0.131676
    26  H    0.138440
    27  H    0.148904
    28  H    0.147854
    29  H    0.154042
    30  H    0.142080
    31  H    0.140545
    32  H    0.158796
    33  H    0.159434
    34  H    0.145170
    35  H    0.140611
    36  H    0.135641
 Sum of Mulliken charges =  -0.00000
 Mulliken charges with hydrogens summed into heavy atoms:
               1
     1  O   -0.455213
     2  C    0.454879
     3  C   -0.021325
     4  C   -0.013542
     5  C    0.007908
     6  C    0.034859
     7  C    0.004839
     8  C   -0.019478
     9  C    0.005729
    10  C   -0.006041
    11  C    0.178748
    12  C   -0.047278
    13  C    0.016853
    14  C    0.133448
    15  C    0.236033
    16  N   -0.477569
    17  C    0.016872
    18  C   -0.050266
    19  C    0.000545
 APT charges:
               1
     1  O   -0.644782
     2  C    0.699188
     3  C   -0.034428
     4  C    0.079409
     5  C    0.110173
     6  C    0.108413
     7  C    0.114262
     8  C   -0.048369
     9  C    0.077098
    10  C    0.077593
    11  C    0.139862
    12  C   -0.128622
    13  C    0.044592
    14  C   -0.017762
    15  C    0.241634
    16  N   -0.383237
    17  C    0.041609
    18  C   -0.126158
    19  C    0.047175
    20  H   -0.052755
    21  H   -0.036325
    22  H   -0.029326
    23  H   -0.041533
    24  H   -0.042851
    25  H   -0.079650
    26  H   -0.041639
    27  H   -0.044007
    28  H   -0.058236
    29  H   -0.027676
    30  H   -0.031155
    31  H    0.034844
    32  H    0.038100
    33  H    0.037711
    34  H    0.045782
    35  H   -0.036200
    36  H   -0.032737
 Sum of APT charges =   0.00000
 APT charges with hydrogens summed into heavy atoms:
               1
     1  O   -0.644782
     2  C    0.699188
     3  C   -0.087183
     4  C    0.013758
     5  C    0.025789
     6  C    0.028763
     7  C    0.028617
     8  C   -0.106605
     9  C    0.018268
    10  C    0.077593
    11  C    0.139862
    12  C   -0.093778
    13  C    0.082691
    14  C   -0.017762
    15  C    0.241634
    16  N   -0.383237
    17  C    0.079320
    18  C   -0.080376
    19  C   -0.021762
 Electronic spatial extent (au):  <R**2>=           5757.8028
 Charge=             -0.0000 electrons
 Dipole moment (field-independent basis, Debye):
    X=             -3.2970    Y=              1.9420    Z=              1.8771  Tot=              4.2621
 Quadrupole moment (field-independent basis, Debye-Ang):
   XX=           -161.7265   YY=           -106.1601   ZZ=           -111.8887
   XY=             -7.7781   XZ=             -6.6933   YZ=             -6.0457
 Traceless Quadrupole moment (field-independent basis, Debye-Ang):
   XX=            -35.1347   YY=             20.4317   ZZ=             14.7030
   XY=             -7.7781   XZ=             -6.6933   YZ=             -6.0457
 Octapole moment (field-independent basis, Debye-Ang**2):
  XXX=           -296.7382  YYY=             -0.2375  ZZZ=             -0.0912  XYY=             17.4341
  XXY=             40.2521  XXZ=             40.5256  XZZ=             -3.0314  YZZ=              3.3291
  YYZ=              3.7934  XYZ=              7.8647
 Hexadecapole moment (field-independent basis, Debye-Ang**3):
 XXXX=          -8935.7008 YYYY=           -834.7941 ZZZZ=           -646.7482 XXXY=            -89.0228
 XXXZ=            -54.9729 YYYX=             -3.8836 YYYZ=            -15.3523 ZZZX=              2.6685
 ZZZY=             -0.7975 XXYY=          -1188.1221 XXZZ=          -1203.7189 YYZZ=           -255.1006
 XXYZ=            -81.0071 YYXZ=            -18.4600 ZZXY=            -14.6474
 N-N= 1.382687186730D+03 E-N=-4.591877601330D+03  KE= 7.805342223579D+02
  Exact polarizability: 251.975  -0.365 151.247  -1.387  -9.861 120.763
 Approx polarizability: 348.904   4.239 256.702   1.329 -20.267 189.839
 Calling FoFJK, ICntrl=    100127 FMM=F ISym2X=0 I1Cent= 0 IOpClX= 0 NMat=1 NMatS=1 NMatT=0.
 Full mass-weighted force constant matrix:
 Low frequencies ---  -11.3282   -2.5001    0.0003    0.0005    0.0008    4.6865
 Low frequencies ---   43.9621   55.1097   84.5301
 Diagonal vibrational polarizability:
       13.0146733      25.1992832      39.9938162
 Harmonic frequencies (cm**-1), IR intensities (KM/Mole), Raman scattering
 activities (A**4/AMU), depolarization ratios for plane and unpolarized
 incident light, reduced masses (AMU), force constants (mDyne/A),
 and normal coordinates:
                      1                      2                      3
                      A                      A                      A
 Frequencies --     43.9507                55.1033                84.5275
 Red. masses --      5.7701                 4.5945                 8.1775
 Frc consts  --      0.0066                 0.0082                 0.0344
 IR Inten    --      1.9647                 1.6411                 3.5645
  Atom  AN      X      Y      Z        X      Y      Z        X      Y      Z
     1   8    -0.17   0.11   0.07     0.08   0.02  -0.13     0.38  -0.26  -0.11
     2   6    -0.08   0.05   0.03     0.03   0.02  -0.06     0.07  -0.04   0.03
     3   6     0.01  -0.02  -0.02    -0.01  -0.03  -0.06     0.03   0.03   0.06
     4   6     0.01  -0.05  -0.11    -0.01  -0.01  -0.02     0.03   0.08  -0.02
     5   6     0.09  -0.05   0.04    -0.04  -0.07  -0.03     0.05  -0.00   0.09
     6   6     0.09  -0.04   0.05    -0.03  -0.04   0.04    -0.01   0.02   0.08
     7   6     0.01   0.02   0.09    -0.00   0.01   0.05    -0.12   0.01   0.12
     8   6    -0.06   0.04   0.03     0.02   0.05   0.01    -0.11   0.06   0.08
     9   6    -0.07   0.01  -0.06     0.02   0.06   0.04    -0.10   0.13  -0.00
    10   6     0.01  -0.05  -0.10    -0.00   0.01   0.04    -0.03   0.10  -0.04
    11   6     0.00  -0.05  -0.14    -0.00   0.02   0.07    -0.03   0.08  -0.10
    12   6    -0.01  -0.09  -0.26    -0.01  -0.04  -0.11     0.01   0.04  -0.13
    13   6    -0.00  -0.06  -0.19    -0.02  -0.05  -0.15     0.01  -0.00  -0.11
    14   6     0.01   0.01   0.01    -0.01   0.00   0.01    -0.03  -0.02  -0.06
    15   6     0.02   0.06   0.14    -0.01  -0.03  -0.09    -0.03  -0.09   0.06
    16   7     0.02   0.11   0.27    -0.02  -0.06  -0.19    -0.02  -0.22   0.22
    17   6     0.02   0.04   0.10     0.01   0.08   0.25    -0.08   0.01  -0.08
    18   6     0.02   0.00   0.02     0.01   0.09   0.27    -0.07   0.05  -0.10
    19   6     0.08  -0.07  -0.04    -0.03  -0.03   0.07    -0.01   0.08  -0.00
    20   1     0.01  -0.02  -0.03    -0.01  -0.04  -0.11     0.08   0.00   0.06
    21   1     0.05  -0.08  -0.13    -0.05  -0.03  -0.01     0.08   0.09  -0.04
    22   1    -0.03  -0.04  -0.14     0.04   0.01  -0.03     0.01   0.09  -0.04
    23   1     0.15  -0.09   0.02    -0.06  -0.11  -0.03     0.11  -0.02   0.07
    24   1     0.10  -0.03   0.11    -0.04  -0.07  -0.05     0.05  -0.03   0.15
    25   1     0.14  -0.06   0.10    -0.06  -0.07   0.07    -0.00   0.00   0.11
    26   1     0.01   0.02   0.11    -0.00   0.03   0.09    -0.20   0.04   0.11
    27   1     0.02   0.04   0.16    -0.01   0.00   0.03    -0.13  -0.05   0.20
    28   1    -0.12   0.09   0.06     0.05   0.09   0.01    -0.16   0.06   0.10
    29   1    -0.13   0.02  -0.10     0.04   0.08   0.02    -0.11   0.18  -0.06
    30   1    -0.07   0.01  -0.06     0.02   0.07   0.08    -0.16   0.17   0.02
    31   1    -0.02  -0.13  -0.38    -0.02  -0.08  -0.24     0.04   0.06  -0.14
    32   1    -0.01  -0.08  -0.27    -0.02  -0.11  -0.32     0.04  -0.02  -0.11
    33   1     0.03   0.08   0.24     0.01   0.13   0.39    -0.11  -0.01  -0.06
    34   1     0.03   0.03   0.10     0.02   0.14   0.43    -0.10   0.07  -0.10
    35   1     0.14  -0.10  -0.07    -0.05  -0.06   0.08     0.06   0.08  -0.03
    36   1     0.09  -0.07  -0.04    -0.02  -0.02   0.11    -0.05   0.09  -0.03
                      4                      5                      6
                      A                      A                      A
 Frequencies --    103.8691               153.3610               173.3855
 Red. masses --      6.8850                 5.5473                 4.9269
 Frc consts  --      0.0438                 0.0769                 0.0873
 IR Inten    --      2.1587                 2.3019                 2.5670
  Atom  AN      X      Y      Z        X      Y      Z        X      Y      Z
     1   8     0.23  -0.06  -0.15    -0.06   0.08   0.01    -0.04   0.01   0.05
     2   6     0.02   0.06  -0.01     0.04  -0.01  -0.02     0.02  -0.02  -0.01
     3   6    -0.11   0.09   0.05     0.01  -0.03  -0.01     0.06  -0.02  -0.02
     4   6    -0.11  -0.03   0.08     0.02   0.01   0.13     0.05   0.09  -0.03
     5   6    -0.05   0.13   0.02    -0.13  -0.03  -0.06     0.02  -0.06   0.00
     6   6     0.07   0.08   0.03    -0.09  -0.02  -0.00    -0.09  -0.01  -0.01
     7   6     0.12   0.11   0.02     0.03  -0.03  -0.05    -0.15  -0.06  -0.00
     8   6     0.02   0.07   0.03     0.10  -0.03  -0.01    -0.01  -0.01  -0.02
     9   6     0.01  -0.06   0.05     0.09  -0.01   0.11     0.01   0.14   0.01
    10   6    -0.02  -0.09   0.05     0.01   0.03   0.15     0.01   0.12   0.01
    11   6    -0.03  -0.14   0.01     0.02   0.04   0.09     0.02   0.05   0.03
    12   6    -0.06  -0.14  -0.03    -0.01   0.02  -0.04     0.11  -0.02   0.01
    13   6    -0.07  -0.11  -0.06    -0.02  -0.01  -0.23     0.11  -0.16  -0.01
    14   6    -0.04  -0.09  -0.05     0.00  -0.01  -0.26     0.03  -0.21  -0.01
    15   6    -0.04   0.08  -0.02     0.01  -0.00  -0.08     0.03  -0.12   0.00
    16   7    -0.03   0.38  -0.00     0.02  -0.04   0.27     0.04   0.28  -0.03
    17   6    -0.01  -0.11  -0.05     0.03   0.00  -0.18    -0.06  -0.15   0.01
    18   6    -0.01  -0.14  -0.02     0.03   0.03  -0.00    -0.06  -0.01   0.03
    19   6     0.06  -0.05   0.05    -0.08   0.00   0.13    -0.07   0.11  -0.02
    20   1    -0.18   0.12   0.05     0.01  -0.04  -0.04     0.12  -0.04  -0.03
    21   1    -0.14  -0.03   0.09    -0.06   0.04   0.16     0.06   0.08  -0.03
    22   1    -0.16  -0.08   0.11     0.09   0.01   0.17     0.11   0.12  -0.04
    23   1    -0.12   0.12   0.03    -0.24  -0.02  -0.02     0.07  -0.04  -0.01
    24   1    -0.05   0.22  -0.03    -0.13  -0.05  -0.20     0.01  -0.13   0.04
    25   1     0.13   0.11   0.02    -0.17  -0.03  -0.03    -0.15  -0.03  -0.01
    26   1     0.21   0.07   0.01     0.06  -0.03  -0.02    -0.29  -0.00  -0.00
    27   1     0.13   0.22   0.01     0.03  -0.02  -0.14    -0.17  -0.22   0.01
    28   1     0.05   0.08   0.03     0.17  -0.04  -0.04    -0.01  -0.03  -0.02
    29   1    -0.05  -0.10   0.06     0.17  -0.02   0.15     0.09   0.21  -0.03
    30   1     0.09  -0.10   0.03     0.10  -0.01   0.13    -0.07   0.21   0.08
    31   1    -0.09  -0.15  -0.02    -0.03   0.02   0.01     0.19   0.02   0.01
    32   1    -0.09  -0.10  -0.07    -0.04  -0.02  -0.29     0.19  -0.22  -0.02
    33   1     0.02  -0.10  -0.05     0.05   0.01  -0.21    -0.15  -0.20   0.02
    34   1     0.00  -0.15  -0.00     0.06   0.04   0.07    -0.12   0.03   0.04
    35   1     0.03  -0.09   0.05    -0.17  -0.01   0.16    -0.05   0.19  -0.01
    36   1     0.14  -0.09   0.06    -0.07   0.02   0.19    -0.14   0.14  -0.07
                      7                      8                      9
                      A                      A                      A
 Frequencies --    238.4857               270.3303               284.0607
 Red. masses --      6.5637                 2.7318                 2.4630
 Frc consts  --      0.2199                 0.1176                 0.1171
 IR Inten    --      0.4468                 0.0721                 1.2922
  Atom  AN      X      Y      Z        X      Y      Z        X      Y      Z
     1   8    -0.03  -0.06  -0.06    -0.01  -0.07   0.10     0.01   0.08  -0.07
     2   6    -0.14   0.00  -0.00     0.02  -0.04   0.03     0.02   0.02  -0.02
     3   6    -0.16   0.04   0.02     0.04  -0.01   0.01     0.03  -0.05  -0.02
     4   6    -0.12   0.00   0.04     0.04   0.02  -0.01     0.05   0.05   0.17
     5   6    -0.20   0.05  -0.02    -0.12   0.01  -0.09    -0.03  -0.08  -0.02
     6   6    -0.11   0.02   0.01    -0.00  -0.01   0.01    -0.01  -0.05   0.05
     7   6    -0.14   0.04   0.03     0.12   0.06  -0.03     0.02   0.02   0.06
     8   6    -0.15   0.03   0.04    -0.01  -0.02   0.00    -0.00   0.03   0.04
     9   6    -0.13  -0.01   0.03    -0.01   0.05  -0.00    -0.03  -0.16  -0.01
    10   6    -0.04  -0.03   0.00     0.01   0.04  -0.01     0.00   0.02   0.00
    11   6     0.06  -0.04  -0.04    -0.00   0.06  -0.08    -0.00   0.04  -0.05
    12   6     0.12  -0.05  -0.03     0.03   0.04  -0.09     0.02   0.02  -0.06
    13   6     0.14  -0.01   0.01     0.04  -0.01   0.00     0.03  -0.00   0.01
    14   6     0.22   0.03   0.03    -0.01  -0.02   0.08    -0.00  -0.01   0.05
    15   6     0.25   0.03   0.01    -0.01  -0.03   0.08    -0.01  -0.02   0.06
    16   7     0.25  -0.04  -0.04    -0.02   0.03  -0.06    -0.01   0.01  -0.04
    17   6     0.18   0.04  -0.01    -0.06  -0.01   0.02    -0.03  -0.01  -0.00
    18   6     0.15  -0.00  -0.05    -0.05   0.04  -0.08    -0.03   0.02  -0.06
    19   6    -0.08  -0.03   0.01    -0.00  -0.09   0.13    -0.00   0.07  -0.06
    20   1    -0.15   0.04   0.03     0.08  -0.03   0.02     0.05  -0.07  -0.07
    21   1    -0.15   0.03   0.06     0.08   0.03  -0.02    -0.06   0.27   0.26
    22   1    -0.15  -0.04   0.09     0.02   0.02  -0.02     0.18  -0.05   0.36
    23   1    -0.32   0.04   0.02    -0.36   0.03  -0.01    -0.09  -0.12  -0.01
    24   1    -0.21   0.11  -0.13    -0.13   0.02  -0.34    -0.03  -0.06  -0.08
    25   1    -0.05   0.03   0.03    -0.02  -0.02   0.01    -0.03  -0.09   0.09
    26   1    -0.15   0.04   0.02     0.33  -0.03  -0.03     0.06   0.02   0.11
    27   1    -0.14   0.04   0.07     0.15   0.27  -0.08     0.02   0.04   0.02
    28   1    -0.13   0.04   0.04    -0.03  -0.03   0.01    -0.01   0.07   0.05
    29   1    -0.19  -0.00  -0.00     0.05   0.08  -0.01    -0.19  -0.34   0.12
    30   1    -0.13  -0.01   0.02    -0.06   0.08   0.02     0.10  -0.30  -0.22
    31   1     0.14  -0.04  -0.05     0.07   0.05  -0.13     0.04   0.02  -0.09
    32   1     0.09   0.02   0.01     0.09  -0.04   0.01     0.06  -0.01   0.03
    33   1     0.16   0.03   0.01    -0.10  -0.03   0.04    -0.06  -0.02  -0.00
    34   1     0.19  -0.04  -0.06    -0.10   0.05  -0.12    -0.06   0.03  -0.07
    35   1    -0.11  -0.05   0.02    -0.11  -0.31   0.12     0.13   0.20  -0.08
    36   1    -0.07  -0.03   0.04     0.09  -0.06   0.36    -0.14   0.09  -0.19
                     10                     11                     12
                      A                      A                      A
 Frequencies --    298.2858               347.4308               375.5088
 Red. masses --      3.9476                 3.7564                 4.8282
 Frc consts  --      0.2069                 0.2672                 0.4011
 IR Inten    --      0.7850                 1.1607                 1.1227
  Atom  AN      X      Y      Z        X      Y      Z        X      Y      Z
     1   8    -0.02  -0.08  -0.02    -0.03   0.02  -0.13     0.16   0.14   0.11
     2   6    -0.10  -0.01   0.00    -0.07  -0.02  -0.03     0.12   0.14   0.13
     3   6    -0.03  -0.01  -0.03    -0.15   0.05   0.04     0.02   0.04   0.12
     4   6    -0.01  -0.02  -0.09    -0.11  -0.01  -0.03     0.01  -0.09  -0.08
     5   6     0.02  -0.01  -0.01     0.05   0.04   0.16    -0.08  -0.03   0.13
     6   6     0.05  -0.01   0.03     0.02  -0.00   0.03    -0.18  -0.04  -0.02
     7   6     0.11   0.07   0.03     0.05  -0.14  -0.02    -0.06   0.03  -0.05
     8   6    -0.09   0.00   0.02     0.09  -0.12  -0.03     0.10   0.08  -0.01
     9   6    -0.08  -0.14  -0.07     0.07  -0.07   0.04     0.06  -0.09  -0.11
    10   6    -0.02   0.01  -0.05    -0.01   0.02   0.06    -0.03  -0.08  -0.09
    11   6     0.00   0.12   0.06    -0.00   0.12  -0.02    -0.01   0.03  -0.02
    12   6     0.06   0.12   0.14     0.05   0.08  -0.09     0.01   0.03   0.00
    13   6     0.06   0.00   0.02     0.07   0.01  -0.04     0.02  -0.01  -0.01
    14   6     0.01  -0.08  -0.14     0.02  -0.00   0.06     0.01  -0.01  -0.01
    15   6     0.02  -0.11  -0.14     0.02  -0.04   0.09     0.02  -0.03  -0.01
    16   7     0.03   0.07   0.09     0.02   0.02  -0.05     0.02   0.01   0.00
    17   6    -0.04   0.01   0.01    -0.06   0.02  -0.02    -0.01   0.01   0.02
    18   6    -0.03   0.13   0.14    -0.05   0.09  -0.09    -0.01   0.03  -0.02
    19   6     0.02  -0.03  -0.01     0.01  -0.01   0.10    -0.18  -0.13  -0.07
    20   1    -0.00  -0.01  -0.00    -0.15   0.05   0.08    -0.03   0.02  -0.01
    21   1    -0.01  -0.08  -0.10    -0.11  -0.17  -0.08     0.17  -0.19  -0.17
    22   1    -0.03   0.01  -0.13    -0.19   0.05  -0.14    -0.19  -0.07  -0.20
    23   1     0.03  -0.04  -0.02     0.30  -0.00   0.07    -0.02   0.11   0.13
    24   1     0.02   0.01   0.01     0.07   0.07   0.43    -0.09  -0.18   0.14
    25   1     0.06  -0.03   0.06    -0.02   0.07  -0.07    -0.10   0.00  -0.03
    26   1     0.31  -0.01   0.04    -0.02  -0.12  -0.04    -0.06   0.08   0.10
    27   1     0.13   0.30   0.01     0.04  -0.21  -0.04    -0.07  -0.04  -0.22
    28   1    -0.12   0.05   0.04     0.14  -0.08  -0.04     0.02  -0.05  -0.01
    29   1    -0.21  -0.29   0.04     0.15  -0.11   0.12    -0.11  -0.21  -0.06
    30   1    -0.02  -0.24  -0.27     0.06  -0.08  -0.01     0.22  -0.20  -0.20
    31   1     0.11   0.17   0.22     0.11   0.10  -0.14     0.04   0.04   0.01
    32   1     0.11  -0.02   0.03     0.12  -0.03  -0.06     0.03  -0.02  -0.03
    33   1    -0.09  -0.02   0.02    -0.12  -0.02  -0.02    -0.04   0.01   0.04
    34   1    -0.06   0.18   0.21    -0.11   0.10  -0.14    -0.02   0.03  -0.04
    35   1     0.07  -0.09  -0.04    -0.04  -0.08   0.10    -0.20  -0.19  -0.07
    36   1     0.02  -0.02   0.02     0.06  -0.01   0.17    -0.16  -0.11   0.00
                     13                     14                     15
                      A                      A                      A
 Frequencies --    387.9292               412.6137               414.6253
 Red. masses --      2.7305                 3.0999                 3.1436
 Frc consts  --      0.2421                 0.3109                 0.3184
 IR Inten    --      0.1195                 0.1236                 0.1999
  Atom  AN      X      Y      Z        X      Y      Z        X      Y      Z
     1   8     0.00  -0.04   0.01    -0.01  -0.04   0.02    -0.00  -0.04   0.04
     2   6    -0.04   0.01   0.01    -0.02  -0.01  -0.00    -0.01  -0.00   0.01
     3   6     0.06  -0.04  -0.05    -0.05   0.01   0.00    -0.06   0.02   0.01
     4   6     0.04  -0.05  -0.08    -0.05   0.09  -0.04    -0.06   0.11  -0.07
     5   6     0.12  -0.04  -0.02    -0.06  -0.05   0.05    -0.06  -0.07   0.08
     6   6    -0.08   0.06  -0.04    -0.02  -0.05   0.07    -0.05  -0.07   0.08
     7   6     0.02   0.13  -0.07     0.10  -0.02   0.03     0.13  -0.02   0.02
     8   6    -0.06   0.04   0.02     0.04  -0.02  -0.02     0.06  -0.02  -0.03
     9   6    -0.05  -0.07   0.10     0.04   0.03  -0.07     0.06   0.04  -0.08
    10   6    -0.02   0.03   0.11    -0.01   0.07  -0.03    -0.02   0.08  -0.04
    11   6    -0.01  -0.00   0.07    -0.00  -0.03   0.03    -0.01  -0.04   0.02
    12   6    -0.02  -0.04  -0.02    -0.01   0.01   0.18    -0.03  -0.10  -0.12
    13   6    -0.02  -0.03  -0.04    -0.03  -0.06  -0.16    -0.02   0.03   0.12
    14   6     0.02   0.02   0.05     0.01   0.01   0.00     0.01   0.01   0.00
    15   6     0.03   0.04   0.08     0.01   0.04   0.00     0.02   0.05  -0.00
    16   7     0.02  -0.02  -0.04     0.01  -0.02  -0.00     0.02  -0.02  -0.00
    17   6     0.01  -0.01  -0.03     0.03   0.05   0.15     0.02  -0.05  -0.13
    18   6     0.01  -0.03  -0.04     0.00  -0.09  -0.15     0.02  -0.00   0.14
    19   6    -0.08   0.10   0.05    -0.01   0.07  -0.03    -0.04   0.09  -0.02
    20   1     0.05  -0.03  -0.04     0.02  -0.03  -0.03     0.02  -0.03  -0.04
    21   1     0.06  -0.28  -0.15    -0.01   0.08  -0.06    -0.02   0.08  -0.09
    22   1     0.05   0.11  -0.28    -0.05   0.11  -0.06    -0.06   0.14  -0.10
    23   1     0.33   0.02  -0.08    -0.08  -0.09   0.05    -0.04  -0.11   0.06
    24   1     0.12  -0.18   0.18    -0.06  -0.01   0.03    -0.06  -0.05   0.11
    25   1    -0.17  -0.00  -0.01    -0.04  -0.05   0.05    -0.09  -0.05   0.05
    26   1     0.23   0.05  -0.05     0.24  -0.06   0.09     0.35  -0.08   0.11
    27   1     0.04   0.33  -0.16     0.11   0.11  -0.06     0.15   0.18  -0.13
    28   1     0.02   0.00  -0.01    -0.00   0.03   0.01     0.01   0.02  -0.00
    29   1    -0.10  -0.19   0.20     0.08   0.02  -0.04     0.11   0.03  -0.05
    30   1     0.01  -0.16  -0.04     0.01   0.03  -0.08     0.00   0.05  -0.11
    31   1    -0.02  -0.06  -0.06    -0.02   0.06   0.34    -0.06  -0.16  -0.26
    32   1    -0.04  -0.04  -0.11    -0.06  -0.11  -0.36    -0.05   0.09   0.24
    33   1     0.01  -0.03  -0.07     0.05   0.11   0.32     0.03  -0.09  -0.29
    34   1     0.03  -0.06  -0.09     0.01  -0.17  -0.34     0.05   0.02   0.27
    35   1    -0.14   0.17   0.09     0.13   0.16  -0.07     0.12   0.18  -0.07
    36   1    -0.06   0.07   0.00    -0.17   0.12  -0.12    -0.20   0.13  -0.13
                     16                     17                     18
                      A                      A                      A
 Frequencies --    441.1192               444.3264               477.1880
 Red. masses --      1.9465                 2.1612                 3.8227
 Frc consts  --      0.2232                 0.2514                 0.5129
 IR Inten    --      0.6618                 3.7119                 6.4566
  Atom  AN      X      Y      Z        X      Y      Z        X      Y      Z
     1   8     0.00   0.03  -0.03    -0.01  -0.05   0.04    -0.01  -0.16   0.19
     2   6    -0.00  -0.00   0.01    -0.00   0.05  -0.07     0.01   0.10  -0.10
     3   6    -0.02  -0.05   0.03     0.04   0.09  -0.07    -0.06   0.07  -0.13
     4   6    -0.01  -0.01   0.12     0.02   0.12   0.03    -0.09  -0.10   0.07
     5   6     0.08  -0.05   0.06     0.05  -0.00   0.04     0.02  -0.04  -0.02
     6   6    -0.03  -0.03  -0.05    -0.02   0.00   0.01     0.03  -0.05   0.02
     7   6     0.06   0.05  -0.08    -0.05  -0.03  -0.01    -0.01   0.04   0.04
     8   6    -0.03  -0.00  -0.04    -0.02   0.04  -0.10     0.04   0.14  -0.11
     9   6    -0.04   0.09  -0.01    -0.01  -0.05  -0.08     0.07   0.02   0.04
    10   6    -0.05  -0.03  -0.02     0.00   0.06  -0.03    -0.01  -0.11   0.05
    11   6    -0.04  -0.01  -0.05     0.00  -0.04  -0.00    -0.01   0.06   0.05
    12   6    -0.01  -0.00   0.01    -0.01  -0.04   0.02     0.01   0.05  -0.01
    13   6    -0.00  -0.01   0.02    -0.02  -0.01   0.01     0.02   0.00  -0.05
    14   6     0.02  -0.01  -0.02     0.00   0.00  -0.00     0.01   0.00   0.01
    15   6     0.04  -0.02  -0.04     0.00   0.03  -0.02     0.02  -0.03   0.10
    16   7     0.04   0.01   0.01     0.00  -0.01   0.01     0.01   0.01  -0.04
    17   6    -0.01   0.02   0.03     0.02  -0.01   0.01    -0.03   0.01  -0.05
    18   6    -0.02   0.02  -0.01     0.01  -0.04   0.01    -0.02   0.06  -0.00
    19   6    -0.04  -0.05  -0.01    -0.01  -0.05   0.13     0.01  -0.04  -0.07
    20   1    -0.03  -0.05   0.01     0.06   0.06  -0.11    -0.21   0.09  -0.30
    21   1    -0.07   0.23   0.21    -0.04   0.25   0.08    -0.25  -0.04   0.14
    22   1     0.08  -0.13   0.32     0.09   0.05   0.14    -0.07  -0.17   0.17
    23   1     0.35   0.00  -0.01     0.21  -0.05  -0.03     0.10  -0.15  -0.08
    24   1     0.09  -0.12   0.33     0.06  -0.06   0.19     0.03  -0.01   0.08
    25   1    -0.04  -0.03  -0.06    -0.04   0.02  -0.02     0.07  -0.07   0.05
    26   1     0.30  -0.04  -0.04    -0.16   0.03   0.02    -0.07   0.11   0.15
    27   1     0.09   0.28  -0.16    -0.06  -0.14   0.04    -0.01  -0.03   0.06
    28   1    -0.05  -0.06  -0.04    -0.02   0.10  -0.09     0.15   0.28  -0.13
    29   1     0.07   0.25  -0.14    -0.10  -0.22   0.07     0.08   0.09  -0.04
    30   1    -0.11   0.21   0.19     0.07  -0.17  -0.27     0.17   0.04   0.20
    31   1     0.01   0.02   0.04    -0.04  -0.05   0.04     0.05   0.06  -0.04
    32   1    -0.02   0.01   0.05    -0.04   0.00   0.02     0.03  -0.02  -0.09
    33   1    -0.03   0.02   0.07     0.04   0.00   0.02    -0.06  -0.02  -0.10
    34   1    -0.00   0.02   0.01     0.03  -0.05   0.02    -0.05   0.07  -0.02
    35   1    -0.08  -0.09  -0.00    -0.18  -0.38   0.13     0.11   0.16  -0.07
    36   1    -0.00  -0.05   0.04     0.13  -0.01   0.46    -0.06  -0.08  -0.29
                     19                     20                     21
                      A                      A                      A
 Frequencies --    503.6012               519.4031               561.9952
 Red. masses --      5.0575                 6.5010                 7.2087
 Frc consts  --      0.7557                 1.0333                 1.3414
 IR Inten    --      0.5003                 1.0825                 0.0890
  Atom  AN      X      Y      Z        X      Y      Z        X      Y      Z
     1   8    -0.00   0.05  -0.06     0.03   0.06   0.03    -0.00  -0.01   0.01
     2   6    -0.01  -0.03   0.04     0.12  -0.03  -0.00     0.00   0.01  -0.01
     3   6     0.01  -0.03   0.05     0.06  -0.04  -0.01    -0.01   0.01  -0.00
     4   6     0.03   0.03   0.02    -0.01  -0.02  -0.02    -0.00  -0.04   0.01
     5   6     0.01   0.02   0.02     0.05   0.03  -0.08    -0.00   0.01   0.00
     6   6     0.04  -0.01  -0.03     0.10   0.04   0.04     0.01  -0.00   0.00
     7   6    -0.00  -0.00   0.00     0.03  -0.07   0.04     0.00  -0.00   0.00
     8   6    -0.06  -0.02   0.02     0.04  -0.03  -0.01     0.01   0.00  -0.01
     9   6    -0.04   0.04  -0.13    -0.02  -0.01  -0.05     0.00  -0.01   0.02
    10   6     0.00  -0.00  -0.09    -0.15   0.02   0.00    -0.00  -0.02   0.01
    11   6     0.02   0.07   0.22    -0.26   0.01   0.02    -0.00   0.13  -0.04
    12   6     0.01   0.03   0.11    -0.19  -0.08   0.05     0.01   0.10  -0.03
    13   6    -0.01  -0.06  -0.17    -0.16  -0.10   0.03    -0.02  -0.23   0.08
    14   6    -0.01  -0.01  -0.01     0.10  -0.00  -0.01    -0.00  -0.17   0.06
    15   6     0.00   0.12   0.33     0.27   0.00   0.01     0.00   0.56  -0.19
    16   7    -0.02  -0.04  -0.12     0.30  -0.01  -0.02     0.00  -0.15   0.05
    17   6     0.00  -0.07  -0.19    -0.15   0.10  -0.04     0.01  -0.22   0.07
    18   6     0.02   0.03   0.13    -0.19   0.08  -0.01    -0.01   0.10  -0.03
    19   6     0.00  -0.10  -0.06     0.04   0.05   0.04    -0.00  -0.02  -0.01
    20   1     0.06  -0.03   0.11    -0.01   0.01   0.01    -0.04   0.02  -0.02
    21   1     0.05   0.22   0.06     0.06  -0.04  -0.05    -0.03  -0.05   0.02
    22   1     0.05  -0.07   0.16     0.03   0.04  -0.08    -0.02  -0.05   0.01
    23   1    -0.01   0.06   0.03    -0.16  -0.01  -0.02    -0.01  -0.00   0.00
    24   1     0.01   0.04  -0.00     0.04   0.10  -0.28     0.00   0.02  -0.00
    25   1     0.11   0.01  -0.02     0.02   0.03   0.02     0.02   0.00  -0.00
    26   1     0.02  -0.02  -0.03    -0.17  -0.02  -0.04    -0.00   0.00   0.01
    27   1     0.00   0.04   0.04     0.02  -0.25   0.14     0.00  -0.01   0.01
    28   1    -0.17  -0.07   0.05    -0.05  -0.03   0.03     0.03   0.02  -0.01
    29   1    -0.05   0.10  -0.20     0.01  -0.07   0.03     0.02   0.02   0.00
    30   1    -0.11   0.09  -0.08     0.03  -0.05  -0.07     0.01   0.01   0.06
    31   1    -0.00   0.00   0.04    -0.10  -0.03   0.02     0.19   0.19  -0.08
    32   1    -0.01  -0.12  -0.35    -0.32  -0.01  -0.01     0.15  -0.32   0.10
    33   1     0.00  -0.13  -0.37    -0.32   0.01  -0.01    -0.16  -0.31   0.11
    34   1     0.02   0.01   0.07    -0.09   0.03   0.00    -0.18   0.19  -0.06
    35   1    -0.03  -0.26  -0.08     0.10  -0.01   0.01     0.02   0.02  -0.01
    36   1     0.08  -0.09   0.09     0.11   0.01   0.02    -0.00  -0.03  -0.06
                     22                     23                     24
                      A                      A                      A
 Frequencies --    585.3369               617.0908               636.2689
 Red. masses --      2.9252                 5.3652                 3.6496
 Frc consts  --      0.5905                 1.2038                 0.8705
 IR Inten    --     17.5539                 0.4663                 1.6715
  Atom  AN      X      Y      Z        X      Y      Z        X      Y      Z
[...]
 .00000590,-0.00001469,0.00001801,0.00001149,-0.00000177,-0.00001077,0.
 00000946,0.00000030,0.00002288,-0.00001468,-0.00003087,0.00000922,-0.0
 0000955,-0.00004583,0.00000070,0.00004565,-0.00004754,0.00001884,0.000
 05006,0.00071534,-0.00047690,0.00022647,-0.00567442,-0.15873716,0.1935
 4470,-0.00005810,-0.00002329,-0.00001134,0.00007216,0.00005087,0.00001
 246,-0.00008017,0.00006763,-0.00004848,-0.00016482,-0.00020423,0.00024
 007,-0.00000168,-0.00000809,-0.00002817,0.00002587,-0.00001778,0.00001
 551,-0.00000699,0.00001936,-0.00000971,-0.00002155,-0.00002597,-0.0000
 3129,-0.00002832,0.00001837,0.00009910,-0.00021236,0.00084046,-0.00037
 114,0.00265637,0.00150677,0.00557927,-0.00779490,0.01489724,0.00031772
 ,-0.16048284,0.14682021,0.02547870,0.00312281,-0.00133985,0.00100258,-
 0.00145416,-0.00178298,-0.00139001,0.00029822,0.00017506,-0.00002762,0
 .00339154,0.00131971,0.00175074,0.00000255,-0.00061718,0.00025072,-0.0
 0006299,0.00003781,-0.00018214,-0.00003037,-0.00000216,0.00004276,0.00
 002402,-0.00001206,-0.00000309,-0.00001725,0.00002234,-0.00001327,0.00
 000376,-0.00000201,-0.00000156,-0.00000031,-0.00000129,0.00000969,-0.0
 0000422,-0.00000229,0.00001905,0.00000900,-0.00000711,0.00000147,-0.00
 000393,-0.00000371,0.00000543,-0.00002172,-0.00000594,0.00002192,-0.00
 002602,0.00000244,-0.00000755,-0.00001982,0.00000169,0.00002189,-0.001
 56962,-0.00191787,-0.00177394,0.16252648,0.00002232,0.00000144,-0.0000
 0050,-0.00003161,-0.00000437,-0.00000218,-0.00001523,-0.00002330,0.000
 01397,-0.00004399,0.00000680,-0.00007480,0.00000863,0.00000979,-0.0000
 1002,-0.00003036,-0.00001889,0.00000438,0.00000105,-0.00000394,0.00000
 409,0.00000269,0.00001470,-0.00000087,-0.00004250,-0.00006828,0.000016
 60,-0.00006276,0.00003089,0.00018725,0.00201486,0.00306769,0.00188277,
 -0.00068630,0.00309816,0.00102207,0.14595634,-0.22415916,-0.01484608,0
 .01429347,-0.01320115,-0.00378060,-0.00068931,-0.00064751,-0.00213854,
 -0.00026957,0.00029021,0.00048946,0.00066351,-0.00036767,0.00506845,-0
 .00053558,0.00028021,0.00020157,0.00005304,0.00003348,-0.00011225,0.00
 000420,0.00000069,-0.00000882,0.00001537,-0.00001493,0.00000618,-0.000
 01695,0.00001061,0.00000017,-0.00000194,-0.00000204,0.00000222,0.00000
 215,-0.00000173,-0.00000636,0.00000541,0.00000002,-0.00001798,-0.00000
 050,0.00000113,0.00000259,0.00000229,-0.00000079,-0.00000505,0.0000043
 0,0.00000176,-0.00000688,-0.00000695,-0.00000280,0.00000021,-0.0000252
 6,0.00000734,0.00001287,-0.00171960,-0.00037672,-0.00146390,-0.1595162
 3,0.23288012,0.00002902,0.00002352,0.00000269,-0.00005327,-0.00006050,
 0.00000377,0.00005643,-0.00013338,0.00005085,0.00011147,0.00012774,-0.
 00040980,0.00001093,0.00001149,0.00001187,-0.00004344,-0.00000930,0.00
 000064,0.00001360,-0.00002322,0.00001073,-0.00000389,0.00004013,-0.000
 00067,-0.00010366,-0.00014871,0.00007408,0.00052273,-0.00107228,0.0004
 9013,0.00507036,0.00260404,-0.00195211,0.01596824,-0.02069317,0.001692
 13,0.02636722,-0.01609264,-0.05700714,-0.01473379,0.01806284,0.0052652
 4,-0.00248398,-0.00061655,0.00035059,0.00041818,-0.00012932,-0.0000497
 2,0.00242413,0.00414675,-0.00195769,0.00016026,0.00031654,-0.00080040,
 0.00006471,0.00000662,-0.00000239,0.00003482,0.00000304,-0.00005485,-0
 .00000232,-0.00002914,-0.00000194,-0.00000302,0.00002033,0.00001657,-0
 .00000467,-0.00000032,0.00000047,-0.00000195,0.00000058,-0.00001078,0.
 00000581,0.00000036,-0.00002823,-0.00000670,0.00001195,-0.00000088,0.0
 0000005,0.00000329,-0.00000589,0.00001131,0.00000541,-0.00001279,-0.00
 000616,0.00001635,-0.00000336,-0.00001330,0.00005970,0.00000741,-0.001
 97346,-0.00119725,-0.00026458,-0.03080002,0.01402769,0.05435895,-0.000
 04346,0.00001199,-0.00000849,0.00006771,-0.00002699,-0.00000744,-0.000
 00061,0.00003574,-0.00000426,0.00002383,-0.00010801,-0.00003755,-0.000
 00070,-0.00000962,0.00000503,0.00005405,0.00001760,0.00002610,0.000003
 12,0.00001533,-0.00000738,-0.00002883,-0.00006937,-0.00002577,0.000023
 18,0.00011032,0.00018381,0.00021045,-0.00079767,0.00015642,0.00126723,
 0.00320519,0.00530081,-0.00069458,0.00018778,0.00021697,0.00020981,0.0
 0465477,0.00316138,0.00266132,0.01508078,-0.01459220,-0.00109264,-0.00
 134190,-0.00264909,0.00011957,-0.00000984,0.00046483,-0.04876874,0.013
 30118,0.00384662,0.00426906,-0.01496294,0.01352154,-0.00014321,0.00003
 426,0.00013830,-0.00001390,0.00000509,0.00001422,0.00004190,0.00003401
 ,-0.00000410,-0.00002816,0.00001396,0.00002223,0.00000142,0.00000057,-
 0.00000066,-0.00000507,0.00000471,0.00000322,-0.00001155,0.00000253,0.
 00002684,0.00000148,-0.00000135,-0.00000164,-0.00000243,-0.00000197,0.
 00000469,-0.00001865,0.00000133,0.00002744,-0.00001510,-0.00000901,-0.
 00001137,-0.00000961,-0.00001895,-0.00000260,-0.00049085,-0.00047151,-
 0.00044665,0.00045714,0.00097661,-0.00060010,0.04341499,-0.00003256,-0
 .00000416,-0.00000414,0.00004354,0.00000957,0.00000306,0.00001355,0.00
 000026,-0.00000185,-0.00004547,-0.00002912,0.00000881,-0.00000903,-0.0
 0000346,0.00000883,0.00000332,0.00001341,-0.00000834,0.00000115,0.0000
 0241,0.00000132,0.00000771,-0.00002051,-0.00001416,0.00006025,0.000030
 62,0.00003984,-0.00003060,0.00005177,-0.00025935,0.00279370,0.00278996
 ,0.00073090,0.00009078,0.00011537,-0.00064960,0.00532487,-0.00092576,-
 0.00062259,-0.00061339,-0.01333779,0.01736887,-0.00242486,-0.00060714,
 0.00000442,0.00042707,0.00025718,-0.00040338,0.01421689,-0.20269741,0.
 14748923,0.00057557,0.00543159,-0.00307259,0.00000011,0.00001613,0.000
 03676,-0.00000356,0.00000175,0.00000404,0.00001792,-0.00000187,-0.0000
 1990,0.00001129,0.00001327,0.00002992,-0.00000012,-0.00000131,-0.00000
 244,-0.00000190,0.00000195,0.00000585,0.,-0.00000024,0.00000539,0.0000
 0022,0.00000071,-0.00000215,-0.00000263,0.00000027,0.00000371,-0.00000
 294,0.00000035,0.00000792,-0.00000556,0.00000184,-0.00000199,-0.000010
 44,-0.00000460,-0.00000853,-0.00046133,-0.00028572,-0.00022846,0.00010
 942,-0.00050543,0.00109191,-0.01816575,0.21003746,0.00006611,-0.000020
 96,0.00001189,-0.00008330,0.00004680,-0.00001294,0.00002690,-0.0000276
 2,0.00002801,-0.00010186,0.00010808,-0.00003712,-0.00000169,0.00002850
 ,0.00001294,-0.00011902,0.00000771,-0.00004048,0.00000012,-0.00002032,
 0.00001637,0.00006559,0.00005040,0.00003304,0.00008775,-0.00011066,-0.
 00022108,-0.00060118,0.00080627,-0.00022123,0.00570974,0.00014724,-0.0
 0072634,0.00032656,-0.00078414,-0.00006935,0.00248045,0.00030046,0.002
 06721,0.00119586,-0.00452537,0.00595685,-0.00156171,-0.00150084,-0.000
 26999,0.00002704,0.00020417,0.00020118,0.00293078,0.14879935,-0.190238
 91,-0.00211939,0.01860224,-0.01259562,0.00029652,0.00006212,-0.0000638
 1,0.00002367,-0.00000731,-0.00002220,0.00001555,-0.00002194,-0.0000139
 2,0.00001773,0.00000129,0.00004318,-0.00000812,-0.00000862,0.00000030,
 0.00000761,-0.00000495,-0.00000564,0.00002621,-0.00000059,-0.00004585,
 -0.00000446,-0.00000022,0.00000298,0.00000575,0.00000321,-0.00000953,0
 .00002957,0.00000213,-0.00003549,0.00000695,0.00000291,0.00001576,-0.0
 0001630,0.00000147,-0.00000511,-0.00045890,-0.00021453,-0.00029582,0.0
 0027231,-0.00011867,0.00046937,-0.00679068,-0.16041178,0.19635483,-0.0
 0003254,-0.00000608,-0.00003352,-0.00001341,0.00003029,0.00012146,-0.0
 0022423,-0.00052756,0.00007914,-0.00049919,-0.00011674,0.00251212,0.00
 008297,0.00004904,-0.00001948,-0.00018967,-0.00002274,-0.00010283,-0.0
 0001294,-0.00000385,0.00000026,-0.00003364,-0.00014370,-0.00007076,-0.
 00021100,-0.00002019,0.00043152,-0.00239493,-0.00100313,-0.00103558,0.
 00355550,0.00025515,-0.00069543,0.00360960,0.00152382,0.00205076,0.000
 01092,-0.00062460,0.00008034,0.00246004,0.00145798,0.00527866,-0.00016
 420,0.00095823,0.00014797,-0.00014941,-0.00018496,0.00010737,-0.009200
 84,0.01557652,0.00070648,-0.15669861,0.14633796,0.02097442,0.00050754,
 0.00029185,-0.00039324,0.00003711,0.00001499,-0.00003523,-0.00035521,-
 0.00038804,0.00017859,-0.00121547,-0.00018825,0.00135710,-0.00000739,-
 0.00001981,-0.00001147,-0.00001130,-0.00000267,-0.00002361,0.00003900,
 0.00000574,-0.00006217,-0.00000127,-0.00000048,0.00000214,0.00000378,0
 .00000142,-0.00000496,-0.00001325,0.00001064,0.00003049,-0.00000995,-0
 .00002273,0.00000262,0.00000032,0.00000890,-0.00001708,0.00025297,-0.0
 0002273,0.00018351,-0.00058036,-0.00036317,-0.00042051,-0.00145999,-0.
 00187556,-0.00171645,0.16297534,0.00007366,0.00014875,0.00001270,-0.00
 004477,-0.00040922,-0.00009542,-0.00040129,0.00054329,-0.00033646,0.00
 108208,0.00028857,-0.00048635,0.00019567,0.00002560,-0.00008160,-0.000
 03797,-0.00003322,-0.00006473,0.00001336,-0.00001582,0.00002323,-0.000
 12938,-0.00006896,-0.00000932,-0.00012752,0.00006722,0.00054109,-0.000
 22493,-0.00123896,-0.00237528,0.01412151,-0.01378195,-0.00252492,0.001
 12378,-0.00043870,0.00511177,-0.00064106,0.00005291,0.00045131,0.00173
 668,0.00328121,0.00164741,0.00013949,0.00023581,0.00019702,-0.00004204
 ,-0.00009931,-0.00004633,-0.00028272,0.00214730,0.00083560,0.14600415,
 -0.22799511,-0.01049036,0.00014813,0.00008911,-0.00013906,-0.00000619,
 -0.00000799,0.00002698,0.00053102,0.00042238,-0.00052538,-0.00093358,0
 .00005190,-0.00031912,-0.00001496,-0.00000010,0.00000932,-0.00006256,0
 .00001653,-0.00009032,-0.00000561,0.00001890,-0.00002253,-0.00000986,0
 .00002416,-0.00000933,-0.00000142,-0.00000595,0.00000226,-0.00003155,0
 .00002155,0.00004638,-0.00004713,-0.00004982,-0.00002252,0.00000220,0.
 00011408,-0.00005503,0.00089679,-0.00070038,-0.00018456,-0.00034992,-0
 .00029762,-0.00036880,-0.00168657,-0.00035018,-0.00138001,-0.16094054,
 0.23786716,-0.00023618,-0.00017772,-0.00006395,0.00021167,0.00046041,0
 .00016311,-0.00002926,-0.00039139,-0.00017816,0.00129242,0.00103617,-0
 .00178176,-0.00009537,0.00005524,-0.00002899,-0.00010520,0.00002032,-0
 .00007771,-0.00000562,0.00000823,-0.00003782,-0.00003957,-0.00013820,-
 0.00008034,0.00002901,-0.00003340,0.00045084,-0.00189514,-0.00124282,0
 .00000196,-0.01451528,0.01676805,0.00658806,0.00244024,0.00456120,-0.0
 0178088,0.00009175,0.00044449,-0.00096665,0.00503682,0.00200299,-0.001
 71721,0.00096933,-0.00094764,0.00022439,-0.00003398,0.00015352,-0.0003
 0938,0.01668956,-0.02131723,0.00076340,0.02120646,-0.01086325,-0.05478
 845,0.00028309,-0.00001530,-0.00029949,-0.00002753,0.00001450,0.000041
 53,0.00059557,-0.00057233,-0.00168806,0.00074880,0.00003057,-0.0004493
 2,0.00001203,-0.00002037,-0.00002633,0.00003016,-0.00001700,0.00006709
 ,0.00004194,-0.00001784,-0.00001135,0.00001421,-0.00002459,0.00000664,
 -0.00000135,0.00000326,0.00000376,-0.00002167,-0.00002749,0.00003389,-
 0.00001831,0.00002754,0.00001100,-0.00004178,-0.00016757,0.00002616,-0
 .00074669,0.00109594,0.00029882,-0.00043735,-0.00034686,-0.00019060,-0
 .00191676,-0.00111070,-0.00026992,-0.02954310,0.01082958,0.05598464,-0
 .00000441,0.00037070,-0.00000304,0.00019982,-0.00095632,0.00000527,-0.
 00011508,0.00050103,-0.00000469,0.00027662,-0.00148260,0.00069731,0.00
 032991,-0.00142578,-0.00076575,-0.01187773,-0.01552263,0.00005570,-0.0
 0116508,0.00158254,0.00386771,0.00048510,0.00045352,0.00000084,-0.0011
 4355,0.00128268,-0.00356039,-0.01129874,-0.01456781,-0.00133707,-0.000
 03608,0.00041307,0.00099916,0.00032372,0.00015013,-0.00026210,-0.00017
 215,-0.00020991,0.00015778,-0.00002207,0.00011007,-0.00007992,-0.00000
 452,0.00001786,0.00004338,0.00000728,-0.00000027,-0.00001249,0.0000018
 1,-0.00001095,-0.00011856,0.00023087,0.00005471,-0.00009917,-0.1356765
 2,-0.11880988,-0.00000061,-0.00005673,0.00003699,-0.00000194,-0.000125
 87,0.00092334,-0.00026607,0.00038292,0.00023377,0.00002259,-0.00007541
 ,0.00094841,0.00021484,0.00041410,0.00020003,0.00001354,0.00082476,0.0
 0033455,-0.00002626,0.00012183,-0.00023910,-0.00003084,-0.00057830,-0.
 00108415,-0.00007278,0.00001299,0.00001438,-0.00000544,-0.00054332,-0.
 00100947,0.00001323,0.00005672,-0.00021040,0.00003278,0.00008370,-0.00
 001842,-0.00000390,0.00000602,0.00000197,-0.00000944,0.00001021,-0.000
 00315,-0.00001873,-0.00001789,0.00002841,-0.00004630,0.14667987,-0.000
 17850,0.00015146,0.00000326,0.00026412,-0.00038014,-0.00000736,-0.0001
 3859,0.00003611,0.00001719,0.00071920,0.00056222,0.00027974,0.00064298
 ,0.00061875,-0.00031438,0.00100732,-0.00028492,0.00033044,0.00041825,0
 .00103658,0.00062758,0.00011996,0.00010440,-0.00001035,0.00026200,0.00
 101821,-0.00052664,0.00039719,-0.00087411,-0.00041684,-0.00027294,0.00
 048939,0.00038418,0.00039915,-0.00049082,0.00007856,-0.00000069,0.0001
 2483,-0.00009046,0.00005971,-0.00002951,-0.00007854,-0.00001121,0.0000
 1414,0.00000020,0.00002126,0.00000449,-0.00000585,-0.00003854,0.000062
 96,-0.00002079,0.00019589,0.00012661,-0.00030637,-0.11947828,-0.219961
 83,-0.00038946,-0.00000268,0.00001817,-0.00000222,-0.00012866,0.000513
 11,0.00008315,0.00002821,0.00018306,-0.00010229,-0.00019461,0.00053847
 ,-0.00006665,0.00003756,0.00020113,0.00010213,-0.00004173,0.00010020,0
 .00053813,0.00012345,0.00042625,-0.00012543,-0.00033613,0.00012782,-0.
 00010835,-0.00003733,-0.00003811,0.00000234,-0.00030026,0.00013007,0.0
 0004420,0.00013750,0.00034297,0.00013652,-0.00014900,0.00015294,-0.000
 01067,-0.00001138,-0.00002301,-0.00001235,0.00000498,0.00000019,-0.000
 02005,-0.00003224,0.00000544,0.00000284,0.13189518,0.23644362,-0.00001
 301,-0.00002210,-0.00002365,0.00001458,0.00006234,-0.00005052,-0.00002
 451,-0.00000445,-0.00026791,0.00075303,-0.00112354,0.00102630,-0.00066
 959,0.00103261,0.00105181,0.01660073,0.02336735,0.00027201,0.00324595,
 -0.00138019,-0.00502623,0.00008419,0.00005327,-0.00043104,-0.00312328,
 0.00107250,-0.00535333,-0.01628169,-0.02309278,-0.00186061,-0.00107621
 ,-0.00087533,0.00161181,0.00031332,-0.00007184,0.00003817,0.00003777,-
 0.00004952,0.00002211,-0.00005801,0.00004399,0.00000108,0.00002975,0.0
 0000786,-0.00004126,-0.00001839,0.00000280,0.00002852,0.00005127,0.000
 01899,-0.00012523,0.00011139,0.00029130,0.00006531,0.00021764,0.000223
 93,-0.04788307,-0.00000580,-0.00000350,0.00010155,0.00005384,0.0006777
 7,0.00008782,0.00035967,0.00000797,-0.00003426,-0.00005795,-0.00071689
 ,0.00006231,-0.00040449,0.00001798,-0.00007552,-0.00081188,0.00018648,
 0.00090102,-0.00025032,-0.00031261,-0.00001067,0.00140185,0.00144049,0
 .00011435,0.00002190,-0.00000040,0.00029265,-0.00143329,-0.00149719,0.
 00022435,0.00022561,0.00020138,0.00000625,-0.00009371,0.00005736,0.000
 01944,-0.00000066,-0.00000406,-0.00001585,-0.00000222,-0.00000636,-0.0
 0000697,-0.00003250,0.00000286,-0.00003318,0.00035530,-0.00002002,0.05
 548309,-0.00002700,-0.00036590,-0.00000676,0.00022092,0.00094177,0.000
 01935,0.00044350,-0.00039200,-0.00003925,-0.00107896,-0.00158332,-0.00
 357717,-0.00115096,-0.00164058,0.00384709,-0.01243316,0.01551908,0.000
 09531,0.00027286,0.00141896,-0.00077386,-0.00010887,-0.00047535,-0.000
 00833,0.00047127,0.00136811,0.00065832,-0.01181421,0.01476039,-0.00108
 405,-0.00023811,-0.00064251,0.00101581,0.00001185,0.00083495,0.0006017
 6,0.00028444,-0.00020728,-0.00001452,0.00001899,-0.00021634,0.00008255
 ,-0.00000142,-0.00006015,0.00000091,-0.00000796,0.00001027,0.00001222,
 -0.00016350,0.00006203,0.00021143,0.00021017,0.00027116,-0.00028920,-0
 .14060195,0.12125945,-0.00349286,-0.00000156,-0.00002279,0.00001976,0.
 00010291,0.00027673,0.00003032,-0.00056870,0.00109024,0.00000811,0.000
 11880,0.00022959,-0.00002790,-0.00058716,0.00106985,-0.00006476,0.0008
 9308,-0.00034234,-0.00004268,-0.00008427,-0.00097838,0.00017400,0.0004
 2939,-0.00020097,0.00002134,-0.00005530,-0.00003747,0.00000281,0.00032
 426,-0.00019043,0.00000281,-0.00006867,-0.00081553,-0.00018722,0.00033
 219,-0.00040357,0.00042348,0.00004658,0.00002958,-0.00000561,-0.000008
 39,-0.00000849,-0.00001699,-0.00003839,-0.00007535,0.00006339,0.012465
 19,-0.01538112,0.00047974,0.15239215,0.00018812,0.00015900,-0.00000082
 ,-0.00025973,-0.00040109,0.00000741,-0.00011203,0.00008179,0.00002925,
 -0.00021752,0.00104557,0.00052982,-0.00039101,0.00104552,-0.00070670,-
 0.00084295,-0.00057555,-0.00028915,-0.00067268,0.00061502,0.00032665,0
 .00008098,0.00000542,-0.00002143,-0.00051505,0.00060373,0.00001210,-0.
 00096483,-0.00060373,0.00046001,0.00087180,0.00001537,-0.00050910,-0.0
 0023822,-0.00067437,-0.00083376,-0.00036853,0.00008058,0.00005765,-0.0
 0002436,0.00023295,0.00002108,0.00000618,0.00006105,0.00000157,-0.0000
 0037,-0.00000910,-0.00001789,0.00015521,-0.00003911,-0.00022896,-0.000
 11321,-0.00011968,0.00038348,0.12157890,-0.21574674,0.00412889,0.00004
 361,-0.00003205,-0.00001013,-0.00014108,0.00041462,-0.00014255,0.00035
 951,0.00015584,-0.00006390,-0.00013009,0.00043883,0.00012996,0.0003730
 6,0.00010660,0.00010422,0.00001241,0.00012247,-0.00052817,0.00018032,0
 .00054773,0.00004747,-0.00002861,0.00020761,-0.00010198,-0.00000261,0.
 00001941,0.00001465,0.00003748,0.00014960,0.00007514,0.00012875,0.0004
 2689,-0.00006680,0.00017942,0.00050399,-0.00101872,-0.00003803,-0.0000
 1569,0.00000665,-0.00001725,-0.00000136,0.00000423,-0.00001277,0.00007
 143,-0.00008314,0.01599749,-0.02145114,0.00041154,-0.13510230,0.232558
 59,-0.00003962,0.00003032,-0.00002126,0.00004987,-0.00009486,-0.000053
 83,0.00007705,-0.00004282,-0.00046388,-0.00296183,-0.00110751,-0.00537
 703,0.00327652,0.00139125,-0.00493850,0.01742972,-0.02308335,0.0000767
 0,-0.00062251,-0.00099870,0.00096784,-0.00008591,0.00000215,-0.0002740
 5,0.00097698,0.00089153,0.00122211,-0.01638267,0.02273885,-0.00157717,
 -0.00068244,0.00054921,0.00162316,-0.00006446,0.00045033,-0.00095153,0
 .00042935,-0.00010351,-0.00024150,0.00010641,-0.00030742,0.00019859,0.
 00003520,-0.00007705,-0.00004030,-0.00003157,0.00001627,0.00004511,-0.
 00030162,0.00006508,0.00024928,0.00026667,0.00027207,-0.00030751,-0.00
 264046,0.00285230,-0.04702221,0.00001704,0.00000416,0.00028455,0.00021
 453,-0.00021283,0.00001694,-0.00146298,0.00147631,0.00009818,-0.000247
 17,0.00030998,-0.00001524,0.00139825,-0.00140678,0.00010114,-0.0007598
 1,-0.00022261,0.00093216,-0.00008165,0.00067880,0.00010298,-0.00040994
 ,-0.00003131,-0.00006917,-0.00001725,0.00000330,0.00010122,0.00033506,
 -0.00001836,-0.00007486,-0.00000141,-0.00061967,0.00013865,0.00011655,
 -0.00116050,-0.00144192,-0.00000406,0.00000190,-0.00003583,-0.00001151
 ,-0.00001249,-0.00000659,-0.00002705,-0.00011008,0.00011426,0.00024604
 ,0.00000460,-0.00017068,0.00186064,-0.00212856,0.05681016\\0.00003557,
 0.00000837,0.00005632,-0.00006048,-0.00003046,-0.00000965,-0.00001766,
 0.00005533,-0.00005300,0.00000180,-0.00004528,0.00003953,0.00001479,-0
 .00000652,0.00000750,0.00002790,0.00007006,-0.00004630,0.00004185,-0.0
 0001836,0.00000214,0.00001311,0.00000484,-0.00006696,-0.00003061,-0.00
 007456,0.00005186,0.00003928,-0.00001272,0.00000825,0.00003834,0.00006
 150,0.00003797,0.00001449,-0.00003546,-0.00003469,0.00001064,-0.000042
 60,0.00001242,-0.00000791,-0.00000070,-0.00000621,-0.00000450,0.000008
 10,0.00000793,0.00003098,-0.00000565,-0.00003103,-0.00000798,0.0000349
 1,-0.00000542,-0.00001206,-0.00000360,-0.00001968,-0.00001693,0.000027
 30,0.00004611,-0.00003082,0.00002196,-0.00000113,0.00001143,0.00000949
 ,-0.00001518,-0.00001438,-0.00000213,-0.00000022,0.00000484,0.00000827
 ,0.00000409,-0.00000661,0.00001095,-0.00000099,0.00000472,-0.00000162,
 -0.00000339,-0.00000536,-0.00001450,-0.00000185,-0.00001687,-0.0000134
 4,0.00001853,-0.00002686,-0.00001888,0.00000066,-0.00001444,-0.0000241
 6,-0.00001583,0.00000034,-0.00002954,-0.00000473,-0.00001325,0.0000125
 5,-0.00002301,0.00000707,-0.00000037,-0.00000499,0.00000498,0.00000637
 ,-0.00000465,-0.00001614,0.00000958,0.00001626,0.00000923,0.00001829,0
 .00000307,-0.00000850,0.00001268,0.00003625\\\@


 THEORY:  SUPPOSITION WHICH HAS SCIENTIFIC BASIS,
          BUT NOT EXPERIMENTALLY PROVEN.
 FACT:    A THEORY WHICH HAS BEEN PROVEN BY ENOUGH 
          MONEY TO PAY FOR THE EXPERIMENTS.

                          --  THE WIZARD OF ID
 Job cpu time:       0 days  0 hours  7 minutes 47.6 seconds.
 Elapsed time:       0 days  0 hours  9 minutes  4.7 seconds.
 File lengths (MBytes):  RWF=    428 Int=      0 D2E=      0 Chk=     16 Scr=      1
 Normal termination of Gaussian 16 at Fri Feb 23 22:11:55 2024.
