 Entering Gaussian System, Link 0=g16
 Input=/Volumes/SSD-PMU3/b3lyp_6-31gd_freq/CQZJUUNZJGFFFN-YXYNXPFZSA-N_calculating/gaussianinput2.gjf
 Output=/Volumes/SSD-PMU3/b3lyp_6-31gd_freq/CQZJUUNZJGFFFN-YXYNXPFZSA-N_calculating/gaussianinput2.log
 Initial command:
 /Applications/g16/l1.exe "/Users/macmini_m1_2022/PycharmProjects/sphere_model/sphere_model_lib/Gau-76628.inp" -scrdir="/Users/macmini_m1_2022/PycharmProjects/sphere_model/sphere_model_lib/"
 Entering Link 1 = /Applications/g16/l1.exe PID=     76629.
  
 Copyright (c) 1988,1990,1992,1993,1995,1998,2003,2009,2016,
            Gaussian, Inc.  All Rights Reserved.
  
 This is part of the Gaussian(R) 16 program.  It is based on
 the Gaussian(R) 09 system (copyright 2009, Gaussian, Inc.),
 the Gaussian(R) 03 system (copyright 2003, Gaussian, Inc.),
 the Gaussian(R) 98 system (copyright 1998, Gaussian, Inc.),
 the Gaussian(R) 94 system (copyright 1995, Gaussian, Inc.),
 the Gaussian 92(TM) system (copyright 1992, Gaussian, Inc.),
 the Gaussian 90(TM) system (copyright 1990, Gaussian, Inc.),
 the Gaussian 88(TM) system (copyright 1988, Gaussian, Inc.),
 the Gaussian 86(TM) system (copyright 1986, Carnegie Mellon
 University), and the Gaussian 82(TM) system (copyright 1983,
 Carnegie Mellon University). Gaussian is a federally registered
 trademark of Gaussian, Inc.
  
 This software contains proprietary and confidential information,
 including trade secrets, belonging to Gaussian, Inc.
  
 This software is provided under written license and may be
 used, copied, transmitted, or stored only in accord with that
 written license.
  
 The following legend is applicable only to US Government
 contracts under FAR:
  
                    RESTRICTED RIGHTS LEGEND
  
 Use, reproduction and disclosure by the US Government is
 subject to restrictions as set forth in subparagraphs (a)
 and (c) of the Commercial Computer Software - Restricted
 Rights clause in FAR 52.227-19.
  
 Gaussian, Inc.
 340 Quinnipiac St., Bldg. 40, Wallingford CT 06492
  
  
 ---------------------------------------------------------------
 Warning -- This program may not be used in any manner that
 competes with the business of Gaussian, Inc. or will provide
 assistance to any competitor of Gaussian, Inc.  The licensee
 of this program is prohibited from giving any competitor of
 Gaussian, Inc. access to this program.  By using this program,
 the user acknowledges that Gaussian, Inc. is engaged in the
 business of creating and licensing software in the field of
 computational chemistry and represents and warrants to the
 licensee that it is not a competitor of Gaussian, Inc. and that
 it will not use this program in any manner prohibited above.
 ---------------------------------------------------------------
  

 Cite this work as:
 Gaussian 16, Revision A.03,
 M. J. Frisch, G. W. Trucks, H. B. Schlegel, G. E. Scuseria, 
 M. A. Robb, J. R. Cheeseman, G. Scalmani, V. Barone, 
 G. A. Petersson, H. Nakatsuji, X. Li, M. Caricato, A. V. Marenich, 
 J. Bloino, B. G. Janesko, R. Gomperts, B. Mennucci, H. P. Hratchian, 
 J. V. Ortiz, A. F. Izmaylov, J. L. Sonnenberg, D. Williams-Young, 
 F. Ding, F. Lipparini, F. Egidi, J. Goings, B. Peng, A. Petrone, 
 T. Henderson, D. Ranasinghe, V. G. Zakrzewski, J. Gao, N. Rega, 
 G. Zheng, W. Liang, M. Hada, M. Ehara, K. Toyota, R. Fukuda, 
 J. Hasegawa, M. Ishida, T. Nakajima, Y. Honda, O. Kitao, H. Nakai, 
 T. Vreven, K. Throssell, J. A. Montgomery, Jr., J. E. Peralta, 
 F. Ogliaro, M. J. Bearpark, J. J. Heyd, E. N. Brothers, K. N. Kudin, 
 V. N. Staroverov, T. A. Keith, R. Kobayashi, J. Normand, 
 K. Raghavachari, A. P. Rendell, J. C. Burant, S. S. Iyengar, 
 J. Tomasi, M. Cossi, J. M. Millam, M. Klene, C. Adamo, R. Cammi, 
 J. W. Ochterski, R. L. Martin, K. Morokuma, O. Farkas, 
 J. B. Foresman, and D. J. Fox, Gaussian, Inc., Wallingford CT, 2016.
 
 ******************************************
 Gaussian 16:  EM64M-G16RevA.03 25-Dec-2016
                23-Feb-2024 
 ******************************************
 %nprocshared=10
 Will use up to   10 processors via shared memory.
 %mem=12GB
 %chk= 2.chk
 ---------------------
 # freq b3lyp/6-31g(d)
 ---------------------
 1/10=4,30=1,38=1/1,3;
 2/12=2,17=6,18=5,40=1/2;
 3/5=1,6=6,7=1,11=2,25=1,30=1,71=2,74=-5,140=1/1,2,3;
 4//1;
 5/5=2,38=5,98=1/2;
 8/6=4,10=90,11=11/1;
 11/6=1,8=1,9=11,15=111,16=1/1,2,10;
 10/6=1/2;
 6/7=2,8=2,9=2,10=2,28=1/1;
 7/8=1,10=1,25=1/1,2,3,16;
 1/10=4,30=1/3;
 99//99;
 ---------
 good luck
 ---------
 Symbolic Z-matrix:
 Charge =  0 Multiplicity = 1
 O                     1.21578   0.        0. 
 C                     0.        0.        0. 
 C                    -0.84902  -1.26827   0.00181 
 C                    -1.73286  -1.26263   1.27337 
 C                    -1.75095  -1.25756  -1.25551 
 C                    -2.6402    0.       -1.23531 
 C                    -1.75095   1.25757  -1.25551 
 C                    -0.84902   1.26827   0.00181 
 C                    -1.73286   1.26263   1.27337 
 C                    -2.64332  0.         1.31536 
 C                    -3.47442  0.         2.60388 
 C                    -4.87742   0.        2.6011 
 C                    -5.60957   0.        3.78633 
 C                    -4.9482   0.         5.02207 
 C                    -5.69541  0.         6.24538 
 N                    -6.3023   -0.00001   7.23804 
 C                    -3.54355  -0.00001   5.04637 
 C                    -2.82967  -0.00001   3.8549 
 C                    -3.51553  0.         0.03447 
 H                    -0.17991  -2.13458   0.00345 
 H                    -2.35569  -2.1668    1.29119 
 H                    -1.09503  -1.30183   2.16421 
 H                    -1.13503  -1.27565  -2.1638 
 H                    -2.3687   -2.16565  -1.2683 
 H                    -3.2929    0.       -2.11748 
 H                    -1.13503   1.27565  -2.1638 
 H                    -2.3687    2.16565  -1.2683 
 H                    -0.17991   2.13458   0.00345 
 H                    -1.09503   1.30183   2.16421 
 H                    -2.35569   2.1668    1.29119 
 H                    -5.42244   0.00001   1.66447 
 H                    -6.69461   0.00001   3.75783 
 H                    -3.02239  -0.00002   5.99842 
 H                    -1.74502  -0.00001   3.90561 
 H                    -4.1683    0.88308   0.02641 
 H                    -4.1683   -0.88308   0.02641 
 

 GradGradGradGradGradGradGradGradGradGradGradGradGradGradGradGradGradGrad
 Berny optimization.
 Initialization pass.
 Trust Radius=3.00D-01 FncErr=1.00D-07 GrdErr=1.00D-07 EigMax=2.50D+02 EigMin=1.00D-04
 Number of steps in this run=      2 maximum allowed number of steps=      2.
 GradGradGradGradGradGradGradGradGradGradGradGradGradGradGradGradGradGrad

                          Input orientation:                          
 ---------------------------------------------------------------------
 Center     Atomic      Atomic             Coordinates (Angstroms)
 Number     Number       Type             X           Y           Z
 ---------------------------------------------------------------------
      1          8           0        1.215777    0.000000    0.000000
      2          6           0        0.000000    0.000000    0.000000
      3          6           0       -0.849023   -1.268270    0.001810
      4          6           0       -1.732861   -1.262629    1.273371
      5          6           0       -1.750954   -1.257564   -1.255511
      6          6           0       -2.640196    0.000000   -1.235307
      7          6           0       -1.750954    1.257565   -1.255510
      8          6           0       -0.849023    1.268270    0.001810
      9          6           0       -1.732861    1.262628    1.273371
     10          6           0       -2.643322   -0.000001    1.315357
     11          6           0       -3.474422   -0.000001    2.603880
     12          6           0       -4.877417    0.000004    2.601101
     13          6           0       -5.609566    0.000002    3.786327
     14          6           0       -4.948202   -0.000004    5.022072
     15          6           0       -5.695408   -0.000004    6.245380
     16          7           0       -6.302298   -0.000005    7.238040
     17          6           0       -3.543553   -0.000009    5.046371
     18          6           0       -2.829674   -0.000008    3.854898
     19          6           0       -3.515534   -0.000001    0.034472
     20          1           0       -0.179912   -2.134580    0.003452
     21          1           0       -2.355685   -2.166797    1.291193
     22          1           0       -1.095030   -1.301828    2.164210
     23          1           0       -1.135025   -1.275653   -2.163801
     24          1           0       -2.368698   -2.165645   -1.268298
     25          1           0       -3.292899    0.000000   -2.117480
     26          1           0       -1.135026    1.275654   -2.163801
     27          1           0       -2.368699    2.165645   -1.268297
     28          1           0       -0.179912    2.134580    0.003452
     29          1           0       -1.095030    1.301828    2.164210
     30          1           0       -2.355686    2.166796    1.291193
     31          1           0       -5.422436    0.000007    1.664470
     32          1           0       -6.694605    0.000006    3.757833
     33          1           0       -3.022389   -0.000015    5.998416
     34          1           0       -1.745015   -0.000013    3.905610
     35          1           0       -4.168303    0.883078    0.026414
     36          1           0       -4.168303   -0.883080    0.026413
 ---------------------------------------------------------------------
                    Distance matrix (angstroms):
                    1          2          3          4          5
     1  O    0.000000
     2  C    1.215777   0.000000
     3  C    2.423203   1.526222   0.000000
     4  C    3.451112   2.493695   1.548570   0.000000
     5  C    3.458217   2.494717   1.547401   2.528952   0.000000
     6  C    4.049014   2.914896   2.519378   2.951433   1.540333
     7  C    3.458217   2.494717   2.962123   3.570286   2.515129
     8  C    2.423203   1.526222   2.536540   2.967067   2.962123
     9  C    3.451111   2.493694   2.967066   2.525257   3.570286
    10  C    4.077108   2.952510   2.559965   1.557219   2.997857
    11  C    5.364528   4.341866   3.907940   2.529332   4.409842
    12  C    6.625160   5.527651   4.959112   3.639415   5.121494
    13  C    7.805228   6.767829   6.212395   4.789366   6.472286
    14  C    7.950839   7.050242   6.604150   5.097588   7.156249
    15  C    9.315001   8.452363   8.004881   6.482042   8.567587
    16  N   10.436028   9.597301   9.149302   7.619137   9.717849
    17  C    6.936648   6.166249   5.858035   4.371309   6.671475
    18  C    5.588015   4.781976   4.514173   3.075954   5.372277
    19  C    4.731437   3.515703   2.952940   2.511379   2.521758
    20  H    2.550371   2.142151   1.094626   2.187383   2.195978
    21  H    4.372360   3.451295   2.177129   1.098065   2.770939
    22  H    3.423213   2.752753   2.176607   1.096339   3.482339
    23  H    3.440290   2.756376   2.184427   3.488800   1.097582
    24  H    4.375735   3.450989   2.174366   2.771247   1.098354
    25  H    4.981153   3.914959   3.474540   3.940282   2.168422
    26  H    3.440291   2.756377   3.353091   4.314445   2.760716
    27  H    4.375736   3.450990   3.964134   4.314792   3.478524
    28  H    2.550371   2.142151   3.468011   3.945298   3.944591
    29  H    3.423213   2.752753   3.367773   2.788703   4.321483
    30  H    4.372360   3.451296   3.966386   3.485568   4.310179
    31  H    6.843707   5.672149   5.028824   3.919206   4.856702
    32  H    8.757594   7.677177   7.063077   5.690844   7.152257
    33  H    7.344593   6.716832   6.503174   5.057977   7.471107
    34  H    4.901028   4.277717   4.201301   2.919423   5.312122
    35  H    5.456083   4.260901   3.955569   3.477116   3.474083
    36  H    5.456083   4.260901   3.341646   2.762307   2.761728
                    6          7          8          9         10
     6  C    0.000000
     7  C    1.540334   0.000000
     8  C    2.519378   1.547400   0.000000
     9  C    2.951432   2.528951   1.548570   0.000000
    10  C    2.550666   2.997858   2.559966   1.557220   0.000000
    11  C    3.928777   4.409842   3.907941   2.529332   1.533303
    12  C    4.441079   5.121492   4.959110   3.639412   2.577657
    13  C    5.833864   6.472285   6.212394   4.789365   3.860608
    14  C    6.669459   7.156250   6.604152   5.097589   4.364883
    15  C    8.080532   8.567587   8.004882   6.482044   5.798306
    16  N    9.230850   9.717850   9.149303   7.619139   6.961773
    17  C    6.346301   6.671477   5.858039   4.371314   3.838083
    18  C    5.093730   5.372280   4.514177   3.075960   2.546369
    19  C    1.542257   2.521759   2.952941   2.511379   1.549652
    20  H    3.484817   3.944592   3.468011   3.945297   3.513675
    21  H    3.340533   4.310180   3.966387   3.485568   2.185938
    22  H    3.954619   4.321483   3.367773   2.788702   2.193744
    23  H    2.180581   2.760716   3.353090   4.314444   4.000848
    24  H    2.182846   3.478525   3.964134   4.314792   3.382411
    25  H    1.097383   2.168423   3.474540   3.940282   3.493754
    26  H    2.180580   1.097582   2.184427   3.488800   4.000849
    27  H    2.182846   1.098354   2.174366   2.771246   3.382412
    28  H    3.484817   2.195977   1.094626   2.187383   3.513676
    29  H    3.954619   3.482338   2.176607   1.096339   2.193745
    30  H    3.340532   2.770938   2.177129   1.098066   2.185939
    31  H    4.018652   4.856698   5.028821   3.919201   2.800956
    32  H    6.431927   7.152255   7.063075   5.690841   4.730601
    33  H    7.243813   7.471111   6.503180   5.057984   4.698376
    34  H    5.218273   5.312127   4.201309   2.919434   2.741599
    35  H    2.169534   2.761729   3.341646   2.762307   2.183293
    36  H    2.169534   3.474085   3.955570   3.477117   2.183294
                   11         12         13         14         15
    11  C    0.000000
    12  C    1.402998   0.000000
    13  C    2.440701   1.393127   0.000000
    14  C    2.831904   2.422006   1.401595   0.000000
    15  C    4.265361   3.734954   2.460551   1.433457   0.000000
    16  N    5.428842   4.850927   3.520540   2.596939   1.163482
    17  C    2.443469   2.785415   2.419942   1.404859   2.463352
    18  C    1.407390   2.401095   2.780738   2.418772   3.731868
    19  C    2.569737   2.905565   4.296671   5.189286   6.582342
    20  H    4.708763   5.776745   6.953253   7.244277   8.598766
    21  H    2.769427   3.573516   4.637721   5.033448   6.355526
    22  H    2.747648   4.023940   4.970620   4.970820   6.286030
    23  H    5.461762   6.191695   7.553333   8.234341   9.650839
    24  H    4.572352   5.094699   6.382984   7.135306   8.497785
    25  H    4.724848   4.977520   6.342072   7.328931   8.701119
    26  H    5.461763   6.191693   7.553332   8.234342   9.650840
    27  H    4.572352   5.094694   6.382981   7.135308   8.497786
    28  H    4.708764   5.776742   6.953252   7.244279   8.598768
    29  H    2.747649   4.023937   4.970619   4.970822   6.286032
    30  H    2.769427   3.573510   4.637718   5.033450   6.355528
    31  H    2.162695   1.083662   2.130093   3.390927   4.589036
    32  H    3.420700   2.154113   1.085413   2.155974   2.680725
    33  H    3.424501   3.870772   3.403942   2.159167   2.684403
    34  H    2.164567   3.393182   3.866391   3.392181   4.591310
    35  H    2.811517   2.812770   4.122379   5.132706   6.464319
    36  H    2.811518   2.812774   4.122381   5.132706   6.464319
                   16         17         18         19         20
    16  N    0.000000
    17  C    3.523363   0.000000
    18  C    4.848172   1.388968   0.000000
    19  C    7.723823   5.011977   3.881502   0.000000
    20  H    9.714900   6.426625   5.139190   3.960273   0.000000
    21  H    7.458936   4.495260   3.390018   2.760363   2.528498
    22  H    7.386077   3.999606   2.749937   3.476978   2.489938
    23  H   10.803824   7.708103   6.381524   3.482315   2.519322
    24  H    9.618783   6.778297   5.581184   2.775330   2.531619
    25  H    9.827626   7.168235   5.990315   2.163438   4.329604
    26  H   10.803824   7.708106   6.381527   3.482315   4.151978
    27  H    9.618784   6.778301   5.581190   2.775331   4.989997
    28  H    9.714902   6.426631   5.139197   3.960274   4.269160
    29  H    7.386079   3.999612   2.749944   3.476979   4.161156
    30  H    7.458938   4.495268   3.390028   2.760363   4.989399
    31  H    5.642592   3.868780   3.394170   2.508619   5.899110
    32  H    3.502249   3.404329   3.866150   4.895907   7.816205
    33  H    3.506347   1.085358   2.152164   5.984298   6.969622
    34  H    5.645699   2.129806   1.085844   4.256812   4.715163
    35  H    7.572405   5.135185   4.150790   1.098181   5.001405
    36  H    7.572405   5.135183   4.150788   1.098181   4.180196
                   21         22         23         24         25
    21  H    0.000000
    22  H    1.760563   0.000000
    23  H    3.771092   4.328275   0.000000
    24  H    2.559524   3.761718   1.765208   0.000000
    25  H    4.146376   4.985805   2.507161   2.503053   0.000000
    26  H    5.027670   5.037528   2.551307   3.763829   2.507161
    27  H    5.032019   5.042589   3.763829   4.331290   2.503053
    28  H    4.989400   4.161156   4.151977   4.989997   4.329604
    29  H    3.792462   2.603656   5.037528   5.042590   4.985805
    30  H    4.333593   3.792462   5.027669   5.032018   4.146375
    31  H    3.773505   4.546532   5.887687   4.755680   4.340285
    32  H    5.441101   5.965706   8.222043   6.976067   6.789028
    33  H    5.224690   4.484481   8.474148   7.610677   8.120403
    34  H    3.450079   2.269290   6.231942   5.643427   6.218807
    35  H    3.766562   4.334627   4.319483   3.769558   2.478395
    36  H    2.556009   3.767032   3.761905   2.561216   2.478395
                   26         27         28         29         30
    26  H    0.000000
    27  H    1.765208   0.000000
    28  H    2.519322   2.531620   0.000000
    29  H    4.328275   3.761717   2.489938   0.000000
    30  H    3.771091   2.559523   2.528499   1.760563   0.000000
    31  H    5.887684   4.755672   5.899105   4.546528   3.773495
    32  H    8.222040   6.976062   7.816202   5.965703   5.441095
    33  H    8.474152   7.610684   6.969632   4.484489   5.224702
    34  H    6.231947   5.643436   4.715175   2.269305   3.450095
    35  H    3.761905   2.561216   4.180197   3.767032   2.556008
    36  H    4.319484   3.769559   5.001406   4.334629   3.766562
                   31         32         33         34         35
    31  H    0.000000
    32  H    2.449609   0.000000
    33  H    4.954121   4.301788   0.000000
    34  H    4.306522   4.951796   2.451840   0.000000
    35  H    2.244079   4.591896   6.144736   4.658362   0.000000
    36  H    2.244086   4.591899   6.144733   4.658358   1.766158
                   36
    36  H    0.000000
 Stoichiometry    C17H17NO
 Framework group  C1[X(C17H17NO)]
 Deg. of freedom   102
 Full point group                 C1      NOp   1
 Largest Abelian subgroup         C1      NOp   1
 Largest concise Abelian subgroup C1      NOp   1
                         Standard orientation:                         
 ---------------------------------------------------------------------
 Center     Atomic      Atomic             Coordinates (Angstroms)
 Number     Number       Type             X           Y           Z
 ---------------------------------------------------------------------
      1          8           0       -3.767039   -2.168276   -0.000006
      2          6           0       -3.056627   -1.181651   -0.000003
      3          6           0       -2.559050   -0.493715    1.268269
      4          6           0       -1.010704   -0.519473    1.262627
      5          6           0       -3.052365    0.972906    1.257567
      6          6           0       -2.516361    1.682739    0.000005
      7          6           0       -3.052366    0.972912   -1.257562
      8          6           0       -2.559051   -0.493707   -1.268271
      9          6           0       -1.010706   -0.519465   -1.262630
     10          6           0       -0.444625    0.194852    0.000000
     11          6           0        1.086669    0.116385   -0.000001
     12          6           0        1.904223    1.256565   -0.000003
     13          6           0        3.293869    1.158156   -0.000002
     14          6           0        3.910245   -0.100633    0.000000
     15          6           0        5.339595   -0.209074   -0.000001
     16          7           0        6.499779   -0.296611   -0.000001
     17          6           0        3.109189   -1.254729    0.000002
     18          6           0        1.725148   -1.137844    0.000002
     19          6           0       -0.974429    1.651125    0.000005
     20          1           0       -2.948697   -1.037673    2.134577
     21          1           0       -0.632308   -0.024457    2.166796
     22          1           0       -0.660475   -1.557626    1.301822
     23          1           0       -4.149363    1.003807    1.275657
     24          1           0       -2.701776    1.481685    2.165650
     25          1           0       -2.850868    2.727897    0.000008
     26          1           0       -4.149364    1.003816   -1.275650
     27          1           0       -2.701777    1.481698   -2.165640
     28          1           0       -2.948699   -1.037660   -2.134583
     29          1           0       -0.660476   -1.557618   -1.301834
     30          1           0       -0.632310   -0.024443   -2.166797
     31          1           0        1.462599    2.246157   -0.000002
     32          1           0        3.904764    2.055334   -0.000003
     33          1           0        3.577260   -2.233969    0.000005
     34          1           0        1.132506   -2.047696    0.000005
     35          1           0       -0.599537    2.185569   -0.883072
     36          1           0       -0.599537    2.185565    0.883086
 ---------------------------------------------------------------------
 Rotational constants (GHZ):           1.0850666           0.1981485           0.1862197
 Standard basis: 6-31G(d) (6D, 7F)
 There are   319 symmetry adapted cartesian basis functions of A   symmetry.
 There are   319 symmetry adapted basis functions of A   symmetry.
   319 basis functions,   600 primitive gaussians,   319 cartesian basis functions
    67 alpha electrons       67 beta electrons
       nuclear repulsion energy      1383.1238571756 Hartrees.
 NAtoms=   36 NActive=   36 NUniq=   36 SFac= 1.00D+00 NAtFMM=   60 NAOKFM=F Big=F
 Integral buffers will be    131072 words long.
 Raffenetti 2 integral format.
 Two-electron integral symmetry is turned on.
 One-electron integrals computed using PRISM.
 NBasis=   319 RedAO= T EigKep=  4.03D-04  NBF=   319
 NBsUse=   319 1.00D-06 EigRej= -1.00D+00 NBFU=   319
 ExpMin= 1.61D-01 ExpMax= 5.48D+03 ExpMxC= 8.25D+02 IAcc=3 IRadAn=         5 AccDes= 0.00D+00
 Harris functional with IExCor=  402 and IRadAn=       5 diagonalized for initial guess.
 HarFok:  IExCor=  402 AccDes= 0.00D+00 IRadAn=         5 IDoV= 1 UseB2=F ITyADJ=14
 ICtDFT=  3500011 ScaDFX=  1.000000  1.000000  1.000000  1.000000
 FoFCou: FMM=F IPFlag=           0 FMFlag=      100000 FMFlg1=           0
         NFxFlg=           0 DoJE=T BraDBF=F KetDBF=T FulRan=T
         wScrn=  0.000000 ICntrl=       500 IOpCl=  0 I1Cent=   200000004 NGrid=           0
         NMat0=    1 NMatS0=      1 NMatT0=    0 NMatD0=    1 NMtDS0=    0 NMtDT0=    0
 Petite list used in FoFCou.
 Requested convergence on RMS density matrix=1.00D-08 within 128 cycles.
 Requested convergence on MAX density matrix=1.00D-06.
 Requested convergence on             energy=1.00D-06.
 No special actions if energy rises.
 Integral accuracy reduced to 1.0D-05 until final iterations.
 Initial convergence to 1.0D-05 achieved.  Increase integral accuracy.
 SCF Done:  E(RB3LYP) =  -788.026988002     A.U. after   15 cycles
            NFock= 15  Conv=0.72D-08     -V/T= 2.0096
 DoSCS=F DFT=T ScalE2(SS,OS)=  1.000000  1.000000
 Range of M.O.s used for correlation:     1   319
 NBasis=   319 NAE=    67 NBE=    67 NFC=     0 NFV=     0
 NROrb=    319 NOA=    67 NOB=    67 NVA=   252 NVB=   252
 Symmetrizing basis deriv contribution to polar:
 IMax=3 JMax=2 DiffMx= 0.00D+00
 G2DrvN: will do    37 centers at a time, making    1 passes.
 Calling FoFCou, ICntrl=  3107 FMM=F I1Cent=   0 AccDes= 0.00D+00.
 End of G2Drv F.D. properties file   721 does not exist.
 End of G2Drv F.D. properties file   722 does not exist.
 End of G2Drv F.D. properties file   788 does not exist.
          IDoAtm=111111111111111111111111111111111111
          Differentiating once with respect to electric field.
                with respect to dipole field.
          Differentiating once with respect to nuclear coordinates.
 Keep R1 ints in memory in canonical form, NReq=1318967059.
          There are   111 degrees of freedom in the 1st order CPHF.  IDoFFX=6 NUNeed=     3.
    108 vectors produced by pass  0 Test12= 1.69D-14 1.00D-09 XBig12= 2.53D+02 1.05D+01.
 AX will form   108 AO Fock derivatives at one time.
    108 vectors produced by pass  1 Test12= 1.69D-14 1.00D-09 XBig12= 5.48D+01 2.50D+00.
    108 vectors produced by pass  2 Test12= 1.69D-14 1.00D-09 XBig12= 8.70D-01 1.17D-01.
    108 vectors produced by pass  3 Test12= 1.69D-14 1.00D-09 XBig12= 3.66D-03 9.97D-03.
    108 vectors produced by pass  4 Test12= 1.69D-14 1.00D-09 XBig12= 5.56D-06 2.79D-04.
     75 vectors produced by pass  5 Test12= 1.69D-14 1.00D-09 XBig12= 6.02D-09 8.53D-06.
     11 vectors produced by pass  6 Test12= 1.69D-14 1.00D-09 XBig12= 5.79D-12 4.15D-07.
      3 vectors produced by pass  7 Test12= 1.69D-14 1.00D-09 XBig12= 4.98D-15 1.04D-08.
 InvSVY:  IOpt=1 It=  1 EMax= 1.60D-14
 Solved reduced A of dimension   629 with   111 vectors.
 Isotropic polarizability for W=    0.000000      174.72 Bohr**3.
 End of Minotr F.D. properties file   721 does not exist.
 End of Minotr F.D. properties file   722 does not exist.
 End of Minotr F.D. properties file   788 does not exist.

 **********************************************************************

            Population analysis using the SCF density.

 **********************************************************************

 Orbital symmetries:
       Occupied  (A) (A) (A) (A) (A) (A) (A) (A) (A) (A) (A) (A)
                 (A) (A) (A) (A) (A) (A) (A) (A) (A) (A) (A) (A)
                 (A) (A) (A) (A) (A) (A) (A) (A) (A) (A) (A) (A)
                 (A) (A) (A) (A) (A) (A) (A) (A) (A) (A) (A) (A)
                 (A) (A) (A) (A) (A) (A) (A) (A) (A) (A) (A) (A)
                 (A) (A) (A) (A) (A) (A) (A)
       Virtual   (A) (A) (A) (A) (A) (A) (A) (A) (A) (A) (A) (A)
                 (A) (A) (A) (A) (A) (A) (A) (A) (A) (A) (A) (A)
                 (A) (A) (A) (A) (A) (A) (A) (A) (A) (A) (A) (A)
                 (A) (A) (A) (A) (A) (A) (A) (A) (A) (A) (A) (A)
                 (A) (A) (A) (A) (A) (A) (A) (A) (A) (A) (A) (A)
                 (A) (A) (A) (A) (A) (A) (A) (A) (A) (A) (A) (A)
                 (A) (A) (A) (A) (A) (A) (A) (A) (A) (A) (A) (A)
                 (A) (A) (A) (A) (A) (A) (A) (A) (A) (A) (A) (A)
                 (A) (A) (A) (A) (A) (A) (A) (A) (A) (A) (A) (A)
                 (A) (A) (A) (A) (A) (A) (A) (A) (A) (A) (A) (A)
                 (A) (A) (A) (A) (A) (A) (A) (A) (A) (A) (A) (A)
                 (A) (A) (A) (A) (A) (A) (A) (A) (A) (A) (A) (A)
                 (A) (A) (A) (A) (A) (A) (A) (A) (A) (A) (A) (A)
                 (A) (A) (A) (A) (A) (A) (A) (A) (A) (A) (A) (A)
                 (A) (A) (A) (A) (A) (A) (A) (A) (A) (A) (A) (A)
                 (A) (A) (A) (A) (A) (A) (A) (A) (A) (A) (A) (A)
                 (A) (A) (A) (A) (A) (A) (A) (A) (A) (A) (A) (A)
                 (A) (A) (A) (A) (A) (A) (A) (A) (A) (A) (A) (A)
                 (A) (A) (A) (A) (A) (A) (A) (A) (A) (A) (A) (A)
                 (A) (A) (A) (A) (A) (A) (A) (A) (A) (A) (A) (A)
                 (A) (A) (A) (A) (A) (A) (A) (A) (A) (A) (A) (A)
 The electronic state is 1-A.
 Alpha  occ. eigenvalues --  -19.14113 -14.33508 -10.27224 -10.24027 -10.22830
 Alpha  occ. eigenvalues --  -10.22451 -10.22360 -10.22065 -10.22060 -10.21300
 Alpha  occ. eigenvalues --  -10.21248 -10.20642 -10.20504 -10.20503 -10.20359
 Alpha  occ. eigenvalues --  -10.20357 -10.20067 -10.20066 -10.20007  -1.03945
 Alpha  occ. eigenvalues --   -0.90715  -0.89428  -0.87464  -0.81342  -0.79134
 Alpha  occ. eigenvalues --   -0.78013  -0.77035  -0.75870  -0.68924  -0.66899
 Alpha  occ. eigenvalues --   -0.65361  -0.62805  -0.61416  -0.59363  -0.58128
 Alpha  occ. eigenvalues --   -0.56819  -0.52279  -0.49521  -0.48441  -0.47315
 Alpha  occ. eigenvalues --   -0.46553  -0.46098  -0.45425  -0.45224  -0.44640
 Alpha  occ. eigenvalues --   -0.44090  -0.43156  -0.41380  -0.41369  -0.41081
 Alpha  occ. eigenvalues --   -0.40294  -0.38651  -0.37952  -0.37649  -0.36524
 Alpha  occ. eigenvalues --   -0.35889  -0.35643  -0.35153  -0.34599  -0.33884
 Alpha  occ. eigenvalues --   -0.32948  -0.31752  -0.31252  -0.30554  -0.27610
 Alpha  occ. eigenvalues --   -0.25998  -0.23857
 Alpha virt. eigenvalues --   -0.05225  -0.02559  -0.01857   0.03664   0.05733
 Alpha virt. eigenvalues --    0.07267   0.07706   0.09988   0.10771   0.11076
 Alpha virt. eigenvalues --    0.12139   0.12282   0.12960   0.13487   0.14812
 Alpha virt. eigenvalues --    0.15088   0.15905   0.15980   0.16250   0.17781
 Alpha virt. eigenvalues --    0.18197   0.18427   0.19000   0.19052   0.19211
 Alpha virt. eigenvalues --    0.20663   0.21587   0.21884   0.23579   0.23680
 Alpha virt. eigenvalues --    0.24536   0.24891   0.26642   0.26892   0.27145
 Alpha virt. eigenvalues --    0.28094   0.30836   0.32455   0.33070   0.33346
 Alpha virt. eigenvalues --    0.35167   0.36020   0.40566   0.46413   0.49176
 Alpha virt. eigenvalues --    0.49658   0.49849   0.50450   0.50951   0.51355
 Alpha virt. eigenvalues --    0.53978   0.54319   0.54655   0.55749   0.56791
 Alpha virt. eigenvalues --    0.56995   0.57219   0.58388   0.58878   0.59322
 Alpha virt. eigenvalues --    0.60256   0.61011   0.62938   0.62953   0.63474
 Alpha virt. eigenvalues --    0.63836   0.65629   0.66453   0.67133   0.67796
 Alpha virt. eigenvalues --    0.68755   0.70037   0.70189   0.70764   0.72113
 Alpha virt. eigenvalues --    0.73352   0.74748   0.76346   0.76393   0.77446
 Alpha virt. eigenvalues --    0.78048   0.79204   0.79691   0.80861   0.81729
 Alpha virt. eigenvalues --    0.82446   0.83730   0.84977   0.85301   0.85464
 Alpha virt. eigenvalues --    0.85719   0.85968   0.87211   0.87379   0.87776
 Alpha virt. eigenvalues --    0.89055   0.89473   0.90596   0.91030   0.92210
 Alpha virt. eigenvalues --    0.93942   0.95047   0.95377   0.96356   0.96934
 Alpha virt. eigenvalues --    0.98266   0.98632   0.98684   1.01155   1.06213
 Alpha virt. eigenvalues --    1.08974   1.09766   1.11307   1.12196   1.14496
 Alpha virt. eigenvalues --    1.14972   1.15358   1.16618   1.16621   1.19818
 Alpha virt. eigenvalues --    1.21191   1.21483   1.24825   1.26309   1.27837
 Alpha virt. eigenvalues --    1.29779   1.32796   1.37723   1.40500   1.40687
 Alpha virt. eigenvalues --    1.41538   1.43276   1.44698   1.45512   1.45667
 Alpha virt. eigenvalues --    1.48990   1.49812   1.53474   1.54461   1.55414
 Alpha virt. eigenvalues --    1.57393   1.59005   1.59663   1.64119   1.67025
 Alpha virt. eigenvalues --    1.68102   1.70028   1.72367   1.72827   1.73811
 Alpha virt. eigenvalues --    1.75961   1.76142   1.76639   1.77733   1.78489
 Alpha virt. eigenvalues --    1.80505   1.80670   1.81583   1.82528   1.84135
 Alpha virt. eigenvalues --    1.85395   1.86764   1.87852   1.89091   1.91454
 Alpha virt. eigenvalues --    1.92599   1.92825   1.95507   1.95950   1.97351
 Alpha virt. eigenvalues --    2.00200   2.01000   2.02030   2.02360   2.05676
 Alpha virt. eigenvalues --    2.06050   2.06640   2.07686   2.10614   2.11239
 Alpha virt. eigenvalues --    2.11623   2.12952   2.13227   2.14527   2.15512
 Alpha virt. eigenvalues --    2.17206   2.20168   2.22979   2.24289   2.24603
 Alpha virt. eigenvalues --    2.26226   2.26869   2.28284   2.30914   2.31234
 Alpha virt. eigenvalues --    2.33971   2.34163   2.38492   2.39524   2.41369
 Alpha virt. eigenvalues --    2.41533   2.46806   2.47547   2.48201   2.49099
 Alpha virt. eigenvalues --    2.49740   2.51528   2.57468   2.59551   2.62104
 Alpha virt. eigenvalues --    2.63099   2.64296   2.65384   2.67761   2.69317
 Alpha virt. eigenvalues --    2.69971   2.72228   2.73308   2.74272   2.74913
 Alpha virt. eigenvalues --    2.76552   2.79239   2.79475   2.80176   2.82054
 Alpha virt. eigenvalues --    2.84334   2.96697   3.00697   3.02249   3.02565
 Alpha virt. eigenvalues --    3.16888   3.25693   3.44059   4.03494   4.08751
 Alpha virt. eigenvalues --    4.09025   4.11295   4.14777   4.18981   4.25710
 Alpha virt. eigenvalues --    4.27569   4.30060   4.30906   4.33463   4.47989
 Alpha virt. eigenvalues --    4.52122   4.57242   4.70476   4.76803   4.79293
 Alpha virt. eigenvalues --    4.81540   4.84228
          Condensed to atoms (all electrons):
               1          2          3          4          5          6
     1  O    8.008675   0.579316  -0.073753   0.000924   0.000991   0.000055
     2  C    0.579316   4.517646   0.330289  -0.028895  -0.029473  -0.020490
     3  C   -0.073753   0.330289   5.233022   0.317422   0.338984  -0.027718
     4  C    0.000924  -0.028895   0.317422   5.173255  -0.038867  -0.014978
     5  C    0.000991  -0.029473   0.338984  -0.038867   5.093873   0.374390
     6  C    0.000055  -0.020490  -0.027718  -0.014978   0.374390   4.936747
     7  C    0.000991  -0.029473  -0.008059  -0.002538  -0.048937   0.374390
     8  C   -0.073753   0.330289  -0.125653  -0.006858  -0.008058  -0.027718
     9  C    0.000924  -0.028895  -0.006858  -0.053598  -0.002538  -0.014978
    10  C    0.000052  -0.019631  -0.020623   0.364905  -0.016564  -0.018805
    11  C    0.000001   0.000069   0.004115  -0.045028  -0.000075   0.003449
    12  C    0.000000   0.000001  -0.000067   0.000971  -0.000010   0.000546
    13  C    0.000000   0.000000   0.000001  -0.000158   0.000000  -0.000007
    14  C   -0.000000  -0.000000  -0.000000  -0.000001  -0.000000   0.000000
    15  C    0.000000  -0.000000  -0.000000  -0.000000  -0.000000  -0.000000
    16  N   -0.000000  -0.000000   0.000000  -0.000000  -0.000000  -0.000000
    17  C   -0.000000  -0.000000  -0.000001   0.000287   0.000000   0.000002
    18  C   -0.000001  -0.000062   0.000297  -0.008243  -0.000001  -0.000097
    19  C   -0.000032  -0.003200  -0.012441  -0.057033  -0.045482   0.362262
    20  H    0.004256  -0.031114   0.345912  -0.030579  -0.030989   0.004194
    21  H   -0.000079   0.003468  -0.029418   0.357649  -0.006044  -0.000759
    22  H    0.000795  -0.000779  -0.037453   0.361582   0.005076   0.000018
    23  H    0.000704  -0.000881  -0.039129   0.005147   0.368783  -0.035144
    24  H   -0.000082   0.003525  -0.031261  -0.005888   0.361561  -0.033198
    25  H   -0.000000   0.000291   0.004663   0.000089  -0.037811   0.370809
    26  H    0.000704  -0.000881  -0.000044   0.000047  -0.004379  -0.035144
    27  H   -0.000082   0.003525  -0.000302   0.000102   0.005197  -0.033198
    28  H    0.004256  -0.031114   0.007009  -0.000075  -0.000067   0.004194
    29  H    0.000795  -0.000779   0.000521  -0.005750  -0.000013   0.000018
    30  H   -0.000079   0.003468  -0.000395   0.005729   0.000113  -0.000759
    31  H    0.000000  -0.000001  -0.000006   0.000257  -0.000003   0.000012
    32  H    0.000000  -0.000000  -0.000000   0.000001   0.000000  -0.000000
    33  H    0.000000  -0.000000  -0.000000   0.000001  -0.000000  -0.000000
    34  H   -0.000001  -0.000050  -0.000107   0.000302  -0.000002  -0.000002
    35  H    0.000000   0.000164  -0.000156   0.005877   0.005149  -0.035125
    36  H    0.000000   0.000164  -0.001162  -0.005651  -0.003637  -0.035125
               7          8          9         10         11         12
     1  O    0.000991  -0.073753   0.000924   0.000052   0.000001   0.000000
     2  C   -0.029473   0.330289  -0.028895  -0.019631   0.000069   0.000001
     3  C   -0.008059  -0.125653  -0.006858  -0.020623   0.004115  -0.000067
     4  C   -0.002538  -0.006858  -0.053598   0.364905  -0.045028   0.000971
     5  C   -0.048937  -0.008058  -0.002538  -0.016564  -0.000075  -0.000010
     6  C    0.374390  -0.027718  -0.014978  -0.018805   0.003449   0.000546
     7  C    5.093873   0.338984  -0.038867  -0.016564  -0.000075  -0.000010
     8  C    0.338984   5.233022   0.317422  -0.020623   0.004115  -0.000067
     9  C   -0.038867   0.317422   5.173255   0.364905  -0.045028   0.000971
    10  C   -0.016564  -0.020623   0.364905   4.961200   0.357348  -0.052023
    11  C   -0.000075   0.004115  -0.045028   0.357348   4.708336   0.545635
    12  C   -0.000010  -0.000067   0.000971  -0.052023   0.545635   5.013737
    13  C    0.000000   0.000001  -0.000158   0.006761  -0.022838   0.479492
    14  C   -0.000000  -0.000000  -0.000001   0.000315  -0.024899  -0.023496
    15  C   -0.000000  -0.000000  -0.000000   0.000003   0.001105   0.005175
    16  N   -0.000000   0.000000  -0.000000  -0.000000   0.000011  -0.000084
    17  C    0.000000  -0.000001   0.000287   0.005088  -0.021068  -0.049625
    18  C   -0.000001   0.000297  -0.008243  -0.052237   0.512146  -0.045196
    19  C   -0.045482  -0.012441  -0.057033   0.369525  -0.041781  -0.009998
    20  H   -0.000067   0.007009  -0.000075   0.003561  -0.000100   0.000001
    21  H    0.000113  -0.000395   0.005729  -0.033369  -0.002000   0.001138
    22  H   -0.000013   0.000521  -0.005750  -0.032014  -0.009546  -0.000255
    23  H   -0.004379  -0.000044   0.000047   0.000210   0.000012   0.000000
    24  H    0.005197  -0.000302   0.000102  -0.001161  -0.000090  -0.000003
    25  H   -0.037811   0.004663   0.000089   0.004055  -0.000095   0.000001
    26  H    0.368782  -0.039129   0.005147   0.000210   0.000012   0.000000
    27  H    0.361561  -0.031261  -0.005888  -0.001161  -0.000090  -0.000003
    28  H   -0.030989   0.345912  -0.030578   0.003561  -0.000100   0.000001
    29  H    0.005076  -0.037453   0.361582  -0.032014  -0.009546  -0.000255
    30  H   -0.006044  -0.029418   0.357649  -0.033369  -0.002000   0.001138
    31  H   -0.000003  -0.000006   0.000257  -0.015571  -0.037930   0.355199
    32  H    0.000000  -0.000000   0.000001  -0.000142   0.003388  -0.036960
    33  H   -0.000000  -0.000000   0.000001  -0.000143   0.003189   0.000506
    34  H   -0.000002  -0.000107   0.000302  -0.007188  -0.045833   0.005344
    35  H   -0.003637  -0.001162  -0.005651  -0.031300  -0.006277   0.001555
    36  H    0.005149  -0.000156   0.005877  -0.031300  -0.006277   0.001555
              13         14         15         16         17         18
     1  O    0.000000  -0.000000   0.000000  -0.000000  -0.000000  -0.000001
     2  C    0.000000  -0.000000  -0.000000  -0.000000  -0.000000  -0.000062
     3  C    0.000001  -0.000000  -0.000000   0.000000  -0.000001   0.000297
     4  C   -0.000158  -0.000001  -0.000000  -0.000000   0.000287  -0.008243
     5  C    0.000000  -0.000000  -0.000000  -0.000000   0.000000  -0.000001
     6  C   -0.000007   0.000000  -0.000000  -0.000000   0.000002  -0.000097
     7  C    0.000000  -0.000000  -0.000000  -0.000000   0.000000  -0.000001
     8  C    0.000001  -0.000000  -0.000000   0.000000  -0.000001   0.000297
     9  C   -0.000158  -0.000001  -0.000000  -0.000000   0.000287  -0.008243
    10  C    0.006761   0.000315   0.000003  -0.000000   0.005088  -0.052237
    11  C   -0.022838  -0.024899   0.001105   0.000011  -0.021068   0.512146
    12  C    0.479492  -0.023496   0.005175  -0.000084  -0.049625  -0.045196
    13  C    4.951816   0.539805  -0.043111  -0.000252  -0.036193  -0.052190
    14  C    0.539805   4.821372   0.212845  -0.096390   0.534656  -0.023988
    15  C   -0.043111   0.212845   4.762348   0.877239  -0.043475   0.005412
    16  N   -0.000252  -0.096390   0.877239   6.696258  -0.000137  -0.000083
    17  C   -0.036193   0.534656  -0.043475  -0.000137   4.928577   0.496703
    18  C   -0.052190  -0.023988   0.005412  -0.000083   0.496703   5.026495
    19  C    0.000221  -0.000018  -0.000000  -0.000000  -0.000154   0.005587
    20  H   -0.000000   0.000000  -0.000000  -0.000000  -0.000000  -0.000007
    21  H   -0.000019  -0.000010  -0.000000   0.000000  -0.000047  -0.000250
    22  H    0.000008  -0.000008  -0.000000  -0.000000   0.000031   0.005304
    23  H   -0.000000   0.000000   0.000000   0.000000   0.000000  -0.000000
    24  H   -0.000000  -0.000000  -0.000000  -0.000000  -0.000000   0.000000
    25  H    0.000000  -0.000000   0.000000   0.000000  -0.000000   0.000002
    26  H   -0.000000   0.000000   0.000000   0.000000   0.000000  -0.000000
    27  H   -0.000000  -0.000000  -0.000000  -0.000000  -0.000000   0.000000
    28  H   -0.000000   0.000000  -0.000000  -0.000000  -0.000000  -0.000007
    29  H    0.000008  -0.000008  -0.000000  -0.000000   0.000031   0.005304
    30  H   -0.000019  -0.000010  -0.000000   0.000000  -0.000047  -0.000250
    31  H   -0.045134   0.003966  -0.000205  -0.000000   0.000606   0.005857
    32  H    0.358932  -0.040859  -0.006663   0.000549   0.005039   0.000496
    33  H    0.005035  -0.040372  -0.006496   0.000548   0.359377  -0.037368
    34  H    0.000697   0.003781  -0.000217  -0.000000  -0.037855   0.354605
    35  H    0.000052  -0.000007  -0.000000   0.000000  -0.000000  -0.000088
    36  H    0.000052  -0.000007  -0.000000   0.000000  -0.000000  -0.000088
              19         20         21         22         23         24
     1  O   -0.000032   0.004256  -0.000079   0.000795   0.000704  -0.000082
     2  C   -0.003200  -0.031114   0.003468  -0.000779  -0.000881   0.003525
     3  C   -0.012441   0.345912  -0.029418  -0.037453  -0.039129  -0.031261
     4  C   -0.057033  -0.030579   0.357649   0.361582   0.005147  -0.005888
     5  C   -0.045482  -0.030989  -0.006044   0.005076   0.368783   0.361561
     6  C    0.362262   0.004194  -0.000759   0.000018  -0.035144  -0.033198
     7  C   -0.045482  -0.000067   0.000113  -0.000013  -0.004379   0.005197
     8  C   -0.012441   0.007009  -0.000395   0.000521  -0.000044  -0.000302
     9  C   -0.057033  -0.000075   0.005729  -0.005750   0.000047   0.000102
    10  C    0.369525   0.003561  -0.033369  -0.032014   0.000210  -0.001161
    11  C   -0.041781  -0.000100  -0.002000  -0.009546   0.000012  -0.000090
    12  C   -0.009998   0.000001   0.001138  -0.000255   0.000000  -0.000003
    13  C    0.000221  -0.000000  -0.000019   0.000008  -0.000000  -0.000000
    14  C   -0.000018   0.000000  -0.000010  -0.000008   0.000000  -0.000000
    15  C   -0.000000  -0.000000  -0.000000  -0.000000   0.000000  -0.000000
    16  N   -0.000000  -0.000000   0.000000  -0.000000   0.000000  -0.000000
    17  C   -0.000154  -0.000000  -0.000047   0.000031   0.000000  -0.000000
    18  C    0.005587  -0.000007  -0.000250   0.005304  -0.000000   0.000000
    19  C    5.153379   0.000162  -0.005528   0.005619   0.004976  -0.003829
    20  H    0.000162   0.593493  -0.003817  -0.002763  -0.002449  -0.003964
    21  H   -0.005528  -0.003817   0.590390  -0.034311  -0.000045   0.005631
    22  H    0.005619  -0.002763  -0.034311   0.588708  -0.000157  -0.000059
    23  H    0.004976  -0.002449  -0.000045  -0.000157   0.587979  -0.034650
    24  H   -0.003829  -0.003964   0.005631  -0.000059  -0.034650   0.596817
    25  H   -0.038649  -0.000143  -0.000096   0.000017  -0.003296  -0.003319
    26  H    0.004976  -0.000083   0.000001  -0.000005   0.004313   0.000015
    27  H   -0.003829   0.000022  -0.000005   0.000001   0.000015  -0.000199
    28  H    0.000162  -0.000175   0.000023  -0.000072  -0.000083   0.000022
    29  H    0.005619  -0.000072  -0.000007   0.003072  -0.000005   0.000001
    30  H   -0.005528   0.000023  -0.000194  -0.000007   0.000001  -0.000005
    31  H    0.008266   0.000000  -0.000021  -0.000007  -0.000000  -0.000001
    32  H    0.000005   0.000000   0.000001   0.000000  -0.000000   0.000000
    33  H    0.000002   0.000000   0.000000   0.000007  -0.000000   0.000000
    34  H    0.000096   0.000005   0.000041   0.003526  -0.000000   0.000000
    35  H    0.358881   0.000018  -0.000078  -0.000166  -0.000160  -0.000054
    36  H    0.358881  -0.000076   0.005275  -0.000043  -0.000028   0.004627
              25         26         27         28         29         30
     1  O   -0.000000   0.000704  -0.000082   0.004256   0.000795  -0.000079
     2  C    0.000291  -0.000881   0.003525  -0.031114  -0.000779   0.003468
     3  C    0.004663  -0.000044  -0.000302   0.007009   0.000521  -0.000395
     4  C    0.000089   0.000047   0.000102  -0.000075  -0.005750   0.005729
     5  C   -0.037811  -0.004379   0.005197  -0.000067  -0.000013   0.000113
     6  C    0.370809  -0.035144  -0.033198   0.004194   0.000018  -0.000759
     7  C   -0.037811   0.368782   0.361561  -0.030989   0.005076  -0.006044
     8  C    0.004663  -0.039129  -0.031261   0.345912  -0.037453  -0.029418
     9  C    0.000089   0.005147  -0.005888  -0.030578   0.361582   0.357649
    10  C    0.004055   0.000210  -0.001161   0.003561  -0.032014  -0.033369
    11  C   -0.000095   0.000012  -0.000090  -0.000100  -0.009546  -0.002000
    12  C    0.000001   0.000000  -0.000003   0.000001  -0.000255   0.001138
    13  C    0.000000  -0.000000  -0.000000  -0.000000   0.000008  -0.000019
    14  C   -0.000000   0.000000  -0.000000   0.000000  -0.000008  -0.000010
    15  C    0.000000   0.000000  -0.000000  -0.000000  -0.000000  -0.000000
    16  N    0.000000   0.000000  -0.000000  -0.000000  -0.000000   0.000000
    17  C   -0.000000   0.000000  -0.000000  -0.000000   0.000031  -0.000047
    18  C    0.000002  -0.000000   0.000000  -0.000007   0.005304  -0.000250
    19  C   -0.038649   0.004976  -0.003829   0.000162   0.005619  -0.005528
    20  H   -0.000143  -0.000083   0.000022  -0.000175  -0.000072   0.000023
    21  H   -0.000096   0.000001  -0.000005   0.000023  -0.000007  -0.000194
    22  H    0.000017  -0.000005   0.000001  -0.000072   0.003072  -0.000007
    23  H   -0.003296   0.004313   0.000015  -0.000083  -0.000005   0.000001
    24  H   -0.003319   0.000015  -0.000199   0.000022   0.000001  -0.000005
    25  H    0.620023  -0.003296  -0.003319  -0.000143   0.000017  -0.000096
    26  H   -0.003296   0.587980  -0.034650  -0.002449  -0.000157  -0.000045
    27  H   -0.003319  -0.034650   0.596817  -0.003964  -0.000059   0.005631
    28  H   -0.000143  -0.002449  -0.003964   0.593493  -0.002763  -0.003817
    29  H    0.000017  -0.000157  -0.000059  -0.002763   0.588708  -0.034311
    30  H   -0.000096  -0.000045   0.005631  -0.003817  -0.034311   0.590391
    31  H    0.000005  -0.000000  -0.000001   0.000000  -0.000007  -0.000021
    32  H    0.000000  -0.000000   0.000000   0.000000   0.000000   0.000001
    33  H    0.000000  -0.000000   0.000000   0.000000   0.000007   0.000000
    34  H    0.000000  -0.000000   0.000000   0.000005   0.003526   0.000041
    35  H   -0.003659  -0.000028   0.004627  -0.000076  -0.000043   0.005275
    36  H   -0.003659  -0.000160  -0.000054   0.000018  -0.000166  -0.000078
              31         32         33         34         35         36
     1  O    0.000000   0.000000   0.000000  -0.000001   0.000000   0.000000
     2  C   -0.000001  -0.000000  -0.000000  -0.000050   0.000164   0.000164
     3  C   -0.000006  -0.000000  -0.000000  -0.000107  -0.000156  -0.001162
     4  C    0.000257   0.000001   0.000001   0.000302   0.005877  -0.005651
     5  C   -0.000003   0.000000  -0.000000  -0.000002   0.005149  -0.003637
     6  C    0.000012  -0.000000  -0.000000  -0.000002  -0.035125  -0.035125
     7  C   -0.000003   0.000000  -0.000000  -0.000002  -0.003637   0.005149
     8  C   -0.000006  -0.000000  -0.000000  -0.000107  -0.001162  -0.000156
     9  C    0.000257   0.000001   0.000001   0.000302  -0.005651   0.005877
    10  C   -0.015571  -0.000142  -0.000143  -0.007188  -0.031300  -0.031300
    11  C   -0.037930   0.003388   0.003189  -0.045833  -0.006277  -0.006277
    12  C    0.355199  -0.036960   0.000506   0.005344   0.001555   0.001555
    13  C   -0.045134   0.358932   0.005035   0.000697   0.000052   0.000052
    14  C    0.003966  -0.040859  -0.040372   0.003781  -0.000007  -0.000007
    15  C   -0.000205  -0.006663  -0.006496  -0.000217  -0.000000  -0.000000
    16  N   -0.000000   0.000549   0.000548  -0.000000   0.000000   0.000000
    17  C    0.000606   0.005039   0.359377  -0.037855  -0.000000  -0.000000
    18  C    0.005857   0.000496  -0.037368   0.354605  -0.000088  -0.000088
    19  C    0.008266   0.000005   0.000002   0.000096   0.358881   0.358881
    20  H    0.000000   0.000000   0.000000   0.000005   0.000018  -0.000076
    21  H   -0.000021   0.000001   0.000000   0.000041  -0.000078   0.005275
    22  H   -0.000007   0.000000   0.000007   0.003526  -0.000166  -0.000043
    23  H   -0.000000  -0.000000  -0.000000  -0.000000  -0.000160  -0.000028
    24  H   -0.000001   0.000000   0.000000   0.000000  -0.000054   0.004627
    25  H    0.000005   0.000000   0.000000   0.000000  -0.003659  -0.003659
    26  H   -0.000000  -0.000000  -0.000000  -0.000000  -0.000028  -0.000160
    27  H   -0.000001   0.000000   0.000000   0.000000   0.004627  -0.000054
    28  H    0.000000   0.000000   0.000000   0.000005  -0.000076   0.000018
    29  H   -0.000007   0.000000   0.000007   0.003526  -0.000043  -0.000166
    30  H   -0.000021   0.000001   0.000000   0.000041   0.005275  -0.000078
    31  H    0.581479  -0.005187   0.000017  -0.000170   0.002352   0.002352
    32  H   -0.005187   0.562947  -0.000160   0.000018   0.000004   0.000004
    33  H    0.000017  -0.000160   0.561104  -0.005114   0.000000   0.000000
    34  H   -0.000170   0.000018  -0.005114   0.579747   0.000002   0.000002
    35  H    0.002352   0.000004   0.000000   0.000002   0.603693  -0.038891
    36  H    0.002352   0.000004   0.000000   0.000002  -0.038891   0.603693
 Mulliken charges:
               1
     1  O   -0.455577
     2  C    0.453503
     3  C   -0.167630
     4  C   -0.290407
     5  C   -0.281164
     6  C   -0.097840
     7  C   -0.281164
     8  C   -0.167630
     9  C   -0.290408
    10  C   -0.005896
    11  C    0.177743
    12  C   -0.194912
    13  C   -0.142804
    14  C    0.133337
    15  C    0.236041
    16  N   -0.477659
    17  C   -0.142077
    18  C   -0.190104
    19  C   -0.296158
    20  H    0.147820
    21  H    0.147032
    22  H    0.149123
    23  H    0.148264
    24  H    0.140566
    25  H    0.130668
    26  H    0.148264
    27  H    0.140566
    28  H    0.147820
    29  H    0.149123
    30  H    0.147032
    31  H    0.143650
    32  H    0.158586
    33  H    0.159861
    34  H    0.144611
    35  H    0.138910
    36  H    0.138910
 Sum of Mulliken charges =  -0.00000
 Mulliken charges with hydrogens summed into heavy atoms:
               1
     1  O   -0.455577
     2  C    0.453503
     3  C   -0.019810
     4  C    0.005747
     5  C    0.007667
     6  C    0.032828
     7  C    0.007667
     8  C   -0.019810
     9  C    0.005747
    10  C   -0.005896
    11  C    0.177743
    12  C   -0.051262
    13  C    0.015782
    14  C    0.133337
    15  C    0.236041
    16  N   -0.477659
    17  C    0.017784
    18  C   -0.045493
    19  C   -0.018338
 APT charges:
               1
     1  O   -0.642947
     2  C    0.700708
     3  C   -0.045980
     4  C    0.073060
     5  C    0.110368
     6  C    0.119839
     7  C    0.110368
     8  C   -0.045981
     9  C    0.073060
    10  C    0.081268
    11  C    0.139866
    12  C   -0.127421
    13  C    0.041408
    14  C   -0.017850
    15  C    0.241802
    16  N   -0.383470
    17  C    0.044658
    18  C   -0.127907
    19  C    0.050922
    20  H   -0.058081
    21  H   -0.034683
    22  H   -0.024807
    23  H   -0.043025
    24  H   -0.041594
    25  H   -0.073921
    26  H   -0.043025
    27  H   -0.041594
    28  H   -0.058081
    29  H   -0.024807
    30  H   -0.034684
    31  H    0.045919
    32  H    0.036949
    33  H    0.038872
    34  H    0.036222
    35  H   -0.037716
    36  H   -0.037716
 Sum of APT charges =   0.00000
 APT charges with hydrogens summed into heavy atoms:
               1
     1  O   -0.642947
     2  C    0.700708
     3  C   -0.104061
     4  C    0.013570
     5  C    0.025748
     6  C    0.045919
     7  C    0.025749
     8  C   -0.104062
     9  C    0.013570
    10  C    0.081268
    11  C    0.139866
    12  C   -0.081502
    13  C    0.078357
    14  C   -0.017850
    15  C    0.241802
    16  N   -0.383470
    17  C    0.083529
    18  C   -0.091684
    19  C   -0.024510
 Electronic spatial extent (au):  <R**2>=           5742.0823
 Charge=             -0.0000 electrons
 Dipole moment (field-independent basis, Debye):
    X=             -3.4628    Y=              2.9245    Z=              0.0000  Tot=              4.5325
 Quadrupole moment (field-independent basis, Debye-Ang):
   XX=           -160.0928   YY=           -109.6033   ZZ=           -109.2720
   XY=             -9.0533   XZ=             -0.0000   YZ=             -0.0000
 Traceless Quadrupole moment (field-independent basis, Debye-Ang):
   XX=            -33.7701   YY=             16.7194   ZZ=             17.0507
   XY=             -9.0533   XZ=             -0.0000   YZ=             -0.0000
 Octapole moment (field-independent basis, Debye-Ang**2):
  XXX=           -303.7660  YYY=              9.1757  ZZZ=             -0.0000  XYY=             34.6050
  XXY=             63.8625  XXZ=              0.0002  XZZ=            -18.4560  YZZ=             -2.3792
  YYZ=              0.0001  XYZ=              0.0000
 Hexadecapole moment (field-independent basis, Debye-Ang**3):
 XXXX=          -8833.5767 YYYY=           -957.9641 ZZZZ=           -552.0386 XXXY=            -30.1527
 XXXZ=             -0.0001 YYYX=            -43.9748 YYYZ=             -0.0002 ZZZX=              0.0001
 ZZZY=              0.0001 XXYY=          -1256.4996 XXZZ=          -1135.0787 YYZZ=           -254.0520
 XXYZ=             -0.0005 YYXZ=             -0.0001 ZZXY=             12.5830
 N-N= 1.383123857176D+03 E-N=-4.592763219885D+03  KE= 7.805333127592D+02
  Exact polarizability: 251.493   0.060 157.230   0.000  -0.000 115.423
 Approx polarizability: 347.943   6.990 270.886   0.000  -0.000 177.012
 Calling FoFJK, ICntrl=    100127 FMM=F ISym2X=0 I1Cent= 0 IOpClX= 0 NMat=1 NMatS=1 NMatT=0.
 Full mass-weighted force constant matrix:
 Low frequencies ---   -2.7941   -0.0007    0.0002    0.0008    3.7241    9.0922
 Low frequencies ---   44.9111   57.9998   71.6272
 Diagonal vibrational polarizability:
       12.8717320      22.8455699      39.9485645
 Harmonic frequencies (cm**-1), IR intensities (KM/Mole), Raman scattering
 activities (A**4/AMU), depolarization ratios for plane and unpolarized
 incident light, reduced masses (AMU), force constants (mDyne/A),
 and normal coordinates:
                      1                      2                      3
                      A                      A                      A
 Frequencies --     44.9052                57.9979                71.6271
 Red. masses --      5.1915                 4.5070                10.7517
 Frc consts  --      0.0062                 0.0089                 0.0325
 IR Inten    --      1.9233                 0.6422                 4.4885
  Atom  AN      X      Y      Z        X      Y      Z        X      Y      Z
     1   8    -0.00   0.00  -0.14     0.00  -0.00   0.03     0.55  -0.35  -0.00
     2   6    -0.00   0.00  -0.08     0.00  -0.00   0.01     0.15  -0.06  -0.00
     3   6    -0.07  -0.03  -0.04    -0.04   0.06  -0.00    -0.01   0.05   0.00
     4   6    -0.07  -0.02   0.06    -0.04   0.05   0.06    -0.01   0.13   0.01
     5   6    -0.08  -0.03  -0.03    -0.05   0.06  -0.09    -0.07   0.02  -0.01
     6   6     0.00  -0.00   0.01    -0.00   0.00  -0.10    -0.08   0.05   0.00
     7   6     0.08   0.03  -0.03     0.05  -0.06  -0.09    -0.07   0.02   0.01
     8   6     0.07   0.03  -0.04     0.04  -0.06  -0.00    -0.01   0.05  -0.00
     9   6     0.07   0.02   0.06     0.04  -0.05   0.06    -0.01   0.13  -0.01
    10   6     0.00  -0.00   0.10    -0.00   0.00   0.05    -0.03   0.13  -0.00
    11   6     0.00  -0.00   0.14    -0.00   0.00   0.10    -0.04   0.11  -0.00
    12   6    -0.00  -0.00  -0.05     0.00   0.00   0.29     0.01   0.07  -0.00
    13   6    -0.00  -0.00  -0.12     0.00   0.00   0.26     0.01   0.00  -0.00
    14   6     0.00   0.00  -0.00    -0.00  -0.00   0.03    -0.06  -0.03  -0.00
    15   6     0.00   0.00  -0.14    -0.00  -0.00  -0.10    -0.07  -0.15   0.00
    16   7     0.00   0.00  -0.27    -0.00  -0.00  -0.23    -0.08  -0.31   0.00
    17   6     0.00   0.00   0.22    -0.00  -0.00  -0.12    -0.11   0.01   0.00
    18   6     0.00   0.00   0.29    -0.00   0.00  -0.07    -0.10   0.08   0.00
    19   6     0.00  -0.00   0.10    -0.00   0.00  -0.03    -0.07   0.11   0.00
    20   1    -0.13  -0.05  -0.07    -0.08   0.10   0.01     0.02   0.03   0.00
    21   1    -0.13  -0.03   0.09    -0.07   0.09   0.05    -0.03   0.17   0.00
    22   1    -0.08  -0.02   0.07    -0.04   0.05   0.11     0.04   0.14   0.05
    23   1    -0.08  -0.03  -0.10    -0.05   0.05  -0.13    -0.07  -0.02  -0.03
    24   1    -0.13  -0.05  -0.00    -0.08   0.10  -0.10    -0.11   0.04  -0.00
    25   1     0.00  -0.00   0.02    -0.00   0.00  -0.16    -0.12   0.04   0.00
    26   1     0.08   0.03  -0.10     0.05  -0.05  -0.13    -0.07  -0.02   0.03
    27   1     0.13   0.05  -0.00     0.08  -0.10  -0.10    -0.11   0.04   0.00
    28   1     0.13   0.05  -0.07     0.08  -0.10   0.01     0.02   0.03  -0.00
    29   1     0.08   0.02   0.07     0.04  -0.05   0.11     0.04   0.14  -0.05
    30   1     0.13   0.03   0.09     0.07  -0.09   0.05    -0.03   0.17  -0.00
    31   1    -0.00  -0.00  -0.15     0.00   0.00   0.44     0.04   0.09  -0.00
    32   1    -0.00  -0.00  -0.29     0.00   0.00   0.39     0.05  -0.03  -0.00
    33   1     0.00   0.00   0.33    -0.00  -0.00  -0.28    -0.15  -0.01   0.00
    34   1     0.00   0.00   0.44    -0.00   0.00  -0.19    -0.14   0.10   0.00
    35   1     0.04   0.01   0.12     0.05  -0.03  -0.03    -0.09   0.12  -0.00
    36   1    -0.04  -0.01   0.12    -0.05   0.03  -0.03    -0.09   0.12   0.00
                      4                      5                      6
                      A                      A                      A
 Frequencies --    116.1855               145.9009               186.3437
 Red. masses --      7.5114                 5.2913                 4.8028
 Frc consts  --      0.0597                 0.0664                 0.0983
 IR Inten    --      2.1943                 1.5344                 2.9341
  Atom  AN      X      Y      Z        X      Y      Z        X      Y      Z
     1   8     0.24  -0.12  -0.00    -0.00   0.00  -0.04    -0.06   0.06   0.00
     2   6    -0.02   0.06   0.00     0.00  -0.00  -0.00     0.07  -0.04  -0.00
     3   6    -0.08   0.11   0.00    -0.08   0.01   0.02     0.08  -0.04   0.00
     4   6    -0.08  -0.03   0.01    -0.07   0.03   0.14     0.07   0.12   0.01
     5   6     0.03   0.14  -0.00    -0.11   0.00  -0.05    -0.06  -0.09  -0.00
     6   6     0.09   0.10  -0.00    -0.00  -0.00  -0.01    -0.10  -0.04   0.00
     7   6     0.03   0.14   0.00     0.11  -0.00  -0.05    -0.06  -0.09   0.00
     8   6    -0.08   0.11  -0.00     0.08  -0.01   0.02     0.08  -0.04  -0.00
     9   6    -0.08  -0.03  -0.01     0.07  -0.03   0.14     0.07   0.12  -0.01
    10   6    -0.03  -0.08  -0.00     0.00   0.00   0.15     0.02   0.13  -0.00
    11   6    -0.03  -0.16  -0.00    -0.00   0.00   0.08     0.01   0.08  -0.00
    12   6    -0.04  -0.16   0.00     0.00  -0.00  -0.02     0.10   0.00  -0.00
    13   6    -0.05  -0.14   0.00     0.00  -0.00  -0.18     0.09  -0.14  -0.00
    14   6    -0.03  -0.13   0.00    -0.00  -0.00  -0.25    -0.01  -0.20   0.00
    15   6    -0.02   0.05  -0.00    -0.00  -0.00  -0.07    -0.01  -0.13   0.00
    16   7     0.01   0.44  -0.00     0.00   0.00   0.26     0.02   0.25  -0.00
    17   6    -0.01  -0.14  -0.00    -0.00  -0.00  -0.24    -0.11  -0.13   0.00
    18   6    -0.02  -0.16  -0.00    -0.00  -0.00  -0.06    -0.09   0.02   0.00
    19   6     0.09  -0.04  -0.00    -0.00   0.00   0.12    -0.08   0.10  -0.00
    20   1    -0.12   0.13  -0.00    -0.14   0.03   0.00     0.12  -0.07   0.00
    21   1    -0.03  -0.05   0.00    -0.15   0.07   0.15     0.01   0.19  -0.01
    22   1    -0.17  -0.06   0.01    -0.05   0.04   0.21     0.17   0.16   0.06
    23   1     0.04   0.23  -0.01    -0.12  -0.03  -0.17    -0.06  -0.19  -0.03
    24   1     0.07   0.11  -0.00    -0.23   0.03  -0.02    -0.12  -0.06   0.00
    25   1     0.19   0.13  -0.00    -0.00  -0.00  -0.04    -0.19  -0.07   0.00
    26   1     0.04   0.23   0.01     0.12   0.03  -0.17    -0.06  -0.19   0.03
    27   1     0.07   0.11   0.00     0.23  -0.03  -0.02    -0.12  -0.06  -0.00
    28   1    -0.12   0.13   0.00     0.14  -0.03   0.00     0.12  -0.07  -0.00
    29   1    -0.17  -0.06  -0.01     0.05  -0.04   0.21     0.17   0.16  -0.06
    30   1    -0.03  -0.05  -0.00     0.15  -0.07   0.15     0.01   0.19   0.01
    31   1    -0.04  -0.16   0.00     0.00   0.00   0.06     0.18   0.04  -0.00
    32   1    -0.06  -0.13   0.00     0.00  -0.00  -0.20     0.19  -0.21  -0.00
    33   1    -0.00  -0.14  -0.00    -0.00  -0.00  -0.31    -0.21  -0.18   0.00
    34   1    -0.02  -0.16  -0.00    -0.00   0.00  -0.02    -0.18   0.07  -0.00
    35   1     0.13  -0.07  -0.00     0.06   0.01   0.15    -0.12   0.13  -0.00
    36   1     0.13  -0.07   0.00    -0.06  -0.01   0.15    -0.12   0.13   0.00
                      7                      8                      9
                      A                      A                      A
 Frequencies --    237.0785               261.3262               279.7413
 Red. masses --      6.7532                 2.9892                 2.3439
 Frc consts  --      0.2236                 0.1203                 0.1081
 IR Inten    --      0.2145                 1.2366                 0.7492
  Atom  AN      X      Y      Z        X      Y      Z        X      Y      Z
     1   8    -0.03  -0.09   0.00    -0.00  -0.00   0.02     0.00  -0.00   0.15
     2   6    -0.13  -0.01   0.00    -0.00  -0.00   0.02    -0.00  -0.00   0.05
     3   6    -0.15   0.03  -0.02     0.03  -0.02   0.02    -0.01   0.04   0.00
     4   6    -0.12   0.04  -0.01     0.04   0.07   0.05    -0.02  -0.12  -0.09
     5   6    -0.19   0.02  -0.03    -0.12  -0.07  -0.05    -0.05   0.03  -0.06
     6   6    -0.13   0.02  -0.00    -0.00  -0.00   0.04     0.00   0.00  -0.04
     7   6    -0.19   0.02   0.03     0.12   0.07  -0.05     0.05  -0.03  -0.06
     8   6    -0.15   0.03   0.02    -0.03   0.02   0.02     0.01  -0.04   0.00
     9   6    -0.12   0.04   0.01    -0.04  -0.07   0.05     0.02   0.12  -0.09
    10   6    -0.04   0.01   0.00    -0.00  -0.00  -0.01     0.00   0.00  -0.01
    11   6     0.06  -0.01   0.00     0.00  -0.00  -0.13    -0.00   0.00  -0.00
    12   6     0.14  -0.04   0.00     0.00  -0.00  -0.13     0.00   0.00   0.00
    13   6     0.16  -0.04   0.00     0.00   0.00   0.02     0.00  -0.00  -0.01
    14   6     0.23  -0.02  -0.00     0.00   0.00   0.14    -0.00  -0.00  -0.00
    15   6     0.26  -0.02  -0.00     0.00   0.00   0.12    -0.00  -0.00  -0.00
    16   7     0.26  -0.02   0.00     0.00  -0.00  -0.10    -0.00   0.00   0.00
    17   6     0.17   0.01  -0.00     0.00   0.00   0.02    -0.00   0.00   0.01
    18   6     0.15   0.01   0.00     0.00  -0.00  -0.14    -0.00   0.00   0.00
    19   6    -0.09   0.01  -0.00    -0.00  -0.00   0.10     0.00  -0.00   0.15
    20   1    -0.13   0.04  -0.00     0.05  -0.04   0.02    -0.01   0.07   0.02
    21   1    -0.16   0.05   0.01    -0.01   0.19   0.01     0.12  -0.33  -0.04
    22   1    -0.14   0.03   0.03     0.10   0.10   0.17    -0.17  -0.18  -0.29
    23   1    -0.19   0.00  -0.10    -0.13  -0.21  -0.24    -0.06  -0.04  -0.12
    24   1    -0.26   0.02   0.00    -0.35  -0.04   0.02    -0.14   0.08  -0.06
    25   1    -0.09   0.03  -0.00    -0.00  -0.00   0.08    -0.00   0.00  -0.09
    26   1    -0.19   0.00   0.10     0.13   0.21  -0.24     0.06   0.04  -0.12
    27   1    -0.26   0.02  -0.00     0.35   0.04   0.02     0.14  -0.08  -0.06
    28   1    -0.13   0.04   0.00    -0.05   0.04   0.02     0.01  -0.07   0.02
    29   1    -0.14   0.03  -0.03    -0.10  -0.10   0.17     0.17   0.18  -0.29
    30   1    -0.16   0.05  -0.01     0.01  -0.19   0.01    -0.12   0.33  -0.04
    31   1     0.17  -0.03   0.00     0.00  -0.00  -0.19     0.00   0.00   0.01
    32   1     0.12  -0.01   0.00     0.00   0.00   0.04     0.00  -0.00  -0.01
    33   1     0.13  -0.01  -0.00     0.00   0.00   0.04    -0.00  -0.00   0.02
    34   1     0.18  -0.02   0.00     0.00  -0.00  -0.20    -0.00   0.00   0.00
    35   1    -0.11   0.03   0.00     0.00   0.10   0.16     0.12   0.14   0.29
    36   1    -0.11   0.03  -0.00    -0.00  -0.10   0.16    -0.12  -0.14   0.29
                     10                     11                     12
                      A                      A                      A
 Frequencies --    316.1295               327.0663               376.0183
 Red. masses --      3.3854                 3.6307                 3.8941
 Frc consts  --      0.1993                 0.2288                 0.3244
 IR Inten    --      0.0666                 1.9083                 1.2652
  Atom  AN      X      Y      Z        X      Y      Z        X      Y      Z
     1   8    -0.04  -0.11  -0.00    -0.00  -0.00  -0.10     0.13   0.16  -0.00
     2   6    -0.11  -0.04  -0.00    -0.00  -0.00  -0.01     0.09   0.17   0.00
     3   6    -0.06  -0.03  -0.03    -0.12   0.06   0.02     0.05   0.07   0.05
     4   6    -0.04  -0.12  -0.08    -0.09  -0.05   0.05     0.04  -0.13  -0.02
     5   6     0.09   0.02   0.02     0.04   0.13   0.06    -0.06   0.02   0.08
     6   6     0.05   0.02   0.00    -0.00   0.00  -0.02    -0.18  -0.04   0.00
     7   6     0.09   0.02  -0.02    -0.04  -0.13   0.06    -0.06   0.02  -0.08
     8   6    -0.06  -0.03   0.03     0.12  -0.06   0.02     0.05   0.07  -0.05
     9   6    -0.04  -0.12   0.08     0.09   0.05   0.05     0.04  -0.13   0.02
    10   6    -0.01   0.03   0.00    -0.00   0.00   0.09    -0.03  -0.07  -0.00
    11   6     0.01   0.17   0.00     0.00   0.00  -0.03    -0.01   0.03  -0.00
    12   6     0.09   0.13   0.00     0.00  -0.00  -0.15     0.01   0.02  -0.00
    13   6     0.09   0.00  -0.00     0.00   0.00  -0.03     0.01  -0.01   0.00
    14   6     0.01  -0.05  -0.00     0.00   0.00   0.14     0.02  -0.02   0.00
    15   6     0.01  -0.10  -0.00     0.00   0.00   0.17     0.03  -0.03   0.00
    16   7     0.02   0.06   0.00     0.00  -0.00  -0.10     0.03   0.01  -0.00
    17   6    -0.08   0.02   0.00     0.00   0.00  -0.05    -0.01  -0.00  -0.00
    18   6    -0.06   0.15   0.00    -0.00  -0.00  -0.16    -0.00   0.03  -0.00
    19   6     0.02   0.02  -0.00    -0.00   0.00   0.04    -0.17  -0.10  -0.00
    20   1    -0.04   0.01   0.00    -0.17   0.09   0.01     0.02  -0.02  -0.02
    21   1    -0.01  -0.31   0.01    -0.08  -0.16   0.10     0.21  -0.33   0.01
    22   1    -0.11  -0.15  -0.27    -0.18  -0.09  -0.03    -0.14  -0.20  -0.20
    23   1     0.09   0.14   0.13     0.05   0.28   0.21    -0.06  -0.11   0.20
    24   1     0.23  -0.03  -0.01     0.24   0.10   0.00    -0.01   0.13   0.00
    25   1     0.03   0.02   0.00    -0.00   0.00  -0.13    -0.13  -0.02   0.00
    26   1     0.09   0.14  -0.13    -0.05  -0.28   0.21    -0.06  -0.11  -0.20
    27   1     0.23  -0.03   0.01    -0.24  -0.10   0.00    -0.01   0.13  -0.00
    28   1    -0.04   0.01  -0.00     0.17  -0.09   0.01     0.02  -0.02   0.02
    29   1    -0.11  -0.15   0.27     0.18   0.09  -0.03    -0.14  -0.20   0.20
    30   1    -0.01  -0.31  -0.01     0.08   0.16   0.10     0.21  -0.33  -0.01
    31   1     0.18   0.17   0.00     0.00   0.00  -0.23     0.02   0.03  -0.00
    32   1     0.17  -0.05  -0.00     0.00   0.00  -0.05     0.02  -0.02   0.00
    33   1    -0.18  -0.02   0.00    -0.00  -0.00  -0.08    -0.04  -0.01  -0.00
    34   1    -0.13   0.20   0.00    -0.00  -0.00  -0.24    -0.01   0.03   0.00
    35   1     0.05   0.01   0.00     0.04  -0.04   0.03    -0.17  -0.09   0.00
    36   1     0.05   0.01  -0.00    -0.04   0.04   0.03    -0.17  -0.09  -0.00
                     13                     14                     15
                      A                      A                      A
 Frequencies --    398.6305               413.2325               421.2388
 Red. masses --      4.8899                 3.0220                 2.3132
 Frc consts  --      0.4578                 0.3040                 0.2418
 IR Inten    --      0.0628                 0.0063                 0.3047
  Atom  AN      X      Y      Z        X      Y      Z        X      Y      Z
     1   8     0.00  -0.00   0.01     0.00   0.00  -0.02    -0.01  -0.03   0.00
     2   6    -0.00   0.00   0.00     0.00   0.00   0.00    -0.03  -0.01  -0.00
     3   6     0.13  -0.10   0.00    -0.01   0.01   0.00    -0.00  -0.03   0.01
     4   6     0.11  -0.13   0.15    -0.00   0.02  -0.00    -0.01   0.04  -0.03
     5   6     0.14  -0.08  -0.16    -0.00   0.02   0.01     0.09  -0.00   0.10
     6   6    -0.00   0.00  -0.18     0.00  -0.00   0.00    -0.09  -0.01   0.00
     7   6    -0.14   0.08  -0.16     0.00  -0.02   0.01     0.09  -0.00  -0.10
     8   6    -0.13   0.10   0.00     0.01  -0.01   0.00    -0.00  -0.03  -0.01
     9   6    -0.11   0.13   0.15     0.00  -0.02  -0.00    -0.01   0.04   0.03
    10   6    -0.00   0.00   0.19     0.00  -0.00  -0.02    -0.04   0.09  -0.00
    11   6    -0.00  -0.00   0.06     0.00   0.00  -0.02    -0.04  -0.06   0.00
    12   6    -0.00  -0.00  -0.00     0.00   0.00   0.22    -0.04  -0.08   0.00
    13   6    -0.00  -0.00  -0.07     0.00  -0.00  -0.20    -0.04  -0.03  -0.00
    14   6    -0.00   0.00   0.04    -0.00   0.00  -0.01     0.03   0.01   0.00
    15   6    -0.00   0.00   0.08    -0.00  -0.00  -0.02     0.05   0.05   0.00
    16   7    -0.00  -0.00  -0.04    -0.00   0.00   0.01     0.05  -0.02  -0.00
    17   6     0.00  -0.00  -0.01    -0.00   0.00   0.22     0.03  -0.01   0.00
    18   6     0.00  -0.00  -0.05    -0.00  -0.00  -0.22     0.01  -0.06  -0.00
    19   6    -0.00   0.00  -0.01     0.00  -0.00   0.02    -0.08   0.13  -0.00
    20   1     0.00  -0.01   0.00     0.00   0.01   0.01     0.04  -0.05   0.01
    21   1     0.06  -0.22   0.22    -0.00   0.04  -0.02    -0.03   0.02  -0.01
    22   1     0.14  -0.13   0.03     0.01   0.02   0.02     0.06   0.06  -0.09
    23   1     0.14  -0.14  -0.07    -0.00   0.03   0.02     0.10   0.11   0.40
    24   1     0.17  -0.00  -0.21     0.01   0.01   0.01     0.40  -0.03  -0.00
    25   1    -0.00  -0.00  -0.05     0.00   0.00  -0.01    -0.20  -0.04   0.00
    26   1    -0.14   0.14  -0.07     0.00  -0.03   0.02     0.10   0.11  -0.40
    27   1    -0.17   0.00  -0.21    -0.01  -0.01   0.01     0.40  -0.03   0.00
    28   1    -0.00   0.01   0.00    -0.00  -0.01   0.01     0.04  -0.05  -0.01
    29   1    -0.14   0.13   0.03    -0.01  -0.02   0.02     0.06   0.06   0.09
    30   1    -0.06   0.22   0.22     0.00  -0.04  -0.02    -0.03   0.02   0.01
    31   1    -0.00  -0.00   0.00     0.00   0.00   0.46    -0.07  -0.09   0.00
    32   1    -0.00  -0.00  -0.14     0.00  -0.00  -0.42    -0.10   0.01  -0.00
    33   1     0.00  -0.00  -0.02    -0.00   0.00   0.47     0.04  -0.00   0.00
    34   1     0.00  -0.00  -0.11    -0.00  -0.00  -0.43     0.06  -0.09  -0.00
    35   1     0.15  -0.15  -0.04     0.02   0.04   0.05    -0.12   0.15  -0.00
    36   1    -0.15   0.15  -0.04    -0.02  -0.04   0.05    -0.12   0.15   0.00
                     16                     17                     18
                      A                      A                      A
 Frequencies --    441.1806               449.5714               462.5239
 Red. masses --      1.9701                 2.2429                 4.4160
 Frc consts  --      0.2259                 0.2671                 0.5566
 IR Inten    --      0.0673                 0.4164                10.4615
  Atom  AN      X      Y      Z        X      Y      Z        X      Y      Z
     1   8     0.00   0.00  -0.04    -0.01  -0.02  -0.00     0.00  -0.00   0.30
     2   6    -0.00   0.00  -0.04    -0.00  -0.02  -0.00    -0.00   0.00  -0.17
     3   6     0.04   0.03  -0.04     0.03   0.01  -0.05    -0.02  -0.02  -0.22
     4   6     0.05   0.06   0.02     0.03  -0.04  -0.12    -0.06   0.04  -0.01
     5   6     0.07   0.05  -0.01    -0.04  -0.00  -0.06     0.04  -0.05   0.02
     6   6    -0.00  -0.00  -0.05    -0.01   0.07  -0.00     0.00   0.00   0.06
     7   6    -0.07  -0.05  -0.01    -0.04  -0.00   0.06    -0.04   0.05   0.02
     8   6    -0.04  -0.03  -0.04     0.03   0.01   0.05     0.02   0.02  -0.22
     9   6    -0.05  -0.06   0.02     0.03  -0.04   0.12     0.06  -0.04  -0.01
    10   6    -0.00  -0.00  -0.02     0.04   0.11  -0.00     0.00  -0.00   0.03
    11   6    -0.00   0.00  -0.07     0.02  -0.05  -0.00     0.00   0.00   0.11
    12   6     0.00   0.00  -0.02    -0.01  -0.05  -0.00     0.00   0.00   0.03
    13   6     0.00   0.00   0.05    -0.02  -0.01   0.00     0.00  -0.00  -0.08
    14   6     0.00  -0.00  -0.02    -0.02   0.01  -0.00    -0.00   0.00   0.03
    15   6     0.00  -0.00  -0.06    -0.03   0.06  -0.00    -0.00   0.00   0.12
    16   7     0.00   0.00   0.02    -0.04  -0.02   0.00    -0.00  -0.00  -0.05
    17   6    -0.00   0.00   0.02     0.03  -0.03   0.00     0.00  -0.00  -0.06
    18   6    -0.00   0.00   0.02     0.02  -0.07   0.00     0.00  -0.00  -0.01
    19   6    -0.00  -0.00   0.18     0.01   0.14   0.00     0.00  -0.00   0.03
    20   1     0.03   0.05  -0.04     0.08   0.04  -0.01    -0.10  -0.15  -0.34
    21   1    -0.01   0.18  -0.03     0.12  -0.32  -0.01    -0.23   0.14   0.01
    22   1     0.09   0.08   0.14    -0.06  -0.08  -0.41     0.01   0.07   0.12
    23   1     0.08   0.10   0.14    -0.05  -0.11  -0.20     0.04   0.03   0.13
    24   1     0.22   0.05  -0.07    -0.21  -0.01   0.00     0.17  -0.19   0.05
    25   1     0.00  -0.00  -0.10    -0.07   0.05  -0.00     0.00   0.00   0.08
    26   1    -0.08  -0.10   0.14    -0.05  -0.11   0.20    -0.04  -0.03   0.13
    27   1    -0.22  -0.05  -0.07    -0.21  -0.01  -0.00    -0.17   0.19   0.05
    28   1    -0.03  -0.05  -0.04     0.08   0.04   0.01     0.10   0.15  -0.34
    29   1    -0.09  -0.08   0.14    -0.06  -0.08   0.41    -0.01  -0.07   0.12
    30   1     0.01  -0.18  -0.03     0.12  -0.32   0.01     0.23  -0.14   0.01
    31   1     0.00   0.00   0.01    -0.05  -0.07   0.00     0.00   0.00  -0.01
    32   1     0.00   0.00   0.12    -0.03   0.00   0.00     0.00  -0.00  -0.18
    33   1    -0.00   0.00   0.06     0.08  -0.01   0.00     0.00  -0.00  -0.13
    34   1    -0.00   0.00   0.09     0.05  -0.09   0.00    -0.00  -0.00  -0.07
    35   1     0.19   0.26   0.42    -0.01   0.16  -0.00    -0.01   0.01   0.03
    36   1    -0.19  -0.26   0.42    -0.01   0.16   0.00     0.01  -0.01   0.03
                     19                     20                     21
                      A                      A                      A
 Frequencies --    507.5085               520.3692               561.8957
 Red. masses --      4.8499                 6.4089                 7.2606
 Frc consts  --      0.7360                 1.0225                 1.3506
 IR Inten    --      1.3855                 1.0630                 0.0374
  Atom  AN      X      Y      Z        X      Y      Z        X      Y      Z
     1   8    -0.00   0.00  -0.11     0.01   0.06   0.00    -0.00  -0.01   0.00
     2   6     0.00  -0.00   0.07     0.11  -0.02  -0.00    -0.01  -0.00   0.00
     3   6     0.06   0.02   0.06     0.05  -0.03   0.00    -0.01   0.00   0.00
     4   6     0.05   0.07  -0.09    -0.01  -0.04   0.02     0.00  -0.01   0.02
     5   6     0.01   0.02  -0.00     0.04  -0.02  -0.09    -0.00   0.01  -0.00
     6   6     0.00   0.00  -0.02     0.11   0.06   0.00     0.01  -0.00  -0.00
     7   6    -0.01  -0.02  -0.00     0.04  -0.02   0.09    -0.00   0.01   0.00
     8   6    -0.06  -0.02   0.06     0.05  -0.03  -0.00    -0.01   0.00  -0.00
     9   6    -0.05  -0.07  -0.09    -0.01  -0.04  -0.02     0.00  -0.01  -0.02
    10   6    -0.00   0.00  -0.10    -0.14   0.01   0.00     0.00  -0.02  -0.00
    11   6    -0.00   0.00   0.21    -0.26   0.02  -0.00     0.01   0.14   0.00
    12   6    -0.00   0.00   0.13    -0.19  -0.07  -0.00     0.02   0.10  -0.00
    13   6    -0.00  -0.00  -0.18    -0.16  -0.09   0.00    -0.03  -0.23   0.00
    14   6    -0.00  -0.00  -0.02     0.10  -0.01  -0.00    -0.01  -0.18   0.00
    15   6     0.00   0.00   0.34     0.26  -0.02  -0.00     0.05   0.59  -0.00
    16   7     0.00  -0.00  -0.12     0.29  -0.02  -0.00    -0.01  -0.15   0.00
    17   6    -0.00  -0.00  -0.17    -0.15   0.12   0.00    -0.00  -0.24   0.00
    18   6    -0.00   0.00   0.12    -0.18   0.10   0.00    -0.00   0.10  -0.00
    19   6     0.00  -0.00   0.04     0.04   0.05   0.00    -0.00  -0.05  -0.00
    20   1     0.16   0.07   0.14    -0.03   0.01  -0.01    -0.02   0.01   0.00
    21   1     0.12   0.14  -0.16     0.06  -0.06   0.01    -0.01   0.02   0.01
    22   1     0.08   0.08  -0.04     0.02  -0.03  -0.06    -0.00  -0.01   0.06
    23   1     0.01  -0.02  -0.01     0.04  -0.10  -0.29    -0.00   0.01  -0.01
    24   1    -0.02   0.07  -0.02    -0.17  -0.04  -0.00    -0.00   0.01  -0.00
    25   1     0.00   0.00  -0.03     0.03   0.04   0.00     0.04   0.01   0.00
    26   1    -0.01   0.02  -0.01     0.04  -0.10   0.29    -0.00   0.01   0.01
    27   1     0.02  -0.07  -0.02    -0.17  -0.04   0.00    -0.00   0.01   0.00
    28   1    -0.16  -0.07   0.14    -0.03   0.01   0.01    -0.02   0.01  -0.00
    29   1    -0.08  -0.08  -0.04     0.02  -0.03   0.06    -0.00  -0.01  -0.06
    30   1    -0.12  -0.14  -0.16     0.06  -0.06  -0.01    -0.01   0.02  -0.01
    31   1    -0.00   0.00   0.08    -0.09  -0.02   0.00     0.19   0.19  -0.00
    32   1    -0.00  -0.00  -0.35    -0.32   0.02   0.00     0.13  -0.34  -0.00
    33   1    -0.00  -0.00  -0.34    -0.32   0.03   0.00    -0.18  -0.32   0.00
    34   1     0.00  -0.00   0.06    -0.10   0.04   0.00    -0.17   0.22  -0.00
    35   1     0.07   0.19   0.18     0.10  -0.00  -0.00     0.01  -0.05   0.00
    36   1    -0.07  -0.19   0.18     0.10  -0.00   0.00     0.01  -0.05  -0.00
                     22                     23                     24
                      A                      A                      A
 Frequencies --    586.1984               614.7999               636.9270
 Red. masses --      2.8885                 5.4801                 3.4618
 Frc consts  --      0.5848                 1.2204                 0.8274
 IR Inten    --     15.4191                 0.0227                 2.9771
  Atom  AN      X      Y      Z        X      Y      Z        X      Y      Z
[...]
 0731110,0.00000002,0.,0.00063428,0.,0.,-0.00020557,0.,0.,-0.00039026,0
 .,0.00000005,0.00619019,0.00000001,0.,0.00124847,0.,0.00003859,0.00000
 875,-0.00005716,0.00001563,-0.00004619,-0.00001198,0.00000134,-0.00004
 013,0.00000628,0.00001656,-0.00003279,0.00000208,-0.00000489,-0.000030
 53,-0.00001391,0.,0.00001739,0.,-0.00001656,-0.00003279,-0.00000208,0.
 00000489,-0.00003053,0.00001391,-0.00003859,0.00000875,0.00005716,-0.0
 0000134,-0.00004014,-0.00000628,-0.00001563,-0.00004619,0.00001198,-0.
 00000053,0.02570275,-0.00004522,0.,0.00000157,0.00005657,0.,-0.0000174
 6,-0.00001376,0.00004512,-0.00002854,-0.00015764,-0.00015950,0.0000419
 9,0.00002547,-0.00003004,-0.00000786,0.00058107,0.,0.00007288,0.000025
 47,0.00003004,-0.00000786,-0.00001376,-0.00004512,-0.00002854,-0.00015
 764,0.00015950,0.00004199,-0.00003211,0.,-0.00098524,-0.00093360,0.,0.
 00399818,-0.12465064,0.00000076,-0.27139451,-0.01493215,0.00000010,-0.
 02052949,0.00379717,0.,-0.00226992,-0.00081203,0.,-0.00093503,0.000291
 47,0.,-0.00009627,0.00071598,0.,0.00038304,0.00054939,0.,0.00111210,0.
 00259721,0.,-0.00216269,-0.00002083,0.00000174,0.00001946,0.00001125,0
 .00001951,0.00001738,-0.00001411,0.00002776,-0.00000222,-0.00000383,0.
 00000197,0.00000598,0.00000694,-0.00000020,-0.00000221,-0.00004044,0.,
 0.00006419,-0.00000383,-0.00000197,0.00000598,0.00000694,0.00000020,-0
 .00000221,-0.00002083,-0.00000174,0.00001946,-0.00001411,-0.00002776,-
 0.00000222,0.00001125,-0.00001951,0.00001738,0.13079221,-0.00000086,0.
 29385064,-0.00005438,0.,-0.00000451,0.00007554,0.,0.00000409,-0.000030
 56,0.00006205,-0.00003061,-0.00006298,-0.00013198,0.00015443,-0.000011
 95,-0.00001828,-0.00000995,0.00004164,0.,-0.00000761,-0.00001195,0.000
 01828,-0.00000995,-0.00003056,-0.00006205,-0.00003061,-0.00006297,0.00
 013198,0.00015443,-0.00036386,0.,-0.00056132,0.00062610,0.00000002,0.0
 0288751,-0.01122427,0.00000006,-0.00255369,-0.34457400,0.00000112,-0.0
 0894345,-0.01029371,0.00000004,0.00190478,0.00030565,-0.00000002,0.000
 85492,0.00033224,0.,-0.00039944,0.00071014,0.00000003,-0.00285008,0.00
 073872,0.,0.00022081,-0.00009575,0.,-0.00004753,-0.00002270,0.00000103
 ,0.00003146,0.00000801,0.00001466,0.00000139,0.00000086,-0.00000038,-0
 .00000730,-0.00000261,0.00000227,0.00001123,0.00000637,0.00000464,-0.0
 0000161,-0.00000491,0.,0.00002950,-0.00000261,-0.00000227,0.00001123,0
 .00000637,-0.00000464,-0.00000161,-0.00002270,-0.00000103,0.00003146,0
 .00000086,0.00000038,-0.00000730,0.00000801,-0.00001466,0.00000139,0.0
 0093729,-0.00000002,0.00014999,0.36362834,0.,-0.00000863,0.,0.,0.00002
 637,0.,0.00001208,-0.00001280,0.00002259,-0.00001012,0.00010414,0.0000
 3180,-0.00000345,0.00000387,0.00001607,0.,0.00003362,0.,0.00000345,0.0
 0000387,-0.00001607,-0.00001208,-0.00001280,-0.00002259,0.00001012,0.0
 0010414,-0.00003180,0.,-0.00024587,0.,0.00000003,0.00738741,0.00000004
 ,-0.00000009,0.00314657,0.00000002,0.00000115,-0.03637105,0.00000007,0
 .00000014,0.00305206,0.00000001,-0.00000001,-0.00395392,-0.00000002,0.
 ,0.00044370,0.,0.00000002,0.00583501,0.00000004,0.,-0.00040696,0.,0.,-
 0.00008431,0.,0.00000153,0.00000470,-0.00000325,0.00000094,-0.00000933
 ,-0.00000445,0.00000513,-0.00002692,0.00000105,-0.00000008,0.00000213,
 0.00000234,-0.00000256,-0.00000508,-0.00000111,0.,0.00000109,0.,0.0000
 0008,0.00000212,-0.00000234,0.00000256,-0.00000508,0.00000111,-0.00000
 153,0.00000470,0.00000325,-0.00000513,-0.00002692,-0.00000105,-0.00000
 094,-0.00000933,0.00000445,0.,-0.00405665,0.,-0.00000123,0.02543999,0.
 00004089,0.,0.00000815,-0.00006589,0.,-0.00000276,0.00004594,-0.000078
 48,0.00002562,0.00007686,0.00013453,-0.00021055,0.00000631,0.00001040,
 0.00001960,-0.00004198,0.,-0.00001797,0.00000631,-0.00001040,0.0000196
 0,0.00004594,0.00007847,0.00002562,0.00007686,-0.00013453,-0.00021054,
 0.00096526,0.,0.00064522,0.00204930,0.00000003,-0.00467033,0.02837206,
 -0.00000010,0.00514205,-0.00707782,0.00000010,-0.06057603,-0.02932849,
 0.00000010,0.00247115,-0.00130450,-0.00000001,0.00167920,0.00047036,0.
 ,-0.00019599,-0.00150993,0.00000004,-0.00519538,0.00002343,0.,-0.00098
 446,0.00007454,0.,0.00012059,0.00002388,-0.00000269,-0.00003632,-0.000
 00395,-0.00002244,0.00000214,0.00000956,0.00000180,0.00000925,-0.00000
 177,0.00000032,-0.00000771,-0.00000489,-0.00000578,-0.00000017,0.00000
 570,0.,-0.00003010,-0.00000177,-0.00000032,-0.00000771,-0.00000489,0.0
 0000578,-0.00000017,0.00002388,0.00000269,-0.00003632,0.00000956,-0.00
 000180,0.00000925,-0.00000395,0.00002244,0.00000214,-0.00024724,-0.000
 00002,0.00104121,0.00884181,-0.00000015,0.06063818,-0.00002774,0.,-0.0
 0001281,0.00004052,0.,0.00000591,-0.00001443,-0.00000239,-0.00000300,0
 .00007037,-0.00003982,-0.00002813,0.00001093,-0.00001038,-0.00000311,0
 .00008820,0.,0.00005155,0.00001093,0.00001038,-0.00000311,-0.00001443,
 0.00000239,-0.00000300,0.00007037,0.00003982,-0.00002813,0.00070059,0.
 ,0.00056943,-0.00165256,0.00000003,0.00305032,-0.00051024,0.,0.0006935
 6,-0.00574612,0.00000004,0.00180236,-0.01125047,0.00000016,-0.02865573
 ,0.00122407,-0.00000001,-0.00178513,-0.00005863,0.,0.00068064,-0.12647
 430,0.00000085,-0.11938833,0.01224513,-0.00000010,0.01634417,-0.000230
 06,0.,0.00016440,-0.00000508,0.00000310,0.00000400,-0.00001117,0.00000
 606,-0.00000499,-0.00002748,0.00002260,-0.00000930,-0.00000405,0.00000
 290,-0.00000156,-0.00000093,0.00000115,-0.00000084,-0.00002161,0.,0.00
 003332,-0.00000405,-0.00000290,-0.00000156,-0.00000093,-0.00000115,-0.
 00000084,-0.00000508,-0.00000310,0.00000400,-0.00002748,-0.00002260,-0
 .00000930,-0.00001117,-0.00000606,-0.00000499,0.00011284,0.,-0.0000587
 6,-0.00051457,0.,-0.00155511,0.13102059,0.,-0.00001410,0.,0.,0.0000204
 6,0.,-0.00002645,-0.00002283,0.00001236,0.00015796,-0.00006267,-0.0000
 7686,0.00001591,-0.00000126,-0.00001237,0.,-0.00003560,0.,-0.00001591,
 -0.00000126,0.00001237,0.00002645,-0.00002283,-0.00001236,-0.00015796,
 -0.00006267,0.00007686,0.,0.00013187,0.,0.00000001,0.00773077,0.,0.,-0
 .00026072,-0.00000001,0.00000004,0.00559592,0.00000002,0.,0.00288606,0
 .00000009,-0.00000002,-0.00373820,0.,0.,0.00040567,0.,0.00000090,-0.03
 647056,0.00000148,0.,0.00320375,0.00000002,0.,-0.00013083,0.,0.0000055
 3,-0.00000188,-0.00000726,-0.00001062,-0.00001757,-0.00001781,-0.00000
 845,0.00000609,-0.00005757,-0.00000011,-0.00000166,-0.00000107,-0.0000
 0188,-0.00000197,-0.00000060,0.,-0.00000199,0.,0.00000011,-0.00000166,
 0.00000107,0.00000188,-0.00000197,0.00000060,-0.00000553,-0.00000188,0
 .00000726,0.00000845,0.00000609,0.00005757,0.00001062,-0.00001757,0.00
 001781,0.,-0.00114197,0.,0.,0.00073143,0.,-0.00000094,0.02551614,0.000
 09278,0.,0.00001942,-0.00012219,0.,-0.00001020,0.00002984,-0.00002499,
 0.00001966,-0.00006683,0.00011234,-0.00002758,-0.00000694,0.00002944,0
 .00000313,-0.00017987,0.,-0.00005758,-0.00000694,-0.00002944,0.0000031
 3,0.00002984,0.00002499,0.00001966,-0.00006683,-0.00011234,-0.00002758
 ,-0.00121868,0.,-0.00052035,0.00405112,0.00000002,-0.00232511,0.000862
 97,0.,0.00025314,0.00049825,0.00000002,0.00122367,0.00245124,-0.000000
 01,0.00359957,0.00037263,-0.00000002,0.00076197,-0.00019742,0.,0.00018
 843,-0.12110704,0.00000146,-0.27888818,-0.01460111,0.00000014,-0.01841
 198,0.00045252,0.,-0.00023372,0.00002437,-0.00000661,-0.00002390,0.000
 00094,-0.00001410,-0.00000568,0.00002315,-0.00000998,0.00001501,0.0000
 1252,-0.00000737,-0.00000726,-0.00000321,-0.00000186,0.00000422,0.0000
 4144,0.,-0.00006513,0.00001252,0.00000737,-0.00000726,-0.00000321,0.00
 000186,0.00000422,0.00002437,0.00000661,-0.00002390,0.00002315,0.00000
 998,0.00001501,0.00000094,0.00001410,-0.00000568,-0.00008975,0.,-0.000
 03497,0.00017026,0.,0.00020558,0.12841130,-0.00000158,0.29332906,-0.00
 008548,0.,-0.00003077,0.00011287,0.,0.00006448,0.00030533,-0.00016154,
 0.00012774,-0.00052928,0.00038028,0.00005096,-0.00010170,-0.00000851,0
 .00006292,-0.00014804,0.,0.00000631,-0.00010169,0.00000851,0.00006291,
 0.00030532,0.00016153,0.00012774,-0.00052925,-0.00038027,0.00005092,-0
 .00088259,0.,0.00116783,-0.01156794,0.00000006,-0.00024685,0.00047976,
 0.00000004,-0.00293474,0.00070015,0.,-0.00008372,0.00088913,0.00000003
 ,0.00295519,-0.00066405,0.,-0.00021959,-0.00001505,0.,0.00019247,-0.01
 358325,0.00000008,-0.00238131,-0.33812051,0.00000137,-0.01337473,0.000
 26744,0.,-0.00028207,0.00002716,0.00000990,-0.00003548,0.00005939,0.00
 006223,0.00007669,0.00061792,0.00019312,0.00098195,0.00003965,-0.00002
 606,0.00004776,-0.00000160,0.00000610,-0.00000837,0.00004457,0.,-0.000
 03747,0.00003965,0.00002606,0.00004775,-0.00000160,-0.00000611,-0.0000
 0837,0.00002716,-0.00000990,-0.00003547,0.00061790,-0.00019310,0.00098
 190,0.00005939,-0.00006222,0.00007670,-0.00065828,0.,0.00021950,-0.000
 06863,0.,0.00002128,0.00100996,-0.00000003,0.00011348,0.36142109,0.,-0
 .00014083,0.,0.,0.00035770,0.,0.00033640,-0.00014734,0.00025368,-0.000
 35515,0.00011606,-0.00069454,-0.00012860,0.00000609,0.00009056,0.,0.00
 006400,0.,0.00012860,0.00000609,-0.00009056,-0.00033641,-0.00014734,-0
 .00025368,0.00035516,0.00011606,0.00069453,0.,-0.00320858,-0.00000001,
 0.00000018,0.00310768,0.,0.00000002,0.00609948,0.00000006,0.,-0.000440
 91,0.,0.00000002,0.00752603,0.00000003,0.,0.00057652,0.,0.,-0.00019867
 ,0.,-0.00000004,0.00282454,0.,0.00000140,-0.03618892,0.00000016,0.,-0.
 00031417,0.,0.00002808,-0.00000783,-0.00005222,-0.00001040,0.00000788,
 -0.00005625,0.00074886,-0.00047197,-0.00086897,0.00003439,-0.00000479,
 0.00005266,-0.00000627,-0.00001327,-0.00001257,0.,-0.00002304,0.,-0.00
 003439,-0.00000479,-0.00005266,0.00000627,-0.00001327,0.00001257,-0.00
 002808,-0.00000783,0.00005222,-0.00074886,-0.00047198,0.00086893,0.000
 01040,0.00000788,0.00005625,0.00000001,0.00036141,0.,0.,-0.00115067,0.
 ,-0.00000002,-0.00422092,-0.00000002,-0.00000156,0.02601558,-0.0001373
 8,0.,0.00001037,0.00017811,0.,-0.00006617,0.00026511,-0.00005204,0.000
 08522,-0.00018634,-0.00015611,-0.00089952,-0.00011176,0.00000283,0.000
 02827,0.00002985,0.,0.00005357,-0.00011175,-0.00000283,0.00002827,0.00
 026511,0.00005204,0.00008522,-0.00018633,0.00015610,-0.00089948,-0.000
 23567,0.,0.00107719,-0.02846458,0.00000012,0.00447461,-0.00192760,0.00
 000004,-0.00527102,-0.00004069,0.,-0.00119582,0.00226721,0.00000003,-0
 .00419611,0.00146921,0.,0.00029567,-0.00011626,0.,-0.00035765,0.029610
 65,-0.00000013,0.00439379,-0.01435226,0.00000017,-0.06054631,-0.000010
 34,0.,0.00001272,-0.00001261,0.00001346,0.00000553,0.00004986,0.000093
 75,0.00019406,0.00064123,-0.00100439,-0.00082742,0.00003108,-0.0000169
 4,0.00005806,0.00001142,0.00000891,-0.00000441,0.00000800,0.,0.0000296
 8,0.00003108,0.00001694,0.00005806,0.00001142,-0.00000891,-0.00000441,
 -0.00001261,-0.00001346,0.00000553,0.00064120,0.00100435,-0.00082736,0
 .00004986,-0.00009376,0.00019406,-0.00162117,0.,0.00013800,0.00000104,
 0.,0.00014850,-0.00025206,-0.00000002,0.00099708,0.01211003,-0.0000001
 5,0.06253354,-0.00002340,-0.00038532,-0.00000473,0.00023799,0.00098911
 ,0.00000633,0.00043690,-0.00040305,-0.00007513,-0.00140656,-0.00160424
 ,-0.00368798,-0.00103401,-0.00162110,0.00385094,-0.01219886,0.01551589
 ,0.00046331,0.00027016,0.00140917,-0.00075630,-0.00011893,-0.00050651,
 -0.00002291,0.00034161,0.00152573,0.00066315,-0.01226233,0.01540798,-0
 .00087281,0.00005034,-0.00015941,0.00090629,-0.00015474,-0.00064057,0.
 00046278,0.00018259,-0.00001168,-0.00003302,0.00011885,0.00005692,0.00
 002715,0.00000562,0.00000734,0.00002455,0.00000430,-0.00000638,-0.0000
 1079,-0.00011348,0.00001241,0.00012270,-0.00003659,-0.00018716,-0.0003
 1944,-0.13659478,0.11867614,-0.00212879,-0.00001117,-0.00002027,0.0000
 3200,0.00011584,0.00021900,0.00002450,-0.00060285,0.00112982,0.0000341
 3,-0.00058536,0.00106840,-0.00004089,0.00011851,0.00022853,-0.00002761
 ,0.00088797,-0.00036258,-0.00007191,0.00041803,-0.00019687,0.00001278,
 -0.00008116,-0.00097232,0.00020916,-0.00005760,-0.00004044,0.00001251,
 0.00037712,-0.00024725,-0.00002063,-0.00004771,-0.00092414,-0.00023098
 ,-0.00004945,-0.00044699,0.00104373,0.00001477,-0.00002422,-0.00001879
 ,0.00000403,0.00002275,-0.00001481,0.00001755,0.00004295,0.00005398,0.
 14953443,0.00019771,0.00015516,-0.00000441,-0.00027789,-0.00038786,0.0
 0001049,-0.00013159,0.00012761,0.00001275,-0.00014405,0.00095496,0.000
 76605,-0.00042343,0.00106694,-0.00066395,-0.00067836,-0.00053883,-0.00
 043139,-0.00066990,0.00061030,0.00033218,0.00012664,0.00000573,-0.0000
 1194,-0.00070639,0.00055758,-0.00023052,-0.00060362,-0.00076165,0.0004
 1656,0.00046536,0.00013858,-0.00042881,0.00103312,0.00056968,0.0004719
 1,-0.00044342,0.00004511,-0.00028128,-0.00000474,-0.00007695,-0.000062
 70,-0.00005233,-0.00001548,-0.00004709,0.00001777,0.00001081,-0.000018
 51,0.00005520,-0.00000088,-0.00010723,-0.00017227,-0.00000621,0.000304
 92,0.11876971,-0.21711878,0.00199973,0.00003651,-0.00003947,0.00000248
 ,-0.00012954,0.00043303,-0.00014667,0.00038815,0.00012773,-0.00008856,
 0.00036461,0.00010319,0.00010259,-0.00012612,0.00042883,0.00013027,-0.
 00001711,0.00011413,-0.00052042,-0.00003067,0.00020427,-0.00010607,0.0
 0018254,0.00051224,0.00007797,0.00000142,0.00002129,0.00001121,0.00001
 163,0.00020573,0.00011059,0.00015236,0.00050255,-0.00011061,-0.0007701
 3,-0.00045187,-0.00003974,-0.00000604,0.00002972,0.00003593,-0.0000169
 3,0.00000015,0.00001254,-0.00007173,-0.00000792,-0.00008114,-0.1319390
 8,0.23356877,-0.00001855,0.00002473,-0.00002014,0.00002525,-0.00006684
 ,-0.00005738,0.00006375,-0.00007377,-0.00043689,-0.00297434,-0.0010109
 6,-0.00522842,0.00319130,0.00139390,-0.00507768,0.01742619,-0.02345622
 ,-0.00028179,-0.00060453,-0.00102128,0.00102005,-0.00003077,0.00001180
 ,-0.00024586,0.00070625,0.00113341,0.00093525,-0.01630462,0.02292529,-
 0.00031611,-0.00029389,0.00037551,0.00149035,0.00030581,0.00017008,-0.
 00042233,0.00019347,-0.00007294,-0.00026133,0.00022647,-0.00002745,0.0
 0017369,0.00004719,0.00001570,-0.00001308,-0.00002346,-0.00000725,0.00
 002740,-0.00016936,-0.00000792,0.00020244,-0.00011973,-0.00027488,-0.0
 0024007,-0.00208346,0.00082692,-0.04745540,0.00002212,-0.00000085,0.00
 027256,0.00019615,-0.00023525,-0.00001282,-0.00141686,0.00146650,0.000
 16786,0.00140029,-0.00142136,0.00007838,-0.00025562,0.00031796,-0.0000
 0320,-0.00077315,-0.00023462,0.00096887,-0.00042002,-0.00002983,-0.000
 07189,-0.00004856,0.00073230,0.00003540,-0.00000407,0.00000373,0.00008
 551,0.00034562,-0.00003817,-0.00006430,0.00005718,-0.00068016,0.000072
 11,0.00088036,0.00092858,-0.00116210,0.00000241,0.00003989,-0.00001527
 ,-0.00000258,0.00003328,0.00000706,0.00006621,0.00007082,0.00009435,-0
 .00004067,-0.00161390,0.05623641,-0.00002340,0.00038532,-0.00000473,0.
 00023799,-0.00098911,0.00000633,-0.00011893,0.00050651,-0.00002291,0.0
 0034161,-0.00152573,0.00066315,0.00027017,-0.00140917,-0.00075630,-0.0
 1219885,-0.01551588,0.00046329,-0.00103401,0.00162109,0.00385093,0.000
 43690,0.00040305,-0.00007513,-0.00140656,0.00160424,-0.00368797,-0.012
 26231,-0.01540796,-0.00087280,0.00005035,0.00015941,0.00090630,-0.0001
 5472,0.00064056,0.00046276,0.00018258,0.00001168,-0.00003303,0.0001188
 5,-0.00005692,0.00002715,0.00000561,-0.00000734,0.00002455,0.00000430,
 0.00000638,-0.00001079,-0.00011349,-0.00001241,0.00012270,-0.00003659,
 0.00018716,-0.00031945,-0.13659479,-0.11867616,-0.00212891,-0.00005760
 ,0.00004044,0.00001251,-0.00004771,0.00092413,-0.00023097,0.00037712,0
 .00024725,-0.00002063,0.00041803,0.00019687,0.00001278,-0.00008116,0.0
 0097233,0.00020916,0.00088797,0.00036258,-0.00007191,-0.00058536,-0.00
 106840,-0.00004089,0.00011851,-0.00022853,-0.00002761,-0.00001117,0.00
 002027,0.00003200,-0.00060285,-0.00112981,0.00003413,0.00011584,-0.000
 21900,0.00002450,-0.00004945,0.00044698,0.00104369,0.00001477,0.000024
 22,-0.00001879,0.00000403,-0.00002275,-0.00001482,0.00001754,-0.000042
 95,0.00005398,0.01224237,0.01561259,0.00042823,0.14953437,-0.00019771,
 0.00015516,0.00000441,0.00027789,-0.00038786,-0.00001049,-0.00012664,0
 .00000573,0.00001194,0.00070639,0.00055758,0.00023051,0.00066990,0.000
 61030,-0.00033219,0.00067834,-0.00053886,0.00043139,0.00042343,0.00106
 694,0.00066395,0.00013159,0.00012761,-0.00001275,0.00014405,0.00095495
 ,-0.00076605,0.00060365,-0.00076162,-0.00041656,-0.00046536,0.00013858
 ,0.00042881,-0.00103310,0.00056968,-0.00047190,0.00044342,0.00004511,0
 .00028127,0.00000474,-0.00007695,0.00006270,0.00005233,-0.00001548,0.0
 0004709,-0.00001777,0.00001081,0.00001851,-0.00005520,-0.00000088,0.00
 010723,0.00017226,-0.00000621,-0.00030493,-0.11876973,-0.21711880,-0.0
 0199991,-0.00000142,0.00002129,-0.00001121,-0.00015236,0.00050255,0.00
 011061,-0.00001163,0.00020573,-0.00011059,0.00003067,0.00020427,0.0001
 0607,-0.00018254,0.00051224,-0.00007797,0.00001711,0.00011413,0.000520
 42,-0.00036461,0.00010319,-0.00010259,0.00012612,0.00042883,-0.0001302
 7,-0.00003651,-0.00003947,-0.00000248,-0.00038815,0.00012774,0.0000885
 6,0.00012954,0.00043303,0.00014666,0.00077011,-0.00045189,0.00003974,0
 .00000604,0.00002972,-0.00003593,0.00001692,0.00000015,-0.00001254,0.0
 0007173,-0.00000793,0.00008114,-0.01561258,-0.02108818,-0.00019677,0.1
 3193909,0.23356880,-0.00001855,-0.00002473,-0.00002014,0.00002525,0.00
 006684,-0.00005738,-0.00003077,-0.00001180,-0.00024586,0.00070625,-0.0
 0113341,0.00093525,-0.00060453,0.00102129,0.00102005,0.01742617,0.0234
 5622,-0.00028176,0.00319130,-0.00139390,-0.00507768,0.00006375,0.00007
 377,-0.00043689,-0.00297434,0.00101096,-0.00522842,-0.01630458,-0.0229
 2528,-0.00031612,-0.00029390,-0.00037552,0.00149036,0.00030580,-0.0001
 7008,-0.00042231,0.00019347,0.00007294,-0.00026133,0.00022647,0.000027
 45,0.00017370,0.00004719,-0.00001570,-0.00001308,-0.00002346,0.0000072
 5,0.00002740,-0.00016937,0.00000791,0.00020244,-0.00011973,0.00027489,
 -0.00024008,-0.00208359,-0.00082712,-0.04745544,-0.00000407,-0.0000037
 3,0.00008551,0.00005718,0.00068016,0.00007211,0.00034562,0.00003817,-0
 .00006430,-0.00042002,0.00002983,-0.00007189,-0.00004856,-0.00073230,0
 .00003540,-0.00077315,0.00023462,0.00096887,0.00140029,0.00142136,0.00
 007838,-0.00025562,-0.00031796,-0.00000320,0.00002212,0.00000085,0.000
 27256,-0.00141686,-0.00146650,0.00016787,0.00019615,0.00023525,-0.0000
 1282,0.00088033,-0.00092857,-0.00116206,0.00000241,-0.00003989,-0.0000
 1527,-0.00000258,-0.00003328,0.00000706,0.00006621,-0.00007082,0.00009
 435,0.00042821,0.00019675,-0.00048163,-0.00004050,0.00161409,0.0562363
 6\\0.00009104,0.,0.00000550,-0.00020610,0.00000003,0.00010985,-0.00001
 128,-0.00004538,-0.00013992,0.00000272,-0.00000185,0.00008972,0.000040
 09,-0.00002301,0.00000377,0.00001355,-0.00000013,0.00005517,0.00004041
 ,0.00002361,0.00000433,-0.00001135,0.00004535,-0.00014010,0.00000308,0
 .00000162,0.00008963,-0.00001025,-0.00000021,0.00004107,0.00004265,0.0
 0000012,-0.00003082,0.00001690,0.00000018,0.00001984,0.00001557,-0.000
 00013,-0.00003618,0.00003467,-0.00000011,0.00003029,0.00001219,0.00000
 013,0.00000245,0.00000457,-0.00000004,-0.00003431,-0.00005167,0.000000
 09,0.00000863,-0.00001776,-0.00000008,-0.00000107,-0.00001895,-0.00000
 015,0.00001915,-0.00000900,0.00000803,0.00000668,0.00000789,0.00002735
 ,-0.00000540,-0.00000274,0.00001918,-0.00000283,-0.00000353,0.00001494
 ,-0.00000642,-0.00000711,0.00002138,-0.00001028,0.00002112,-0.00000005
 ,-0.00000776,-0.00000350,-0.00001499,-0.00000660,-0.00000710,-0.000021
 56,-0.00001035,-0.00000901,-0.00000803,0.00000660,-0.00000267,-0.00001
 906,-0.00000290,0.00000770,-0.00002706,-0.00000540,-0.00001708,-0.0000
 0009,-0.00003100,0.00000103,0.00000002,-0.00000492,0.00000984,-0.00000
 005,-0.00000566,0.00002711,-0.00000004,0.00001153,-0.00000150,-0.00000
 499,-0.00001110,-0.00000152,0.00000500,-0.00001116\\\@


 BLACK HOLES SUCK.
 Job cpu time:       0 days  0 hours  7 minutes 41.8 seconds.
 Elapsed time:       0 days  0 hours  8 minutes 53.1 seconds.
 File lengths (MBytes):  RWF=    428 Int=      0 D2E=      0 Chk=     11 Scr=      1
 Normal termination of Gaussian 16 at Fri Feb 23 22:20:54 2024.
