 Entering Gaussian System, Link 0=g16
 Input=/Volumes/SSD-PMU3/b3lyp_6-31gd_freq/AIIGSEOEGNKCAQ-YNFQOJQRSA-N_calculating/gaussianinput0.gjf
 Output=/Volumes/SSD-PMU3/b3lyp_6-31gd_freq/AIIGSEOEGNKCAQ-YNFQOJQRSA-N_calculating/gaussianinput0.log
 Initial command:
 /Applications/g16/l1.exe "/Users/macmini_m1_2022/PycharmProjects/sphere_model/sphere_model_lib/Gau-61434.inp" -scrdir="/Users/macmini_m1_2022/PycharmProjects/sphere_model/sphere_model_lib/"
 Entering Link 1 = /Applications/g16/l1.exe PID=     61435.
  
 Copyright (c) 1988,1990,1992,1993,1995,1998,2003,2009,2016,
            Gaussian, Inc.  All Rights Reserved.
  
 This is part of the Gaussian(R) 16 program.  It is based on
 the Gaussian(R) 09 system (copyright 2009, Gaussian, Inc.),
 the Gaussian(R) 03 system (copyright 2003, Gaussian, Inc.),
 the Gaussian(R) 98 system (copyright 1998, Gaussian, Inc.),
 the Gaussian(R) 94 system (copyright 1995, Gaussian, Inc.),
 the Gaussian 92(TM) system (copyright 1992, Gaussian, Inc.),
 the Gaussian 90(TM) system (copyright 1990, Gaussian, Inc.),
 the Gaussian 88(TM) system (copyright 1988, Gaussian, Inc.),
 the Gaussian 86(TM) system (copyright 1986, Carnegie Mellon
 University), and the Gaussian 82(TM) system (copyright 1983,
 Carnegie Mellon University). Gaussian is a federally registered
 trademark of Gaussian, Inc.
  
 This software contains proprietary and confidential information,
 including trade secrets, belonging to Gaussian, Inc.
  
 This software is provided under written license and may be
 used, copied, transmitted, or stored only in accord with that
 written license.
  
 The following legend is applicable only to US Government
 contracts under FAR:
  
                    RESTRICTED RIGHTS LEGEND
  
 Use, reproduction and disclosure by the US Government is
 subject to restrictions as set forth in subparagraphs (a)
 and (c) of the Commercial Computer Software - Restricted
 Rights clause in FAR 52.227-19.
  
 Gaussian, Inc.
 340 Quinnipiac St., Bldg. 40, Wallingford CT 06492
  
  
 ---------------------------------------------------------------
 Warning -- This program may not be used in any manner that
 competes with the business of Gaussian, Inc. or will provide
 assistance to any competitor of Gaussian, Inc.  The licensee
 of this program is prohibited from giving any competitor of
 Gaussian, Inc. access to this program.  By using this program,
 the user acknowledges that Gaussian, Inc. is engaged in the
 business of creating and licensing software in the field of
 computational chemistry and represents and warrants to the
 licensee that it is not a competitor of Gaussian, Inc. and that
 it will not use this program in any manner prohibited above.
 ---------------------------------------------------------------
  

 Cite this work as:
 Gaussian 16, Revision A.03,
 M. J. Frisch, G. W. Trucks, H. B. Schlegel, G. E. Scuseria, 
 M. A. Robb, J. R. Cheeseman, G. Scalmani, V. Barone, 
 G. A. Petersson, H. Nakatsuji, X. Li, M. Caricato, A. V. Marenich, 
 J. Bloino, B. G. Janesko, R. Gomperts, B. Mennucci, H. P. Hratchian, 
 J. V. Ortiz, A. F. Izmaylov, J. L. Sonnenberg, D. Williams-Young, 
 F. Ding, F. Lipparini, F. Egidi, J. Goings, B. Peng, A. Petrone, 
 T. Henderson, D. Ranasinghe, V. G. Zakrzewski, J. Gao, N. Rega, 
 G. Zheng, W. Liang, M. Hada, M. Ehara, K. Toyota, R. Fukuda, 
 J. Hasegawa, M. Ishida, T. Nakajima, Y. Honda, O. Kitao, H. Nakai, 
 T. Vreven, K. Throssell, J. A. Montgomery, Jr., J. E. Peralta, 
 F. Ogliaro, M. J. Bearpark, J. J. Heyd, E. N. Brothers, K. N. Kudin, 
 V. N. Staroverov, T. A. Keith, R. Kobayashi, J. Normand, 
 K. Raghavachari, A. P. Rendell, J. C. Burant, S. S. Iyengar, 
 J. Tomasi, M. Cossi, J. M. Millam, M. Klene, C. Adamo, R. Cammi, 
 J. W. Ochterski, R. L. Martin, K. Morokuma, O. Farkas, 
 J. B. Foresman, and D. J. Fox, Gaussian, Inc., Wallingford CT, 2016.
 
 ******************************************
 Gaussian 16:  EM64M-G16RevA.03 25-Dec-2016
                22-Feb-2024 
 ******************************************
 %nprocshared=8
 Will use up to    8 processors via shared memory.
 %mem=8GB
 %chk= 0.chk
 ---------------------
 # freq b3lyp/6-31g(d)
 ---------------------
 1/10=4,30=1,38=1/1,3;
 2/12=2,17=6,18=5,40=1/2;
 3/5=1,6=6,7=1,11=2,25=1,30=1,71=2,74=-5,140=1/1,2,3;
 4//1;
 5/5=2,38=5,98=1/2;
 8/6=4,10=90,11=11/1;
 11/6=1,8=1,9=11,15=111,16=1/1,2,10;
 10/6=1/2;
 6/7=2,8=2,9=2,10=2,28=1/1;
 7/8=1,10=1,25=1/1,2,3,16;
 1/10=4,30=1/3;
 99//99;
 ---------
 good luck
 ---------
 Symbolic Z-matrix:
 Charge =  0 Multiplicity = 1
 O                     1.20711   0.        0. 
 C                     0.        0.        0. 
 C                    -1.00762  -1.15865  -0.00531 
 C                    -1.74758  -0.80483  -1.32461 
 C                    -3.04372  -1.51685  -1.61639 
 C                    -3.46794  -2.65854  -1.07152 
 C                    -1.82279   0.79739  -1.2926 
 C                    -3.20531   1.3844   -1.34603 
 C                    -3.59627   2.30889  -2.22557 
 C                    -1.00782   1.15621  -0.00531 
 C                    -1.79924   0.79024   1.27021 
 C                    -1.87027  -0.77869   1.22662 
 H                    -0.56489  -2.15531   0.01727 
 H                    -1.06906  -1.05727  -2.1536 
 H                    -3.65144  -1.05135  -2.39294 
 H                    -2.90788  -3.18115  -0.30019 
 H                    -4.39755  -3.12265  -1.38982 
 H                    -1.26684   1.18365  -2.15451 
 H                    -3.9264    1.0185   -0.61578 
 H                    -4.60506   2.71288  -2.22121 
 H                    -2.92011   2.69991  -2.98362 
 H                    -0.57973   2.15943  -0.01662 
 H                    -2.78637   1.25838   1.30277 
 H                    -1.25137   1.13266   2.15477 
 H                    -2.89614  -1.14025   1.12749 
 H                    -1.45187  -1.21753   2.13804 
 

 GradGradGradGradGradGradGradGradGradGradGradGradGradGradGradGradGradGrad
 Berny optimization.
 Initialization pass.
 Trust Radius=3.00D-01 FncErr=1.00D-07 GrdErr=1.00D-07 EigMax=2.50D+02 EigMin=1.00D-04
 Number of steps in this run=      2 maximum allowed number of steps=      2.
 GradGradGradGradGradGradGradGradGradGradGradGradGradGradGradGradGradGrad

                          Input orientation:                          
 ---------------------------------------------------------------------
 Center     Atomic      Atomic             Coordinates (Angstroms)
 Number     Number       Type             X           Y           Z
 ---------------------------------------------------------------------
      1          8           0        1.207110    0.000000    0.000000
      2          6           0        0.000000    0.000000    0.000000
      3          6           0       -1.007618   -1.158645   -0.005307
      4          6           0       -1.747583   -0.804833   -1.324610
      5          6           0       -3.043717   -1.516851   -1.616386
      6          6           0       -3.467941   -2.658537   -1.071520
      7          6           0       -1.822788    0.797391   -1.292595
      8          6           0       -3.205314    1.384396   -1.346028
      9          6           0       -3.596270    2.308892   -2.225572
     10          6           0       -1.007819    1.156214   -0.005307
     11          6           0       -1.799244    0.790242    1.270212
     12          6           0       -1.870265   -0.778686    1.226621
     13          1           0       -0.564885   -2.155312    0.017266
     14          1           0       -1.069061   -1.057270   -2.153597
     15          1           0       -3.651442   -1.051354   -2.392943
     16          1           0       -2.907881   -3.181155   -0.300193
     17          1           0       -4.397549   -3.122651   -1.389815
     18          1           0       -1.266835    1.183647   -2.154508
     19          1           0       -3.926398    1.018501   -0.615784
     20          1           0       -4.605057    2.712883   -2.221212
     21          1           0       -2.920113    2.699911   -2.983621
     22          1           0       -0.579730    2.159432   -0.016623
     23          1           0       -2.786367    1.258381    1.302766
     24          1           0       -1.251368    1.132658    2.154769
     25          1           0       -2.896138   -1.140252    1.127490
     26          1           0       -1.451867   -1.217533    2.138039
 ---------------------------------------------------------------------
                    Distance matrix (angstroms):
                    1          2          3          4          5
     1  O    0.000000
     2  C    1.207110   0.000000
     3  C    2.499501   1.535507   0.000000
     4  C    3.336549   2.335893   1.553477   0.000000
     5  C    4.794066   3.765336   2.620990   1.507337   0.000000
     6  C    5.483801   4.499176   3.072405   2.541634   1.334276
     7  C    3.389235   2.372591   2.479453   1.604307   2.636517
     8  C    4.816412   3.741976   3.618627   2.630240   2.918294
     9  C    5.775518   4.818434   4.863590   3.731576   3.913149
    10  C    2.498553   1.533805   2.314859   2.476594   3.726356
    11  C    3.357988   2.339915   2.460037   3.046315   3.899210
    12  C    3.403114   2.368299   1.551185   2.554313   3.163000
    13  H    2.790275   2.228175   1.090810   2.241249   3.036620
    14  H    3.307076   2.626536   2.151558   1.100607   2.097398
    15  H    5.516978   4.490496   3.564004   2.196995   1.090439
    16  H    5.209896   4.320374   2.790789   2.835953   2.126199
    17  H    6.564658   5.569647   4.155215   3.521200   2.112531
    18  H    3.487596   2.765465   3.189450   2.207692   3.277129
    19  H    5.269672   4.102820   3.692143   2.928176   2.865020
    20  H    6.787842   5.787924   5.730666   4.619889   4.549093
    21  H    5.764155   4.971778   5.236072   4.050972   4.434602
    22  H    2.802895   2.235958   3.345572   3.444064   4.705904
    23  H    4.385041   3.323336   3.273686   3.498432   4.036036
    24  H    3.459777   2.737127   3.158388   4.013250   4.945101
    25  H    4.405457   3.310442   2.202289   2.728457   2.773529
    26  H    3.622673   2.856837   2.189693   3.499672   4.088922
                    6          7          8          9         10
     6  C    0.000000
     7  C    3.833907   0.000000
     8  C    4.060743   1.502933   0.000000
     9  C    5.101339   2.510044   1.334592   0.000000
    10  C    4.662761   1.565260   2.584296   3.599767   0.000000
    11  C    4.490249   2.562925   3.028987   4.213799   1.545069
    12  C    3.371626   2.971990   3.616601   4.942658   2.450571
    13  H    3.141087   3.466484   4.621685   5.843692   3.341093
    14  H    3.080515   2.179265   3.343273   4.209871   3.085192
    15  H    2.088748   2.823579   2.688483   3.364864   4.190812
    16  H    1.087080   4.241594   4.693239   5.858462   4.744467
    17  H    1.086685   4.691010   4.662276   5.553575   5.631680
    18  H    4.558520   1.095980   2.109891   2.587952   2.164927
    19  H    3.733428   2.220842   1.089540   2.089380   2.984921
    20  H    5.609543   3.503207   2.118987   1.086683   4.502619
    21  H    5.715699   2.771872   2.119818   1.088450   3.861376
    22  H    5.715540   2.242421   3.043302   3.741832   1.090795
    23  H    4.630769   2.806581   2.684680   3.769441   2.210142
    24  H    5.449339   3.510448   4.017071   5.105828   2.173890
    25  H    2.732726   3.280755   3.547919   4.861050   3.181624
    26  H    4.054913   3.995842   4.688639   6.006267   3.228898
                   11         12         13         14         15
    11  C    0.000000
    12  C    1.571139   0.000000
    13  H    3.430715   2.249812   0.000000
    14  H    3.958401   3.485027   2.484459   0.000000
    15  H    4.498980   4.043289   4.068742   2.593456   0.000000
    16  H    4.412170   3.029796   2.577356   3.365598   3.077099
    17  H    5.397931   4.327479   4.195824   3.990989   2.419341
    18  H    3.488113   3.955618   4.044500   2.249628   3.276955
    19  H    2.851994   3.294240   4.666220   3.852021   2.741933
    20  H    4.874339   5.617623   6.710670   5.169322   3.886947
    21  H    4.795652   5.561381   6.174594   4.269864   3.867264
    22  H    2.240054   3.441464   4.314903   3.892721   5.038994
    23  H    1.092989   2.234879   4.270924   4.500869   4.443140
    24  H    1.095380   2.213081   3.981322   4.836428   5.586765
    25  H    2.224939   1.092233   2.774470   3.756412   3.601643
    26  H    2.214713   1.094681   2.482709   4.311654   5.039399
                   16         17         18         19         20
    16  H    0.000000
    17  H    1.846567   0.000000
    18  H    5.018268   5.378692   0.000000
    19  H    4.332907   4.239133   3.077047   0.000000
    20  H    6.427317   5.898113   3.672429   2.430824   0.000000
    21  H    6.464354   6.214923   2.391613   3.073500   1.849452
    22  H    5.832887   6.660465   2.448433   3.586210   4.622746
    23  H    4.721623   5.388816   3.777209   2.244559   4.223935
    24  H    5.232576   6.369473   4.309606   3.852893   5.735290
    25  H    2.490723   3.538498   4.338968   2.959840   5.383387
    26  H    3.452646   4.975165   4.921977   4.325123   6.662871
                   21         22         23         24         25
    21  H    0.000000
    22  H    3.817406   0.000000
    23  H    4.524269   2.724321   0.000000
    24  H    5.625304   2.494054   1.760096   0.000000
    25  H    5.625714   4.190782   2.407532   2.987757   0.000000
    26  H    6.613132   4.099644   2.934062   2.358787   1.764398
                   26
    26  H    0.000000
 Stoichiometry    C11H14O
 Framework group  C1[X(C11H14O)]
 Deg. of freedom    72
 Full point group                 C1      NOp   1
 Largest Abelian subgroup         C1      NOp   1
 Largest concise Abelian subgroup C1      NOp   1
                         Standard orientation:                         
 ---------------------------------------------------------------------
 Center     Atomic      Atomic             Coordinates (Angstroms)
 Number     Number       Type             X           Y           Z
 ---------------------------------------------------------------------
      1          8           0       -2.758707   -0.691105   -1.157264
      2          6           0       -1.769189   -0.424387   -0.519431
      3          6           0       -1.133382    0.927387   -0.164132
      4          6           0        0.255076    0.701017   -0.823094
      5          6           0        1.358793    1.671444   -0.488213
      6          6           0        1.217725    2.896556    0.021192
      7          6           0        0.566191   -0.842941   -0.517798
      8          6           0        1.826607   -1.111433    0.255553
      9          6           0        2.783105   -1.956152   -0.135212
     10          6           0       -0.747448   -1.328831    0.180987
     11          6           0       -0.858598   -0.753733    1.610723
     12          6           0       -1.037954    0.789686    1.377979
     13          1           0       -1.674771    1.801771   -0.527750
     14          1           0        0.111041    0.768855   -1.912125
     15          1           0        2.360061    1.325515   -0.746770
     16          1           0        0.248876    3.308514    0.292051
     17          1           0        2.076829    3.543464    0.177186
     18          1           0        0.647111   -1.371669   -1.474391
     19          1           0        1.956594   -0.570556    1.192385
     20          1           0        3.674985   -2.126871    0.461684
     21          1           0        2.709370   -2.512539   -1.067799
     22          1           0       -0.924985   -2.401629    0.094851
     23          1           0        0.010764   -0.990800    2.229298
     24          1           0       -1.735347   -1.178357    2.111586
     25          1           0       -0.202939    1.365390    1.783303
     26          1           0       -1.953480    1.156074    1.853267
 ---------------------------------------------------------------------
 Rotational constants (GHZ):           1.1525800           0.9240339           0.6779768
 Standard basis: 6-31G(d) (6D, 7F)
 There are   208 symmetry adapted cartesian basis functions of A   symmetry.
 There are   208 symmetry adapted basis functions of A   symmetry.
   208 basis functions,   392 primitive gaussians,   208 cartesian basis functions
    44 alpha electrons       44 beta electrons
       nuclear repulsion energy       708.5631051133 Hartrees.
 NAtoms=   26 NActive=   26 NUniq=   26 SFac= 1.00D+00 NAtFMM=   60 NAOKFM=F Big=F
 Integral buffers will be    131072 words long.
 Raffenetti 2 integral format.
 Two-electron integral symmetry is turned on.
 One-electron integrals computed using PRISM.
 NBasis=   208 RedAO= T EigKep=  1.14D-03  NBF=   208
 NBsUse=   208 1.00D-06 EigRej= -1.00D+00 NBFU=   208
 ExpMin= 1.61D-01 ExpMax= 5.48D+03 ExpMxC= 8.25D+02 IAcc=3 IRadAn=         5 AccDes= 0.00D+00
 Harris functional with IExCor=  402 and IRadAn=       5 diagonalized for initial guess.
 HarFok:  IExCor=  402 AccDes= 0.00D+00 IRadAn=         5 IDoV= 1 UseB2=F ITyADJ=14
 ICtDFT=  3500011 ScaDFX=  1.000000  1.000000  1.000000  1.000000
 FoFCou: FMM=F IPFlag=           0 FMFlag=      100000 FMFlg1=           0
         NFxFlg=           0 DoJE=T BraDBF=F KetDBF=T FulRan=T
         wScrn=  0.000000 ICntrl=       500 IOpCl=  0 I1Cent=   200000004 NGrid=           0
         NMat0=    1 NMatS0=      1 NMatT0=    0 NMatD0=    1 NMtDS0=    0 NMtDT0=    0
 Petite list used in FoFCou.
 Requested convergence on RMS density matrix=1.00D-08 within 128 cycles.
 Requested convergence on MAX density matrix=1.00D-06.
 Requested convergence on             energy=1.00D-06.
 No special actions if energy rises.
 Integral accuracy reduced to 1.0D-05 until final iterations.
 Initial convergence to 1.0D-05 achieved.  Increase integral accuracy.
 SCF Done:  E(RB3LYP) =  -502.751109919     A.U. after   14 cycles
            NFock= 14  Conv=0.95D-08     -V/T= 2.0096
 DoSCS=F DFT=T ScalE2(SS,OS)=  1.000000  1.000000
 Range of M.O.s used for correlation:     1   208
 NBasis=   208 NAE=    44 NBE=    44 NFC=     0 NFV=     0
 NROrb=    208 NOA=    44 NOB=    44 NVA=   164 NVB=   164
 Symmetrizing basis deriv contribution to polar:
 IMax=3 JMax=2 DiffMx= 0.00D+00
 G2DrvN: will do    27 centers at a time, making    1 passes.
 Calling FoFCou, ICntrl=  3107 FMM=F I1Cent=   0 AccDes= 0.00D+00.
 End of G2Drv F.D. properties file   721 does not exist.
 End of G2Drv F.D. properties file   722 does not exist.
 End of G2Drv F.D. properties file   788 does not exist.
          IDoAtm=11111111111111111111111111
          Differentiating once with respect to electric field.
                with respect to dipole field.
          Differentiating once with respect to nuclear coordinates.
 Keep R1 ints in memory in canonical form, NReq=244543355.
          There are    81 degrees of freedom in the 1st order CPHF.  IDoFFX=6 NUNeed=     3.
     78 vectors produced by pass  0 Test12= 8.91D-15 1.23D-09 XBig12= 9.44D+01 3.71D+00.
 AX will form    78 AO Fock derivatives at one time.
     78 vectors produced by pass  1 Test12= 8.91D-15 1.23D-09 XBig12= 1.04D+01 6.10D-01.
     78 vectors produced by pass  2 Test12= 8.91D-15 1.23D-09 XBig12= 1.53D-01 3.65D-02.
     78 vectors produced by pass  3 Test12= 8.91D-15 1.23D-09 XBig12= 1.02D-03 3.83D-03.
     78 vectors produced by pass  4 Test12= 8.91D-15 1.23D-09 XBig12= 1.34D-06 1.57D-04.
     46 vectors produced by pass  5 Test12= 8.91D-15 1.23D-09 XBig12= 9.78D-10 3.38D-06.
      4 vectors produced by pass  6 Test12= 8.91D-15 1.23D-09 XBig12= 6.64D-13 8.22D-08.
      1 vectors produced by pass  7 Test12= 8.91D-15 1.23D-09 XBig12= 4.65D-16 2.21D-09.
 InvSVY:  IOpt=1 It=  1 EMax= 5.33D-15
 Solved reduced A of dimension   441 with    81 vectors.
 Isotropic polarizability for W=    0.000000      109.07 Bohr**3.
 End of Minotr F.D. properties file   721 does not exist.
 End of Minotr F.D. properties file   722 does not exist.
 End of Minotr F.D. properties file   788 does not exist.

 **********************************************************************

            Population analysis using the SCF density.

 **********************************************************************

 Orbital symmetries:
       Occupied  (A) (A) (A) (A) (A) (A) (A) (A) (A) (A) (A) (A)
                 (A) (A) (A) (A) (A) (A) (A) (A) (A) (A) (A) (A)
                 (A) (A) (A) (A) (A) (A) (A) (A) (A) (A) (A) (A)
                 (A) (A) (A) (A) (A) (A) (A) (A)
       Virtual   (A) (A) (A) (A) (A) (A) (A) (A) (A) (A) (A) (A)
                 (A) (A) (A) (A) (A) (A) (A) (A) (A) (A) (A) (A)
                 (A) (A) (A) (A) (A) (A) (A) (A) (A) (A) (A) (A)
                 (A) (A) (A) (A) (A) (A) (A) (A) (A) (A) (A) (A)
                 (A) (A) (A) (A) (A) (A) (A) (A) (A) (A) (A) (A)
                 (A) (A) (A) (A) (A) (A) (A) (A) (A) (A) (A) (A)
                 (A) (A) (A) (A) (A) (A) (A) (A) (A) (A) (A) (A)
                 (A) (A) (A) (A) (A) (A) (A) (A) (A) (A) (A) (A)
                 (A) (A) (A) (A) (A) (A) (A) (A) (A) (A) (A) (A)
                 (A) (A) (A) (A) (A) (A) (A) (A) (A) (A) (A) (A)
                 (A) (A) (A) (A) (A) (A) (A) (A) (A) (A) (A) (A)
                 (A) (A) (A) (A) (A) (A) (A) (A) (A) (A) (A) (A)
                 (A) (A) (A) (A) (A) (A) (A) (A) (A) (A) (A) (A)
                 (A) (A) (A) (A) (A) (A) (A) (A)
 The electronic state is 1-A.
 Alpha  occ. eigenvalues --  -19.14354 -10.26989 -10.20822 -10.20736 -10.19681
 Alpha  occ. eigenvalues --  -10.19602 -10.19532 -10.19477 -10.19387 -10.19203
 Alpha  occ. eigenvalues --  -10.18657 -10.18348  -1.04158  -0.88134  -0.79330
 Alpha  occ. eigenvalues --   -0.78440  -0.73219  -0.72574  -0.66694  -0.63015
 Alpha  occ. eigenvalues --   -0.57855  -0.56763  -0.53612  -0.52666  -0.50268
 Alpha  occ. eigenvalues --   -0.47431  -0.46331  -0.44978  -0.43950  -0.42117
 Alpha  occ. eigenvalues --   -0.41192  -0.40152  -0.39584  -0.38388  -0.36772
 Alpha  occ. eigenvalues --   -0.36374  -0.35404  -0.34595  -0.33701  -0.33379
 Alpha  occ. eigenvalues --   -0.30887  -0.26706  -0.25415  -0.23031
 Alpha virt. eigenvalues --   -0.01465   0.00993   0.01816   0.07858   0.10037
 Alpha virt. eigenvalues --    0.11703   0.12124   0.12430   0.13385   0.14602
 Alpha virt. eigenvalues --    0.15461   0.15926   0.16830   0.17728   0.19247
 Alpha virt. eigenvalues --    0.19308   0.19953   0.20994   0.21946   0.22792
 Alpha virt. eigenvalues --    0.22955   0.23782   0.27646   0.28530   0.29876
 Alpha virt. eigenvalues --    0.32095   0.34064   0.36131   0.36972   0.38546
 Alpha virt. eigenvalues --    0.47658   0.51013   0.52858   0.53986   0.55624
 Alpha virt. eigenvalues --    0.56250   0.57075   0.58161   0.58531   0.59016
 Alpha virt. eigenvalues --    0.61652   0.61906   0.63070   0.64233   0.64795
 Alpha virt. eigenvalues --    0.65893   0.66695   0.67855   0.69293   0.69430
 Alpha virt. eigenvalues --    0.71757   0.72063   0.76533   0.76959   0.80225
 Alpha virt. eigenvalues --    0.82372   0.82586   0.83908   0.84554   0.85182
 Alpha virt. eigenvalues --    0.85734   0.87010   0.87862   0.88379   0.89629
 Alpha virt. eigenvalues --    0.90519   0.92092   0.92605   0.93259   0.94821
 Alpha virt. eigenvalues --    0.95750   0.96825   0.99026   0.99386   1.02052
 Alpha virt. eigenvalues --    1.03100   1.09218   1.12286   1.12736   1.15098
 Alpha virt. eigenvalues --    1.19981   1.21991   1.23955   1.24822   1.31181
 Alpha virt. eigenvalues --    1.34360   1.38473   1.43872   1.45771   1.47798
 Alpha virt. eigenvalues --    1.49122   1.55374   1.56501   1.58376   1.62776
 Alpha virt. eigenvalues --    1.66747   1.68106   1.70256   1.70748   1.72626
 Alpha virt. eigenvalues --    1.73874   1.75322   1.78769   1.79480   1.81238
 Alpha virt. eigenvalues --    1.84251   1.85810   1.88047   1.89011   1.92698
 Alpha virt. eigenvalues --    1.94803   1.96009   1.97481   1.98129   2.01591
 Alpha virt. eigenvalues --    2.02132   2.05497   2.06654   2.11362   2.12596
 Alpha virt. eigenvalues --    2.15362   2.16066   2.17259   2.20256   2.23095
 Alpha virt. eigenvalues --    2.25731   2.26710   2.30835   2.33429   2.35945
 Alpha virt. eigenvalues --    2.38937   2.40501   2.44617   2.46085   2.46828
 Alpha virt. eigenvalues --    2.52244   2.54033   2.60368   2.61921   2.66130
 Alpha virt. eigenvalues --    2.67058   2.68262   2.70567   2.73183   2.76073
 Alpha virt. eigenvalues --    2.78874   2.81035   2.87809   2.90097   2.98302
 Alpha virt. eigenvalues --    3.02162   3.07013   4.08817   4.13088   4.13754
 Alpha virt. eigenvalues --    4.19070   4.26804   4.31644   4.42787   4.49248
 Alpha virt. eigenvalues --    4.50462   4.67912   4.77650   5.00274
          Condensed to atoms (all electrons):
               1          2          3          4          5          6
     1  O    7.960883   0.595201  -0.062507   0.000030  -0.000048   0.000000
     2  C    0.595201   4.648092   0.302583  -0.052425   0.003293   0.000172
     3  C   -0.062507   0.302583   5.246349   0.352131  -0.034621  -0.007019
     4  C    0.000030  -0.052425   0.352131   5.096305   0.394879  -0.039358
     5  C   -0.000048   0.003293  -0.034621   0.394879   4.811903   0.665027
     6  C    0.000000   0.000172  -0.007019  -0.039358   0.665027   5.034705
     7  C    0.000793  -0.056618  -0.050413   0.306705  -0.036603   0.002761
     8  C   -0.000049   0.003782  -0.001733  -0.039037  -0.005171   0.000646
     9  C   -0.000000  -0.000044  -0.000066   0.000692  -0.000385   0.000048
    10  C   -0.061495   0.294117  -0.151649  -0.055224   0.001086  -0.000011
    11  C    0.001119  -0.057168  -0.050802  -0.015525   0.000699   0.000083
    12  C    0.001546  -0.060686   0.362303  -0.032073  -0.012315  -0.003892
    13  H    0.001299  -0.027735   0.354849  -0.028125  -0.002220   0.001326
    14  H    0.000769   0.000852  -0.044851   0.361894  -0.041890  -0.002094
    15  H    0.000000  -0.000091   0.004371  -0.052498   0.362566  -0.047764
    16  H    0.000001   0.000005   0.005784  -0.012986  -0.034997   0.369018
    17  H    0.000000  -0.000002   0.000033   0.004990  -0.021608   0.363768
    18  H    0.000570   0.001077   0.004523  -0.032841   0.001957  -0.000154
    19  H   -0.000000   0.000018   0.000217  -0.003688   0.003870  -0.000057
    20  H   -0.000000   0.000002   0.000002  -0.000141  -0.000007  -0.000000
    21  H    0.000000  -0.000010  -0.000004   0.000136   0.000014  -0.000001
    22  H    0.001100  -0.027789   0.006484   0.005557  -0.000051   0.000001
    23  H   -0.000060   0.004476   0.001283   0.001205  -0.000088   0.000006
    24  H    0.000526   0.000626   0.001948  -0.000036  -0.000016  -0.000001
    25  H   -0.000069   0.003684  -0.031382  -0.011950   0.009300   0.007324
    26  H    0.000303   0.000803  -0.032912   0.004645   0.000223   0.000009
               7          8          9         10         11         12
     1  O    0.000793  -0.000049  -0.000000  -0.061495   0.001119   0.001546
     2  C   -0.056618   0.003782  -0.000044   0.294117  -0.057168  -0.060686
     3  C   -0.050413  -0.001733  -0.000066  -0.151649  -0.050802   0.362303
     4  C    0.306705  -0.039037   0.000692  -0.055224  -0.015525  -0.032073
     5  C   -0.036603  -0.005171  -0.000385   0.001086   0.000699  -0.012315
     6  C    0.002761   0.000646   0.000048  -0.000011   0.000083  -0.003892
     7  C    5.089770   0.400833  -0.027897   0.354219  -0.034130  -0.014663
     8  C    0.400833   4.781994   0.664701  -0.038407  -0.011137   0.000650
     9  C   -0.027897   0.664701   5.035735  -0.000053  -0.000190   0.000043
    10  C    0.354219  -0.038407  -0.000053   5.253521   0.361407  -0.052767
    11  C   -0.034130  -0.011137  -0.000190   0.361407   5.095125   0.342024
    12  C   -0.014663   0.000650   0.000043  -0.052767   0.342024   5.105850
    13  H    0.005615  -0.000037   0.000001   0.006681   0.005236  -0.034050
    14  H   -0.037618   0.004278  -0.000047   0.003375  -0.000026   0.005706
    15  H   -0.005748   0.008211   0.001531   0.000197   0.000024   0.000070
    16  H    0.000121  -0.000005  -0.000001   0.000002   0.000034  -0.000183
    17  H   -0.000105  -0.000005   0.000001   0.000002  -0.000004   0.000060
    18  H    0.363923  -0.047596  -0.007301  -0.042177   0.005384  -0.000124
    19  H   -0.052041   0.365868  -0.048328  -0.004524   0.001915  -0.000089
    20  H    0.004403  -0.022854   0.363716  -0.000138   0.000008  -0.000001
    21  H   -0.011987  -0.035874   0.368480   0.000085   0.000016  -0.000001
    22  H   -0.031250   0.000652   0.000842   0.356503  -0.032945   0.005559
    23  H   -0.013029   0.008208   0.000532  -0.027455   0.367471  -0.030184
    24  H    0.005096   0.000143  -0.000019  -0.036476   0.370469  -0.029640
    25  H    0.000227   0.000075   0.000002   0.000109  -0.027998   0.367219
    26  H   -0.000100  -0.000023  -0.000000   0.002579  -0.028809   0.369294
              13         14         15         16         17         18
     1  O    0.001299   0.000769   0.000000   0.000001   0.000000   0.000570
     2  C   -0.027735   0.000852  -0.000091   0.000005  -0.000002   0.001077
     3  C    0.354849  -0.044851   0.004371   0.005784   0.000033   0.004523
     4  C   -0.028125   0.361894  -0.052498  -0.012986   0.004990  -0.032841
     5  C   -0.002220  -0.041890   0.362566  -0.034997  -0.021608   0.001957
     6  C    0.001326  -0.002094  -0.047764   0.369018   0.363768  -0.000154
     7  C    0.005615  -0.037618  -0.005748   0.000121  -0.000105   0.363923
     8  C   -0.000037   0.004278   0.008211  -0.000005  -0.000005  -0.047596
     9  C    0.000001  -0.000047   0.001531  -0.000001   0.000001  -0.007301
    10  C    0.006681   0.003375   0.000197   0.000002   0.000002  -0.042177
    11  C    0.005236  -0.000026   0.000024   0.000034  -0.000004   0.005384
    12  C   -0.034050   0.005706   0.000070  -0.000183   0.000060  -0.000124
    13  H    0.578612  -0.003384  -0.000092   0.001296  -0.000002  -0.000210
    14  H   -0.003384   0.600579   0.001223   0.000237  -0.000185  -0.010913
    15  H   -0.000092   0.001223   0.590636   0.005745  -0.007907   0.000517
    16  H    0.001296   0.000237   0.005745   0.566145  -0.042864  -0.000003
    17  H   -0.000002  -0.000185  -0.007907  -0.042864   0.561685   0.000003
    18  H   -0.000210  -0.010913   0.000517  -0.000003   0.000003   0.611668
    19  H   -0.000009  -0.000034  -0.000038  -0.000019   0.000020   0.005572
    20  H   -0.000000   0.000003   0.000058   0.000000   0.000000   0.000095
    21  H    0.000000  -0.000027  -0.000032  -0.000000   0.000000   0.007721
    22  H   -0.000149  -0.000251  -0.000004  -0.000000  -0.000000  -0.004356
    23  H   -0.000073  -0.000005  -0.000014   0.000003   0.000000   0.000076
    24  H   -0.000181   0.000010  -0.000000  -0.000000   0.000000  -0.000155
    25  H    0.000449   0.000274  -0.000282  -0.000368   0.000006   0.000000
    26  H   -0.003514  -0.000165   0.000004   0.000133   0.000001   0.000009
              19         20         21         22         23         24
     1  O   -0.000000  -0.000000   0.000000   0.001100  -0.000060   0.000526
     2  C    0.000018   0.000002  -0.000010  -0.027789   0.004476   0.000626
     3  C    0.000217   0.000002  -0.000004   0.006484   0.001283   0.001948
     4  C   -0.003688  -0.000141   0.000136   0.005557   0.001205  -0.000036
     5  C    0.003870  -0.000007   0.000014  -0.000051  -0.000088  -0.000016
     6  C   -0.000057  -0.000000  -0.000001   0.000001   0.000006  -0.000001
     7  C   -0.052041   0.004403  -0.011987  -0.031250  -0.013029   0.005096
     8  C    0.365868  -0.022854  -0.035874   0.000652   0.008208   0.000143
     9  C   -0.048328   0.363716   0.368480   0.000842   0.000532  -0.000019
    10  C   -0.004524  -0.000138   0.000085   0.356503  -0.027455  -0.036476
    11  C    0.001915   0.000008   0.000016  -0.032945   0.367471   0.370469
    12  C   -0.000089  -0.000001  -0.000001   0.005559  -0.030184  -0.029640
    13  H   -0.000009  -0.000000   0.000000  -0.000149  -0.000073  -0.000181
    14  H   -0.000034   0.000003  -0.000027  -0.000251  -0.000005   0.000010
    15  H   -0.000038   0.000058  -0.000032  -0.000004  -0.000014  -0.000000
    16  H   -0.000019   0.000000  -0.000000  -0.000000   0.000003  -0.000000
    17  H    0.000020   0.000000   0.000000  -0.000000   0.000000   0.000000
    18  H    0.005572   0.000095   0.007721  -0.004356   0.000076  -0.000155
    19  H    0.594159  -0.007287   0.005851  -0.000205   0.001950  -0.000008
    20  H   -0.007287   0.560969  -0.042247  -0.000013   0.000028  -0.000000
    21  H    0.005851  -0.042247   0.566955   0.000016  -0.000001   0.000001
    22  H   -0.000205  -0.000013   0.000016   0.577908   0.000573  -0.002921
    23  H    0.001950   0.000028  -0.000001   0.000573   0.575197  -0.035658
    24  H   -0.000008  -0.000000   0.000001  -0.002921  -0.035658   0.578547
    25  H    0.000914  -0.000001   0.000000  -0.000087  -0.008216   0.003697
    26  H    0.000002   0.000000   0.000000  -0.000170   0.003304  -0.009776
              25         26
     1  O   -0.000069   0.000303
     2  C    0.003684   0.000803
     3  C   -0.031382  -0.032912
     4  C   -0.011950   0.004645
     5  C    0.009300   0.000223
     6  C    0.007324   0.000009
     7  C    0.000227  -0.000100
     8  C    0.000075  -0.000023
     9  C    0.000002  -0.000000
    10  C    0.000109   0.002579
    11  C   -0.027998  -0.028809
    12  C    0.367219   0.369294
    13  H    0.000449  -0.003514
    14  H    0.000274  -0.000165
    15  H   -0.000282   0.000004
    16  H   -0.000368   0.000133
    17  H    0.000006   0.000001
    18  H    0.000000   0.000009
    19  H    0.000914   0.000002
    20  H   -0.000001   0.000000
    21  H    0.000000   0.000000
    22  H   -0.000087  -0.000170
    23  H   -0.008216   0.003304
    24  H    0.003697  -0.009776
    25  H    0.564531  -0.034567
    26  H   -0.034567   0.577737
 Mulliken charges:
               1
     1  O   -0.439914
     2  C    0.423784
     3  C   -0.174902
     4  C   -0.153263
     5  C   -0.064799
     6  C   -0.344542
     7  C   -0.162263
     8  C   -0.038111
     9  C   -0.351995
    10  C   -0.163508
    11  C   -0.292282
    12  C   -0.289654
    13  H    0.144416
    14  H    0.162288
    15  H    0.139317
    16  H    0.142904
    17  H    0.142111
    18  H    0.142735
    19  H    0.135972
    20  H    0.143405
    21  H    0.140909
    22  H    0.144995
    23  H    0.150471
    24  H    0.153826
    25  H    0.157108
    26  H    0.150990
 Sum of Mulliken charges =  -0.00000
 Mulliken charges with hydrogens summed into heavy atoms:
               1
     1  O   -0.439914
     2  C    0.423784
     3  C   -0.030485
     4  C    0.009025
     5  C    0.074518
     6  C   -0.059527
     7  C   -0.019528
     8  C    0.097861
     9  C   -0.067681
    10  C   -0.018512
    11  C    0.012015
    12  C    0.018444
 APT charges:
               1
     1  O   -0.670116
     2  C    0.778665
     3  C   -0.102013
     4  C    0.106982
     5  C    0.048464
     6  C   -0.103617
     7  C    0.110940
     8  C    0.027294
     9  C   -0.084139
    10  C   -0.094951
    11  C    0.090270
    12  C    0.083414
    13  H   -0.027458
    14  H   -0.069179
    15  H   -0.001094
    16  H    0.029694
    17  H    0.016661
    18  H   -0.057519
    19  H    0.007201
    20  H    0.018091
    21  H    0.020840
    22  H   -0.031424
    23  H   -0.017731
    24  H   -0.035790
    25  H   -0.005730
    26  H   -0.037755
 Sum of APT charges =   0.00000
 APT charges with hydrogens summed into heavy atoms:
               1
     1  O   -0.670116
     2  C    0.778665
     3  C   -0.129471
     4  C    0.037803
     5  C    0.047371
     6  C   -0.057262
     7  C    0.053421
     8  C    0.034495
     9  C   -0.045208
    10  C   -0.126375
    11  C    0.036749
    12  C    0.039928
 Electronic spatial extent (au):  <R**2>=           1931.5729
 Charge=             -0.0000 electrons
 Dipole moment (field-independent basis, Debye):
    X=              2.2892    Y=              0.5331    Z=              1.3738  Tot=              2.7225
 Quadrupole moment (field-independent basis, Debye-Ang):
   XX=            -78.5871   YY=            -70.6642   ZZ=            -72.0940
   XY=             -3.3202   XZ=             -5.1259   YZ=              0.1549
 Traceless Quadrupole moment (field-independent basis, Debye-Ang):
   XX=             -4.8053   YY=              3.1176   ZZ=              1.6878
   XY=             -3.3202   XZ=             -5.1259   YZ=              0.1549
 Octapole moment (field-independent basis, Debye-Ang**2):
  XXX=             24.1471  YYY=              1.7036  ZZZ=             -3.0885  XYY=             -1.2338
  XXY=              5.9072  XXZ=             17.8278  XZZ=              1.5294  YZZ=             -3.2891
  YYZ=             -0.1472  XYZ=              5.8329
 Hexadecapole moment (field-independent basis, Debye-Ang**3):
 XXXX=          -1237.0156 YYYY=           -965.8926 ZZZZ=           -412.3345 XXXY=            -28.7582
 XXXZ=            -28.1232 YYYX=             12.2801 YYYZ=             24.6666 ZZZX=              4.6569
 ZZZY=              3.6596 XXYY=           -341.8181 XXZZ=           -278.4187 YYZZ=           -239.8416
 XXYZ=            -11.2105 YYXZ=             -1.3023 ZZXY=             -8.1933
 N-N= 7.085631051133D+02 E-N=-2.583167985457D+03  KE= 4.979596938489D+02
  Exact polarizability: 121.219  -8.326 117.779   0.537  10.253  88.219
 Approx polarizability: 172.675 -13.535 168.049   5.130  22.686 136.875
 Calling FoFJK, ICntrl=    100127 FMM=F ISym2X=0 I1Cent= 0 IOpClX= 0 NMat=1 NMatS=1 NMatT=0.
 Full mass-weighted force constant matrix:
 Low frequencies ---   -0.8296    0.0004    0.0005    0.0007    6.3191    9.7535
 Low frequencies ---   62.3944   82.1758  108.3828
 Diagonal vibrational polarizability:
        5.7961132       8.1569424       7.3188858
 Harmonic frequencies (cm**-1), IR intensities (KM/Mole), Raman scattering
 activities (A**4/AMU), depolarization ratios for plane and unpolarized
 incident light, reduced masses (AMU), force constants (mDyne/A),
 and normal coordinates:
                      1                      2                      3
                      A                      A                      A
 Frequencies --     62.3786                82.1750               108.3828
 Red. masses --      3.2864                 2.9745                 3.1248
 Frc consts  --      0.0075                 0.0118                 0.0216
 IR Inten    --      0.3578                 0.1132                 0.7761
  Atom  AN      X      Y      Z        X      Y      Z        X      Y      Z
     1   8    -0.05   0.11   0.02    -0.04   0.04  -0.00    -0.08  -0.07   0.11
     2   6    -0.02   0.04  -0.00    -0.03   0.01  -0.00    -0.02  -0.03  -0.01
     3   6     0.02  -0.01   0.08     0.01  -0.01  -0.00    -0.02   0.00  -0.09
     4   6    -0.03   0.01  -0.04     0.00  -0.06   0.01    -0.02   0.01  -0.08
     5   6    -0.02   0.02  -0.15     0.04  -0.09  -0.01     0.00  -0.02  -0.09
     6   6     0.02  -0.01  -0.08     0.09  -0.09  -0.02     0.11  -0.15   0.25
     7   6     0.01   0.02  -0.04    -0.04  -0.06   0.05     0.01   0.02  -0.05
     8   6    -0.03   0.09   0.06    -0.04  -0.03   0.06     0.02   0.09  -0.03
     9   6    -0.01   0.06   0.21     0.16   0.28  -0.10     0.00   0.04   0.07
    10   6    -0.01  -0.04  -0.11    -0.07  -0.02   0.02     0.03   0.02  -0.02
    11   6    -0.01  -0.16  -0.06    -0.10  -0.00   0.01     0.03   0.06  -0.03
    12   6     0.13  -0.13   0.07    -0.00   0.00  -0.00    -0.05   0.05  -0.08
    13   1     0.02   0.03   0.18     0.04   0.01  -0.02    -0.04  -0.02  -0.12
    14   1    -0.14  -0.01  -0.03     0.01  -0.09   0.00    -0.02  -0.01  -0.08
    15   1    -0.04   0.06  -0.30     0.02  -0.14  -0.02    -0.04   0.05  -0.37
    16   1     0.05  -0.05   0.07     0.11  -0.05  -0.01     0.17  -0.20   0.55
    17   1     0.03   0.01  -0.16     0.12  -0.12  -0.03     0.15  -0.19   0.23
    18   1     0.10   0.02  -0.03    -0.02  -0.08   0.06     0.02  -0.01  -0.03
    19   1    -0.09   0.19   0.02    -0.19  -0.22   0.19     0.03   0.20  -0.10
    20   1    -0.04   0.12   0.29     0.17   0.33  -0.11     0.00   0.10   0.09
    21   1     0.06  -0.04   0.27     0.32   0.48  -0.24    -0.00  -0.08   0.14
    22   1    -0.02  -0.03  -0.20    -0.11  -0.01   0.03     0.05   0.01   0.02
    23   1    -0.06  -0.30  -0.04    -0.15  -0.05   0.06     0.06   0.13  -0.05
    24   1    -0.08  -0.13  -0.14    -0.15   0.05  -0.03     0.06   0.03   0.00
    25   1     0.23  -0.25   0.03     0.03  -0.04  -0.01    -0.09   0.09  -0.06
    26   1     0.22  -0.06   0.18     0.02   0.07  -0.01    -0.09   0.00  -0.12
                      4                      5                      6
                      A                      A                      A
 Frequencies --    126.6923               190.1612               229.0118
 Red. masses --      4.7007                 2.9424                 2.4087
 Frc consts  --      0.0445                 0.0627                 0.0744
 IR Inten    --      2.5065                 0.2388                 0.0941
  Atom  AN      X      Y      Z        X      Y      Z        X      Y      Z
     1   8    -0.23   0.04   0.30    -0.01  -0.09   0.01     0.00   0.05  -0.06
     2   6    -0.01   0.01  -0.04    -0.02  -0.04  -0.01    -0.04   0.02   0.02
     3   6     0.06  -0.01  -0.12    -0.07  -0.00   0.04    -0.01  -0.00   0.00
     4   6     0.11  -0.00  -0.01    -0.04   0.07   0.06    -0.03  -0.04  -0.04
     5   6     0.06   0.01   0.16     0.05  -0.03   0.06    -0.01  -0.12   0.13
     6   6    -0.08   0.08  -0.05     0.27   0.07  -0.12    -0.05  -0.07  -0.00
     7   6     0.07  -0.01  -0.04    -0.01   0.07  -0.02    -0.07  -0.05  -0.09
     8   6     0.02  -0.06   0.03    -0.01   0.07  -0.02    -0.05   0.07  -0.08
     9   6     0.07  -0.02   0.05    -0.04   0.02   0.01     0.02   0.07   0.09
    10   6     0.04  -0.01  -0.12     0.02  -0.01  -0.03    -0.03  -0.01   0.00
    11   6    -0.03  -0.03  -0.12     0.01  -0.05  -0.01     0.17   0.03   0.00
    12   6    -0.03  -0.02  -0.11    -0.16  -0.06   0.04     0.06   0.02  -0.00
    13   1     0.09  -0.00  -0.13    -0.10  -0.02   0.05    -0.01   0.00   0.01
    14   1     0.22   0.05  -0.02    -0.05   0.12   0.06    -0.01   0.06  -0.03
    15   1     0.13  -0.03   0.47     0.01  -0.23   0.16     0.03  -0.23   0.43
    16   1    -0.15   0.12  -0.36     0.34   0.30  -0.22    -0.09   0.03  -0.30
    17   1    -0.12   0.11   0.10     0.40  -0.09  -0.16    -0.04  -0.13   0.18
    18   1     0.13   0.02  -0.05     0.01   0.11  -0.04    -0.09  -0.06  -0.08
    19   1    -0.05  -0.13   0.08     0.01   0.11  -0.05    -0.07   0.23  -0.17
    20   1     0.02  -0.05   0.11    -0.04   0.02   0.02     0.01   0.26   0.15
    21   1     0.16   0.05  -0.00    -0.06  -0.01   0.04     0.09  -0.11   0.19
    22   1     0.03  -0.01  -0.14     0.07  -0.01  -0.06    -0.07  -0.00   0.04
    23   1    -0.06  -0.03  -0.08     0.06   0.02  -0.06     0.28   0.09  -0.14
    24   1    -0.05  -0.04  -0.17     0.08  -0.16   0.01     0.28   0.01   0.18
    25   1    -0.06  -0.01  -0.06    -0.26   0.04   0.12     0.03   0.09  -0.04
    26   1    -0.07  -0.04  -0.17    -0.25  -0.20  -0.02     0.05  -0.05   0.02
                      7                      8                      9
                      A                      A                      A
 Frequencies --    245.4211               293.2006               357.8748
 Red. masses --      2.2681                 1.9489                 2.8514
 Frc consts  --      0.0805                 0.0987                 0.2152
 IR Inten    --      0.7544                 0.0728                 0.9972
  Atom  AN      X      Y      Z        X      Y      Z        X      Y      Z
     1   8     0.01  -0.16   0.01     0.01  -0.04  -0.01    -0.01  -0.02  -0.01
     2   6    -0.01  -0.05   0.00    -0.01  -0.00   0.01    -0.03   0.01   0.02
     3   6    -0.03  -0.00  -0.03    -0.02   0.01   0.00    -0.05   0.01   0.04
     4   6    -0.03   0.05  -0.03    -0.02   0.04  -0.01    -0.04   0.02   0.03
     5   6    -0.01   0.01   0.08    -0.02   0.05  -0.04    -0.05   0.06   0.01
     6   6     0.06   0.03   0.04     0.01   0.04   0.02     0.04   0.07   0.01
     7   6    -0.03   0.05  -0.02    -0.01   0.01  -0.05    -0.02  -0.06  -0.10
     8   6    -0.06   0.02   0.00    -0.12  -0.15   0.08     0.05  -0.13  -0.18
     9   6    -0.07   0.02  -0.01    -0.01   0.01   0.04     0.22  -0.09   0.09
    10   6     0.01   0.01  -0.00     0.01   0.01  -0.03    -0.02   0.01   0.01
    11   6    -0.07   0.01  -0.01     0.15   0.02  -0.02    -0.09   0.04   0.01
    12   6     0.20   0.03  -0.03     0.01   0.01  -0.00    -0.01   0.05   0.04
    13   1    -0.07  -0.01   0.01    -0.04   0.01   0.02    -0.04   0.02   0.02
    14   1     0.03   0.08  -0.04    -0.04   0.03  -0.01    -0.06   0.07   0.04
    15   1    -0.00  -0.09   0.24    -0.04   0.06  -0.11    -0.07   0.06  -0.08
    16   1     0.07   0.16  -0.10     0.04   0.03   0.10     0.10   0.13   0.13
    17   1     0.11  -0.06   0.14     0.03   0.02  -0.02     0.10   0.03  -0.10
    18   1    -0.03   0.05  -0.02     0.03   0.05  -0.07    -0.17  -0.01  -0.14
    19   1    -0.10  -0.05   0.05    -0.34  -0.46   0.29    -0.04  -0.08  -0.19
    20   1    -0.10  -0.06   0.02    -0.16  -0.17   0.21     0.10   0.16   0.34
    21   1    -0.05   0.09  -0.05     0.25   0.31  -0.16     0.54  -0.26   0.17
    22   1     0.04   0.00  -0.01     0.02   0.01  -0.02    -0.07   0.02   0.05
    23   1    -0.20  -0.14   0.12     0.24   0.09  -0.13    -0.16  -0.00   0.11
    24   1    -0.22   0.15  -0.16     0.26  -0.03   0.10    -0.16   0.07  -0.09
    25   1     0.43  -0.15  -0.25    -0.05   0.09  -0.00     0.05  -0.01  -0.02
    26   1     0.40   0.26   0.17    -0.02  -0.09   0.01     0.04   0.12   0.09
                     10                     11                     12
                      A                      A                      A
 Frequencies --    378.0999               407.9637               464.9306
 Red. masses --      2.9998                 3.1818                 3.5225
 Frc consts  --      0.2527                 0.3120                 0.4486
 IR Inten    --      2.4368                 2.2863                 6.6474
  Atom  AN      X      Y      Z        X      Y      Z        X      Y      Z
     1   8     0.12  -0.06   0.08    -0.04   0.07  -0.03     0.04   0.22   0.02
     2   6     0.10   0.05   0.05    -0.03   0.02  -0.02     0.09  -0.11   0.07
     3   6     0.04   0.07   0.07    -0.14   0.02   0.04     0.02  -0.14  -0.08
     4   6     0.00   0.03  -0.07    -0.15   0.00  -0.02    -0.04   0.02  -0.14
     5   6     0.07  -0.10  -0.05    -0.14  -0.11  -0.01    -0.09   0.06  -0.02
     6   6    -0.08  -0.14  -0.04    -0.01  -0.10  -0.01     0.05   0.07   0.04
     7   6     0.01   0.07  -0.12     0.12   0.08   0.06     0.00   0.01  -0.05
     8   6    -0.06   0.01  -0.07     0.17  -0.00   0.09    -0.04   0.02  -0.05
     9   6    -0.03   0.01   0.02     0.09  -0.08  -0.01    -0.04   0.01   0.01
    10   6     0.09   0.07  -0.02     0.09   0.04  -0.06     0.09  -0.11   0.13
    11   6    -0.10   0.00   0.00     0.02   0.04  -0.05    -0.04  -0.03   0.11
    12   6    -0.09   0.02   0.09     0.00   0.05   0.01    -0.02  -0.05  -0.07
    13   1     0.02   0.06   0.07    -0.16  -0.00   0.02    -0.17  -0.27  -0.11
    14   1    -0.14   0.10  -0.04    -0.21  -0.08  -0.02    -0.03   0.00  -0.14
    15   1     0.09  -0.15   0.11    -0.15  -0.29   0.21    -0.07  -0.02   0.19
    16   1    -0.18  -0.24  -0.24     0.02   0.09  -0.21     0.11   0.30  -0.10
    17   1    -0.18  -0.07   0.18     0.10  -0.30   0.18     0.19  -0.16   0.22
    18   1    -0.04   0.05  -0.12     0.23   0.09   0.06    -0.07  -0.06  -0.02
    19   1    -0.23  -0.14   0.04     0.19  -0.19   0.20    -0.17  -0.11   0.05
    20   1    -0.18  -0.12   0.21     0.04  -0.32  -0.02    -0.15  -0.12   0.14
    21   1     0.15   0.14  -0.07     0.03   0.10  -0.11     0.08   0.13  -0.07
    22   1     0.08   0.08  -0.06     0.14   0.03  -0.02     0.24  -0.13   0.18
    23   1    -0.23  -0.04   0.18    -0.01   0.03  -0.01    -0.13   0.03   0.26
    24   1    -0.21  -0.05  -0.23    -0.00   0.02  -0.11    -0.11   0.00   0.01
    25   1    -0.15   0.01   0.22     0.08   0.02  -0.11    -0.07  -0.00  -0.05
    26   1    -0.15  -0.02  -0.02     0.08   0.07   0.15    -0.07  -0.02  -0.19
                     13                     14                     15
                      A                      A                      A
 Frequencies --    526.8220               553.0603               630.1569
 Red. masses --      2.3638                 3.3326                 2.7742
 Frc consts  --      0.3865                 0.6006                 0.6491
 IR Inten    --      2.4745                 1.1809                 3.9561
  Atom  AN      X      Y      Z        X      Y      Z        X      Y      Z
     1   8    -0.00   0.07   0.00    -0.16   0.02  -0.11    -0.06   0.00  -0.05
     2   6     0.04  -0.09  -0.00    -0.14  -0.10  -0.05    -0.04  -0.12  -0.00
     3   6    -0.04  -0.07   0.04    -0.05  -0.06  -0.01     0.02  -0.06   0.14
     4   6    -0.00  -0.05   0.17     0.06   0.09   0.00     0.04  -0.03  -0.02
     5   6     0.00  -0.08   0.10     0.23  -0.00  -0.04     0.07   0.10  -0.11
     6   6    -0.01  -0.03  -0.04    -0.01  -0.05  -0.02     0.02   0.05   0.04
     7   6     0.02  -0.00  -0.07     0.01   0.15   0.00     0.05  -0.11  -0.07
     8   6    -0.04   0.04  -0.03     0.05   0.03  -0.06    -0.05  -0.04   0.07
     9   6    -0.06   0.03  -0.00     0.04  -0.03   0.01    -0.03   0.03  -0.01
    10   6     0.11  -0.06  -0.05     0.00  -0.00   0.09     0.04  -0.06  -0.08
    11   6     0.01   0.08  -0.06    -0.00  -0.00   0.12    -0.01   0.11  -0.06
    12   6     0.00   0.08  -0.01     0.01  -0.04   0.02    -0.02   0.11   0.13
    13   1    -0.05  -0.14  -0.11    -0.11  -0.07   0.06     0.02  -0.09   0.05
    14   1     0.04   0.09   0.17     0.06   0.13   0.00    -0.18  -0.07   0.01
    15   1    -0.06   0.06  -0.31     0.22  -0.01  -0.06     0.13   0.02   0.22
    16   1     0.02  -0.19   0.33    -0.19  -0.39  -0.12    -0.05   0.09  -0.27
    17   1    -0.08   0.18  -0.55    -0.25   0.23   0.11     0.01  -0.05   0.49
    18   1     0.06   0.08  -0.11    -0.06   0.14   0.00     0.16  -0.10  -0.07
    19   1    -0.13   0.02  -0.00    -0.01  -0.16   0.06    -0.01   0.16  -0.06
    20   1    -0.10  -0.04   0.04    -0.13  -0.20   0.21     0.15   0.19  -0.24
    21   1    -0.04   0.09  -0.03     0.21   0.10  -0.08    -0.23  -0.09   0.08
    22   1     0.18  -0.08   0.09     0.26  -0.05   0.15     0.11  -0.09   0.14
    23   1    -0.09   0.07   0.06     0.03   0.03   0.09    -0.08   0.01   0.01
    24   1    -0.07   0.09  -0.19     0.03  -0.01   0.17    -0.06   0.09  -0.17
    25   1     0.07   0.05  -0.12     0.07  -0.05  -0.09    -0.04   0.13   0.15
    26   1     0.07   0.12   0.09     0.07   0.05   0.09    -0.05   0.06   0.11
                     16                     17                     18
                      A                      A                      A
 Frequencies --    645.3785               718.0033               747.5233
 Red. masses --      2.5378                 2.3910                 3.3396
 Frc consts  --      0.6228                 0.7262                 1.0995
 IR Inten    --      0.7341                 7.5374                 3.9071
  Atom  AN      X      Y      Z        X      Y      Z        X      Y      Z
     1   8    -0.09  -0.06  -0.06    -0.06  -0.00  -0.03     0.05   0.01  -0.02
     2   6    -0.10   0.03  -0.04    -0.03   0.04  -0.08    -0.12   0.09   0.20
     3   6     0.14  -0.02   0.03    -0.00   0.02  -0.04    -0.18   0.02  -0.05
     4   6     0.06  -0.14  -0.05     0.02   0.01  -0.04     0.03  -0.03  -0.16
     5   6    -0.11  -0.01   0.05    -0.05  -0.03   0.03     0.10   0.01   0.09
     6   6    -0.00   0.03   0.01    -0.01  -0.02  -0.01     0.02   0.05   0.01
     7   6     0.07  -0.02  -0.08     0.01   0.04  -0.00     0.06  -0.14  -0.13
     8   6     0.06   0.11  -0.04    -0.10  -0.13   0.05     0.06   0.02   0.09
     9   6    -0.03   0.00   0.01    -0.01   0.02  -0.01     0.01   0.00   0.01
    10   6     0.01   0.05   0.02     0.18   0.14   0.05     0.02   0.04   0.01
    11   6    -0.01   0.03   0.07     0.05  -0.01   0.07     0.02  -0.05   0.02
    12   6     0.02  -0.00   0.08     0.01  -0.08   0.03    -0.05  -0.02  -0.00
    13   1     0.41   0.17   0.09     0.07   0.11   0.06    -0.26  -0.03  -0.06
    14   1     0.04  -0.04  -0.04     0.09   0.01  -0.05     0.12   0.12  -0.16
    15   1    -0.08   0.10   0.01    -0.06   0.00  -0.05     0.11   0.12  -0.08
    16   1     0.12   0.23   0.15     0.04   0.03   0.09    -0.02  -0.14   0.14
    17   1     0.14  -0.12  -0.19     0.03  -0.04  -0.16    -0.10   0.27  -0.22
    18   1     0.07  -0.12  -0.03    -0.06  -0.00   0.01     0.13  -0.27  -0.05
    19   1    -0.13  -0.08   0.10     0.03   0.12  -0.11    -0.07   0.07   0.08
    20   1    -0.20  -0.38   0.15     0.22   0.48  -0.23     0.12  -0.21  -0.20
    21   1     0.03   0.27  -0.15    -0.11  -0.27   0.17    -0.26   0.13  -0.05
    22   1     0.02   0.04   0.07     0.37   0.10   0.09    -0.20   0.08  -0.04
    23   1    -0.05  -0.03   0.11    -0.11  -0.04   0.29    -0.09  -0.03   0.19
    24   1    -0.04   0.02   0.01    -0.09  -0.08  -0.21    -0.06  -0.08  -0.16
    25   1    -0.09   0.06   0.23    -0.02  -0.02   0.01     0.01  -0.02  -0.13
    26   1    -0.10  -0.04  -0.12    -0.01  -0.09   0.01     0.03  -0.02   0.15
                     19                     20                     21
                      A                      A                      A
 Frequencies --    772.6970               793.1220               828.4101
 Red. masses --      2.4954                 2.9352                 2.4794
 Frc consts  --      0.8778                 1.0879                 1.0025
 IR Inten    --      1.0839                 4.1691                 6.6714
  Atom  AN      X      Y      Z        X      Y      Z        X      Y      Z
     1   8     0.01  -0.00  -0.04     0.01  -0.00  -0.04     0.04   0.01  -0.01
     2   6    -0.10  -0.09   0.17    -0.13   0.07   0.16    -0.07  -0.00   0.16
     3   6     0.12  -0.00   0.03    -0.03   0.05  -0.01     0.01  -0.10  -0.02
     4   6    -0.04   0.09  -0.08     0.03  -0.11   0.16     0.10  -0.10   0.04
     5   6    -0.02  -0.04   0.06     0.02   0.05  -0.09    -0.03   0.00  -0.03
     6   6    -0.01  -0.02  -0.01     0.01   0.01   0.02    -0.01  -0.01  -0.00
     7   6    -0.02   0.12  -0.00    -0.03  -0.01   0.09     0.07   0.16  -0.05
     8   6     0.01  -0.05   0.06    -0.01   0.04  -0.08    -0.05  -0.05   0.00
     9   6     0.04  -0.02  -0.00    -0.03   0.01  -0.01    -0.01   0.01  -0.01
    10   6    -0.06  -0.06  -0.02     0.10   0.00   0.05    -0.04   0.07  -0.08
    11   6    -0.00   0.01  -0.07     0.08  -0.04  -0.12    -0.07  -0.04   0.04
    12   6     0.08   0.05  -0.06     0.02  -0.03  -0.14    -0.07   0.04  -0.01
    13   1     0.04  -0.03   0.10     0.14   0.14  -0.04     0.13  -0.11  -0.20
    14   1    -0.02   0.18  -0.07     0.02  -0.29   0.15     0.08  -0.11   0.04
    15   1    -0.05  -0.02  -0.09     0.05  -0.02   0.10     0.00   0.04   0.06
    16   1     0.01  -0.06   0.10    -0.03   0.04  -0.15     0.04   0.11   0.01
    17   1    -0.02   0.05  -0.23     0.01  -0.06   0.32     0.09  -0.16   0.05
    18   1     0.04   0.16  -0.02    -0.10   0.05   0.06     0.12   0.20  -0.06
    19   1     0.14  -0.00   0.02    -0.04  -0.05  -0.03     0.07   0.03  -0.06
    20   1     0.15   0.12  -0.12    -0.16  -0.01   0.19     0.04   0.22  -0.02
    21   1    -0.02  -0.11   0.06     0.15   0.01  -0.02     0.05  -0.12   0.06
    22   1     0.07  -0.08  -0.01     0.13  -0.00   0.05     0.07   0.07  -0.26
    23   1    -0.10  -0.18  -0.00    -0.18  -0.13   0.21     0.15   0.19  -0.18
    24   1    -0.13   0.21  -0.12    -0.16   0.08  -0.42     0.16  -0.25   0.25
    25   1    -0.24   0.24   0.33    -0.10   0.10  -0.09     0.18  -0.19  -0.18
    26   1    -0.21  -0.24  -0.41    -0.05  -0.25  -0.11     0.11   0.38   0.08
                     22                     23                     24
                      A                      A                      A
 Frequencies --    862.0037               880.9663               888.3929
 Red. masses --      2.3905                 1.9423                 3.8371
 Frc consts  --      1.0465                 0.8881                 1.7843
 IR Inten    --      2.5490                 0.2315                 3.3637
  Atom  AN      X      Y      Z        X      Y      Z        X      Y      Z
     1   8     0.01   0.02   0.00    -0.01  -0.00   0.01    -0.04  -0.01  -0.04
     2   6     0.02  -0.05   0.01     0.03   0.02  -0.05    -0.06  -0.03   0.02
     3   6    -0.05  -0.03  -0.05    -0.06  -0.03  -0.08     0.06   0.26  -0.06
     4   6     0.06  -0.07  -0.14     0.02  -0.01   0.06    -0.02   0.05  -0.03
     5   6     0.01  -0.01   0.04    -0.01   0.01  -0.03    -0.02  -0.01   0.01
     6   6     0.00   0.02   0.01    -0.00  -0.01   0.00    -0.01  -0.00  -0.00
     7   6    -0.07   0.04   0.14     0.03   0.03  -0.02    -0.02  -0.05   0.04
     8   6    -0.01   0.02  -0.05    -0.01  -0.00  -0.01    -0.01  -0.00  -0.01
     9   6    -0.02  -0.01  -0.02    -0.00   0.00  -0.00    -0.01   0.00  -0.00
    10   6    -0.00   0.07  -0.01    -0.05  -0.01  -0.06     0.13  -0.23   0.02
    11   6     0.01  -0.01  -0.13     0.07  -0.09   0.15    -0.01  -0.20   0.03
    12   6     0.01   0.06   0.17     0.05   0.12   0.06    -0.05   0.22   0.04
    13   1    -0.23  -0.20  -0.19    -0.11  -0.13  -0.23     0.13   0.24  -0.27
    14   1     0.22  -0.19  -0.16     0.10  -0.06   0.05     0.06  -0.01  -0.05
    15   1     0.05   0.12   0.01    -0.02  -0.02  -0.01    -0.01   0.02  -0.00
    16   1     0.04   0.06   0.09    -0.01   0.01  -0.06     0.02   0.04   0.05
    17   1     0.03   0.02  -0.15     0.01  -0.04   0.07     0.02  -0.04  -0.06
    18   1    -0.15  -0.14   0.23     0.10   0.13  -0.07     0.01  -0.00   0.01
    19   1     0.12  -0.09  -0.00    -0.02   0.01  -0.01    -0.02  -0.02   0.00
    20   1    -0.17   0.07   0.22    -0.00   0.02   0.00    -0.02   0.03   0.02
    21   1     0.25  -0.04  -0.02    -0.01  -0.03   0.02     0.02  -0.00   0.00
    22   1     0.17   0.04   0.09    -0.22   0.03  -0.30     0.30  -0.26  -0.10
    23   1     0.03  -0.24  -0.25    -0.11  -0.45   0.28     0.10   0.11   0.00
    24   1     0.02  -0.07  -0.17    -0.18   0.19  -0.05     0.13  -0.38   0.14
    25   1    -0.03   0.06   0.24    -0.16   0.45   0.01     0.13  -0.10   0.13
    26   1    -0.03  -0.10   0.22    -0.11  -0.15  -0.02     0.05   0.39   0.12
                     25                     26                     27
                      A                      A                      A
 Frequencies --    939.5351               946.1193               962.4254
 Red. masses --      1.3551                 1.3563                 1.9059
 Frc consts  --      0.7048                 0.7153                 1.0401
 IR Inten    --     32.7766                36.0077                 3.5960
  Atom  AN      X      Y      Z        X      Y      Z        X      Y      Z
     1   8     0.00   0.00   0.00     0.00   0.00   0.00    -0.00  -0.01   0.00
     2   6     0.00  -0.01   0.00     0.00  -0.00  -0.00    -0.00   0.04  -0.02
     3   6    -0.00   0.01  -0.02    -0.00   0.00  -0.00    -0.04  -0.02   0.11
     4   6     0.01   0.01   0.01    -0.00  -0.00   0.01    -0.04  -0.06  -0.10
     5   6    -0.00  -0.02   0.05    -0.00   0.00  -0.00     0.04  -0.00   0.05
     6   6    -0.02   0.05  -0.15     0.00  -0.00   0.00     0.02   0.05  -0.02
     7   6    -0.01   0.00  -0.01    -0.00   0.00  -0.01     0.04  -0.02   0.09
     8   6     0.01   0.00   0.00     0.03   0.04  -0.03    -0.02   0.01  -0.03
     9   6     0.01  -0.00   0.01    -0.08  -0.13   0.08    -0.07  -0.00  -0.05
    10   6    -0.01   0.00   0.01    -0.00   0.00   0.01     0.05  -0.05  -0.10
    11   6     0.00   0.00  -0.01     0.00  -0.00  -0.00    -0.02   0.02   0.08
    12   6     0.00  -0.00   0.02     0.00   0.00   0.00     0.01   0.01  -0.07
    13   1    -0.01  -0.01  -0.05     0.00  -0.00  -0.02    -0.02   0.08   0.32
    14   1     0.05   0.04   0.01    -0.00   0.00   0.01    -0.13  -0.12  -0.09
    15   1    -0.01   0.02  -0.06     0.00   0.00  -0.00     0.05   0.02   0.04
    16   1     0.07  -0.23   0.61    -0.00   0.01  -0.03    -0.00  -0.16   0.21
    17   1     0.08  -0.29   0.65    -0.00   0.01  -0.01    -0.07   0.16   0.06
    18   1    -0.02   0.01  -0.02    -0.02  -0.01  -0.00     0.20  -0.09   0.14
    19   1    -0.02   0.01   0.00    -0.02  -0.01   0.01     0.16  -0.14   0.03
    20   1     0.03  -0.02  -0.04     0.33   0.50  -0.34    -0.18   0.32   0.22
    21   1    -0.03   0.03  -0.01     0.31   0.53  -0.34     0.31  -0.15   0.02
    22   1    -0.01  -0.00   0.05    -0.00   0.00   0.01    -0.00  -0.02  -0.34
    23   1    -0.01  -0.02  -0.01     0.00  -0.02  -0.01    -0.00   0.16   0.11
    24   1    -0.00   0.01  -0.02    -0.00   0.00  -0.00    -0.01   0.10   0.15
    25   1     0.00  -0.02   0.04    -0.00   0.01  -0.00    -0.04   0.10  -0.08
    26   1     0.00  -0.03   0.03    -0.00  -0.01   0.01    -0.04   0.06  -0.19
                     28                     29                     30
                      A                      A                      A
 Frequencies --    983.4379              1015.7319              1032.7858
 Red. masses --      2.1400                 1.6994                 1.5697
 Frc consts  --      1.2194                 1.0330                 0.9865
 IR Inten    --      0.0951                 0.9559                 5.5990
  Atom  AN      X      Y      Z        X      Y      Z        X      Y      Z
     1   8    -0.01  -0.00  -0.00    -0.00   0.00   0.01     0.01   0.00   0.01
     2   6     0.00  -0.00  -0.01     0.02  -0.01  -0.03     0.02   0.01  -0.03
     3   6     0.08  -0.12   0.03    -0.06   0.01   0.12    -0.01   0.02  -0.02
     4   6    -0.11  -0.02   0.01     0.10  -0.01  -0.02    -0.03  -0.12  -0.03
     5   6     0.01   0.01   0.02     0.03  -0.00  -0.02     0.02   0.03  -0.04
     6   6     0.06   0.05   0.00    -0.08  -0.04  -0.01     0.02   0.03   0.02
     7   6    -0.10  -0.03   0.01    -0.08   0.02   0.01    -0.08   0.10  -0.02
     8   6     0.02   0.00   0.01     0.00  -0.01   0.00     0.02   0.01   0.00
     9   6     0.04  -0.00   0.03     0.05  -0.00   0.04     0.04  -0.01   0.03
    10   6     0.05   0.15  -0.01     0.01   0.00  -0.01    -0.02  -0.06   0.00
    11   6    -0.00  -0.11   0.00    -0.01  -0.04   0.01     0.03   0.03  -0.00
    12   6    -0.00   0.11  -0.04    -0.00   0.05  -0.09    -0.02  -0.02   0.02
    13   1     0.16  -0.10  -0.05    -0.19   0.01   0.32     0.18   0.10  -0.11
    14   1    -0.28   0.06   0.03     0.06   0.03  -0.01    -0.19  -0.13  -0.02
    15   1    -0.06  -0.15  -0.05     0.16   0.26   0.13     0.11  -0.17   0.55
    16   1    -0.08  -0.24  -0.02     0.12   0.31   0.16     0.03  -0.15   0.35
    17   1    -0.16   0.30   0.15     0.19  -0.35  -0.17    -0.07   0.21  -0.19
    18   1    -0.28  -0.18   0.08    -0.26  -0.06   0.03    -0.07   0.16  -0.05
    19   1    -0.05   0.06  -0.01    -0.06   0.14  -0.08    -0.12  -0.15   0.11
    20   1     0.08  -0.22  -0.08     0.10  -0.23  -0.11     0.17  -0.04  -0.17
    21   1    -0.12   0.12  -0.04    -0.14   0.16  -0.05    -0.18  -0.06   0.07
    22   1     0.14   0.14  -0.11     0.19  -0.01  -0.15     0.06  -0.08  -0.02
    23   1     0.07  -0.17  -0.13     0.02  -0.05  -0.03    -0.05   0.04   0.11
    24   1     0.05  -0.28  -0.05    -0.01   0.04   0.07    -0.03   0.11  -0.03
    25   1     0.01   0.11  -0.08    -0.04   0.16  -0.16     0.01  -0.03  -0.04
    26   1    -0.04   0.26  -0.23    -0.02   0.02  -0.10     0.03  -0.08   0.16
                     31                     32                     33
                      A                      A                      A
 Frequencies --   1037.1721              1041.1400              1052.5549
 Red. masses --      1.6470                 1.3926                 1.5421
 Frc consts  --      1.0439                 0.8894                 1.0066
 IR Inten    --      1.7302                 2.8993                24.3800
  Atom  AN      X      Y      Z        X      Y      Z        X      Y      Z
     1   8    -0.01  -0.00  -0.00    -0.00   0.00   0.00    -0.00   0.00  -0.01
     2   6     0.01  -0.00  -0.03     0.02  -0.02  -0.02    -0.01  -0.03   0.02
     3   6     0.02  -0.03   0.06    -0.03   0.04   0.01    -0.05   0.04  -0.02
     4   6     0.02   0.06  -0.01    -0.01  -0.03   0.01     0.01   0.02   0.05
     5   6     0.01   0.00  -0.02    -0.01   0.01  -0.03    -0.02   0.02  -0.05
     6   6    -0.03  -0.02  -0.01     0.01   0.01   0.00     0.01  -0.01  -0.00
     7   6     0.07  -0.01  -0.02     0.09   0.02  -0.04     0.07  -0.06  -0.00
     8   6     0.02   0.04  -0.01    -0.05  -0.07   0.04     0.00   0.03  -0.05
     9   6    -0.04   0.00  -0.03    -0.02   0.01  -0.02    -0.01   0.01   0.01
    10   6    -0.05   0.04   0.10    -0.03   0.01   0.07     0.03   0.06  -0.01
    11   6     0.05  -0.08  -0.05    -0.03  -0.04  -0.01    -0.10  -0.01   0.01
    12   6    -0.06   0.06  -0.05     0.02   0.02  -0.03     0.10   0.00  -0.01
    13   1     0.06  -0.02   0.04    -0.00   0.06  -0.00    -0.25  -0.06   0.05
    14   1    -0.19   0.19   0.02    -0.08  -0.04   0.02     0.18  -0.12   0.02
    15   1     0.07  -0.01   0.23     0.03  -0.16   0.32    -0.01  -0.20   0.29
    16   1     0.06   0.05   0.20     0.01  -0.13   0.19     0.00  -0.12   0.15
    17   1     0.06  -0.11  -0.17    -0.05   0.12  -0.10    -0.03   0.06  -0.09
    18   1     0.15  -0.06   0.02     0.09  -0.06   0.00    -0.02  -0.06  -0.01
    19   1    -0.05  -0.35   0.23     0.30   0.50  -0.34    -0.32  -0.26   0.16
    20   1    -0.04   0.30   0.05    -0.16  -0.10   0.16     0.08   0.09  -0.10
    21   1     0.04  -0.27   0.13     0.21   0.22  -0.16    -0.18  -0.13   0.11
    22   1    -0.23   0.05   0.29     0.02  -0.00   0.19     0.14   0.05  -0.01
    23   1    -0.01  -0.23  -0.02     0.04  -0.15  -0.16     0.11  -0.01  -0.28
    24   1    -0.01  -0.13  -0.19    -0.01   0.01   0.07     0.08  -0.04   0.29
    25   1     0.03   0.07  -0.24    -0.03   0.05   0.04    -0.07   0.03   0.29
    26   1     0.02   0.13   0.05    -0.02  -0.07  -0.04    -0.07  -0.11  -0.25
                     34                     35                     36
                      A                      A                      A
 Frequencies --   1058.7384              1122.7257              1149.0128
 Red. masses --      1.9369                 1.7795                 1.1756
 Frc consts  --      1.2792                 1.3216                 0.9144
 IR Inten    --      2.9650                 5.3832                 2.1919
  Atom  AN      X      Y      Z        X      Y      Z        X      Y      Z
     1   8    -0.01  -0.01  -0.02    -0.00  -0.02   0.00     0.02   0.00   0.01
     2   6    -0.04  -0.00   0.05    -0.01   0.09  -0.03    -0.02   0.03   0.02
     3   6     0.08  -0.06  -0.04    -0.00  -0.07   0.05    -0.01  -0.03  -0.01
     4   6     0.03   0.15   0.03     0.09   0.03  -0.05     0.05   0.05  -0.00
     5   6    -0.02   0.02  -0.07    -0.10  -0.00  -0.00    -0.04   0.00  -0.01
     6   6    -0.03  -0.04  -0.01     0.06   0.00  -0.01     0.01  -0.01  -0.00
     7   6    -0.06  -0.10   0.07     0.05   0.04   0.05     0.00  -0.03  -0.00
     8   6     0.01   0.01   0.00    -0.04  -0.02  -0.06     0.01   0.01   0.01
     9   6    -0.01  -0.00  -0.00     0.02   0.01   0.03    -0.01   0.00  -0.01
    10   6     0.04   0.02  -0.09    -0.01  -0.08   0.05    -0.01  -0.02  -0.02
    11   6     0.04   0.05   0.03     0.03  -0.02  -0.06    -0.03   0.01  -0.00
    12   6    -0.03  -0.03   0.04    -0.03   0.04   0.02    -0.04  -0.01   0.01
    13   1    -0.08  -0.17  -0.06    -0.12  -0.01   0.37     0.30   0.17  -0.01
    14   1     0.08   0.12   0.02     0.46  -0.15  -0.11     0.05   0.27   0.01
    15   1     0.03  -0.25   0.51    -0.20  -0.28  -0.03    -0.09  -0.14  -0.01
    16   1     0.06  -0.06   0.32    -0.08  -0.28  -0.05    -0.03  -0.09  -0.02
    17   1     0.05  -0.09  -0.27    -0.11   0.20   0.07    -0.03   0.04   0.03
    18   1    -0.02  -0.04   0.04    -0.02   0.19  -0.04    -0.10  -0.23   0.10
    19   1     0.14   0.15  -0.09    -0.19   0.09  -0.10     0.01  -0.04   0.03
    20   1    -0.10  -0.09   0.10     0.08  -0.10  -0.10    -0.02   0.03   0.02
    21   1     0.13   0.12  -0.09    -0.16   0.10  -0.01     0.02  -0.03   0.01
    22   1    -0.15   0.06  -0.23    -0.12  -0.07   0.09     0.45  -0.10  -0.06
    23   1    -0.06   0.16   0.22    -0.03   0.08   0.07     0.04  -0.24  -0.18
    24   1    -0.02  -0.05  -0.16     0.02  -0.06  -0.12    -0.04   0.30   0.21
    25   1     0.05  -0.11  -0.00     0.02   0.06  -0.10    -0.03   0.20  -0.30
    26   1     0.02   0.13   0.02    -0.02   0.20  -0.07     0.04  -0.14   0.25
                     37                     38                     39
                      A                      A                      A
 Frequencies --   1158.4992              1168.5119              1184.9214
 Red. masses --      2.9427                 1.7952                 1.4724
 Frc consts  --      2.3270                 1.4442                 1.2180
 IR Inten    --     48.0497                 0.7498                 4.9042
  Atom  AN      X      Y      Z        X      Y      Z        X      Y      Z
     1   8    -0.00  -0.05   0.00    -0.02   0.01  -0.01     0.03   0.00   0.01
     2   6    -0.05   0.28  -0.04    -0.00  -0.06   0.02    -0.02   0.03   0.03
     3   6    -0.01  -0.16  -0.02     0.03  -0.00   0.01    -0.00  -0.03  -0.07
     4   6    -0.04   0.02   0.01    -0.04   0.05  -0.04    -0.08   0.04  -0.01
     5   6     0.08   0.01  -0.00     0.03  -0.01   0.04     0.07  -0.01   0.01
     6   6    -0.05  -0.02  -0.00    -0.01  -0.00  -0.00    -0.03  -0.00   0.00
     7   6     0.01   0.02   0.00     0.14   0.01   0.11     0.01  -0.03   0.06
     8   6    -0.02  -0.02   0.00    -0.07  -0.04  -0.11    -0.02  -0.01  -0.05
     9   6    -0.00   0.00   0.00     0.02   0.02   0.04     0.01   0.00   0.02
    10   6     0.07  -0.11   0.08     0.02   0.02   0.04    -0.01  -0.01  -0.08
    11   6    -0.08  -0.03  -0.09     0.01   0.00  -0.03    -0.01   0.03   0.05
    12   6     0.09   0.02   0.07    -0.03  -0.00  -0.01    -0.01  -0.03   0.04
    13   1    -0.07  -0.34  -0.37     0.22   0.03  -0.21     0.13   0.17   0.21
    14   1    -0.32   0.25   0.06    -0.28  -0.16  -0.02    -0.05  -0.28  -0.03
    15   1     0.12   0.11   0.03     0.05   0.09  -0.04     0.11   0.12   0.01
    16   1     0.05   0.17   0.07     0.02   0.05   0.03     0.04   0.13   0.07
    17   1     0.09  -0.17  -0.08     0.02  -0.03  -0.06     0.04  -0.09  -0.07
    18   1    -0.01   0.05  -0.02    -0.03  -0.08   0.14     0.25   0.28  -0.09
    19   1     0.02   0.04  -0.03    -0.37   0.12  -0.16    -0.11   0.05  -0.07
    20   1     0.01   0.01  -0.02     0.09  -0.11  -0.11     0.03  -0.08  -0.04
    21   1    -0.02   0.01  -0.00    -0.24   0.13  -0.01    -0.07   0.07  -0.02
    22   1     0.09  -0.11   0.03    -0.27   0.10  -0.39     0.17  -0.08   0.48
    23   1     0.02   0.33  -0.08    -0.00   0.00  -0.02     0.05  -0.34  -0.16
    24   1     0.06   0.05   0.22    -0.03   0.22   0.09     0.02  -0.12  -0.03
    25   1    -0.05   0.18   0.12     0.01  -0.03  -0.06    -0.01   0.12  -0.17
    26   1    -0.07  -0.13  -0.12     0.04  -0.18   0.26    -0.02   0.21  -0.15
                     40                     41                     42
                      A                      A                      A
 Frequencies --   1198.4539              1262.1463              1270.7866
 Red. masses --      1.4812                 1.3880                 1.4612
 Frc consts  --      1.2535                 1.3028                 1.3903
 IR Inten    --      0.7260                 0.6292                 1.0685
  Atom  AN      X      Y      Z        X      Y      Z        X      Y      Z
     1   8     0.01   0.02   0.00     0.00  -0.00   0.00    -0.02  -0.01  -0.02
     2   6     0.01  -0.06   0.01    -0.00   0.02  -0.01    -0.02   0.01   0.01
     3   6    -0.09  -0.07  -0.06    -0.00  -0.02  -0.06     0.09   0.02   0.00
     4   6    -0.02   0.01   0.01    -0.07  -0.01   0.04    -0.00  -0.01  -0.01
     5   6     0.02   0.01  -0.02     0.04   0.01  -0.01    -0.01  -0.01   0.01
     6   6    -0.02  -0.01  -0.00    -0.02   0.00   0.00     0.01   0.01   0.00
     7   6    -0.03   0.02  -0.02     0.05   0.02  -0.05    -0.05  -0.02  -0.04
     8   6     0.01   0.00   0.03     0.00  -0.00   0.02     0.03   0.01   0.05
     9   6    -0.01  -0.00  -0.01    -0.01  -0.00  -0.01    -0.01   0.00  -0.01
    10   6     0.08  -0.02   0.04    -0.02  -0.02   0.06     0.13  -0.01   0.04
    11   6    -0.05   0.01  -0.03     0.07   0.01  -0.05    -0.04   0.01  -0.01
    12   6     0.05   0.02   0.05    -0.05  -0.01   0.05    -0.05  -0.02   0.00
    13   1     0.50   0.44   0.29    -0.11   0.05   0.26    -0.26  -0.16   0.08
    14   1     0.20   0.12  -0.02     0.08  -0.12   0.02     0.01  -0.26  -0.02
    15   1     0.03  -0.01   0.03     0.04  -0.01   0.00     0.00   0.03   0.01
    16   1     0.02   0.05   0.01     0.02   0.09   0.02    -0.00  -0.02   0.01
    17   1     0.02  -0.05  -0.01     0.03  -0.05  -0.02    -0.01   0.03  -0.00
    18   1    -0.10   0.02  -0.02    -0.17  -0.27   0.10    -0.13   0.33  -0.23
    19   1     0.08  -0.02   0.03    -0.01  -0.00   0.02     0.09  -0.01   0.05
    20   1    -0.02   0.03   0.02    -0.01   0.05   0.01    -0.04   0.05   0.04
    21   1     0.03  -0.02   0.00     0.02  -0.04   0.01     0.05  -0.02   0.00
    22   1    -0.46   0.08  -0.17     0.16  -0.02  -0.34    -0.36   0.09  -0.08
    23   1     0.02   0.11  -0.09    -0.02  -0.22  -0.01     0.08  -0.35  -0.31
    24   1     0.06  -0.18  -0.00    -0.06   0.37   0.03    -0.02   0.28   0.24
    25   1    -0.04   0.16   0.03     0.08  -0.28   0.18    -0.00   0.08  -0.23
    26   1    -0.04  -0.04  -0.06    -0.05   0.45  -0.29     0.03  -0.03   0.17
                     43                     44                     45
                      A                      A                      A
 Frequencies --   1289.2587              1314.8001              1318.8900
 Red. masses --      1.3199                 1.3913                 1.3285
 Frc consts  --      1.2927                 1.4170                 1.3615
 IR Inten    --      0.4116                 1.1509                 0.2892
  Atom  AN      X      Y      Z        X      Y      Z        X      Y      Z
     1   8    -0.00  -0.00  -0.00    -0.01  -0.00  -0.01     0.01   0.00   0.01
     2   6    -0.00   0.01  -0.00    -0.01  -0.01   0.02     0.01  -0.00  -0.01
     3   6    -0.07   0.01   0.04     0.05   0.05  -0.09    -0.02  -0.05  -0.04
     4   6     0.05  -0.03  -0.02     0.02  -0.08   0.02     0.03  -0.00  -0.02
     5   6    -0.03   0.01  -0.01    -0.03   0.00  -0.01    -0.02   0.00   0.01
     6   6     0.02  -0.01  -0.00     0.02  -0.00  -0.00     0.02  -0.01  -0.01
     7   6    -0.02   0.01   0.05     0.02   0.03   0.03    -0.02  -0.09   0.03
     8   6    -0.02  -0.01  -0.03    -0.02  -0.02  -0.03     0.01   0.01   0.00
     9   6     0.01   0.01   0.02     0.01   0.01   0.02    -0.00  -0.00  -0.01
    10   6     0.07  -0.02  -0.03     0.01  -0.04   0.02    -0.04   0.04   0.07
    11   6     0.03   0.03   0.03    -0.02   0.06   0.01     0.01   0.00  -0.01
    12   6    -0.01  -0.02  -0.03     0.01  -0.02   0.04    -0.01   0.06  -0.03
    13   1     0.13  -0.00  -0.28    -0.37  -0.03   0.34     0.04   0.10   0.22
    14   1    -0.05   0.49   0.02    -0.30   0.47   0.10    -0.21   0.12   0.02
    15   1    -0.01   0.05   0.03     0.03   0.12   0.05     0.05   0.17   0.06
    16   1    -0.02  -0.07  -0.05    -0.01  -0.06  -0.03    -0.02  -0.09  -0.04
    17   1    -0.00   0.01   0.03    -0.02   0.03   0.04    -0.00   0.02  -0.00
    18   1     0.06   0.07   0.03     0.13  -0.15   0.14     0.25   0.53  -0.28
    19   1     0.03  -0.04  -0.03    -0.01  -0.02  -0.03    -0.03   0.04  -0.01
    20   1     0.02  -0.03  -0.02     0.03  -0.03  -0.03    -0.03  -0.01   0.03
    21   1    -0.08   0.05  -0.00    -0.07   0.03   0.00     0.03   0.01  -0.02
    22   1    -0.26   0.01   0.19    -0.05  -0.01  -0.20     0.32   0.02  -0.32
    23   1     0.05  -0.37  -0.14     0.01  -0.12  -0.11     0.00  -0.03  -0.01
    24   1    -0.03   0.19   0.06     0.06  -0.32  -0.17    -0.01   0.04  -0.02
    25   1     0.04  -0.31   0.26    -0.04   0.22  -0.20     0.04  -0.24   0.28
    26   1    -0.03   0.25  -0.25     0.00   0.01  -0.00     0.01  -0.11   0.14
                     46                     47                     48
                      A                      A                      A
 Frequencies --   1332.7551              1341.8833              1349.2544
 Red. masses --      1.2907                 1.3100                 1.4741
 Frc consts  --      1.3507                 1.3898                 1.5811
 IR Inten    --      4.2048                 0.3529                 5.6713
  Atom  AN      X      Y      Z        X      Y      Z        X      Y      Z
     1   8    -0.00  -0.00   0.00    -0.00   0.00   0.00     0.00   0.01  -0.00
     2   6    -0.00   0.01  -0.01     0.00  -0.02   0.00     0.01  -0.05   0.01
     3   6     0.01  -0.02   0.01    -0.01   0.01   0.00     0.03   0.03  -0.01
     4   6    -0.00   0.01   0.01     0.01   0.04   0.01    -0.05  -0.07  -0.01
     5   6     0.04  -0.01  -0.01    -0.07   0.01   0.02     0.03  -0.00  -0.03
     6   6    -0.04   0.03   0.02     0.06  -0.04  -0.03    -0.02   0.02   0.01
     7   6    -0.04   0.00  -0.03    -0.01  -0.02  -0.03    -0.02  -0.02   0.03
     8   6    -0.04  -0.02  -0.07    -0.01  -0.02  -0.04    -0.02  -0.00  -0.02
     9   6     0.00   0.04   0.07    -0.01   0.04   0.05     0.01  -0.00   0.01
    10   6     0.01  -0.00   0.03    -0.01   0.02   0.01     0.01   0.07  -0.00
    11   6    -0.01   0.02   0.02     0.00  -0.04  -0.03     0.00  -0.10  -0.06
    12   6    -0.01   0.03  -0.04     0.01  -0.03   0.05    -0.01  -0.02   0.06
    13   1    -0.02  -0.02   0.07     0.06   0.02  -0.09    -0.09  -0.00   0.08
    14   1     0.11  -0.10  -0.01    -0.08  -0.20   0.01     0.24   0.41  -0.02
    15   1    -0.11  -0.35  -0.13     0.15   0.52   0.19    -0.02  -0.16  -0.04
    16   1     0.03   0.17   0.06    -0.05  -0.28  -0.09     0.03   0.14   0.04
    17   1     0.00  -0.02  -0.01     0.01   0.01  -0.01    -0.02   0.02   0.03
    18   1     0.39  -0.13   0.08     0.02  -0.03  -0.02     0.36   0.18  -0.04
    19   1     0.55  -0.31   0.01     0.46  -0.26   0.03    -0.04   0.02  -0.03
    20   1     0.06  -0.08  -0.06     0.00  -0.00   0.01     0.02  -0.05  -0.03
    21   1    -0.22   0.15   0.02    -0.20   0.14   0.01     0.00   0.01  -0.01
    22   1     0.02   0.01  -0.10     0.03   0.01  -0.01    -0.01   0.07   0.11
    23   1     0.04  -0.10  -0.09    -0.01   0.17   0.06    -0.04   0.34   0.15
    24   1    -0.02  -0.04  -0.04    -0.04   0.14   0.05    -0.07   0.43   0.25
    25   1     0.02  -0.12   0.10    -0.02   0.15  -0.15    -0.01   0.16  -0.20
    26   1     0.02  -0.14   0.15    -0.03   0.15  -0.18    -0.02   0.12  -0.08
                     49                     50                     51
[...]
 992733,0.02042770,-0.17682800,-0.05731984,0.12530233,0.00894961,0.0050
 7536,-0.00731478,0.00076330,0.00009862,0.00068580,-0.00055629,0.000093
 81,0.00010154,-0.00024085,0.00023015,0.00010885,-0.00000280,0.00003717
 ,-0.00017291,0.00024516,-0.00001491,-0.00002071,0.00014455,0.00001934,
 0.00018949,-0.00005563,0.00002171,0.00003398,0.00002954,0.00003282,-0.
 00003924,-0.00487469,0.00250351,-0.00051997,0.18454349,0.00003778,-0.0
 0015188,0.00000004,-0.00014178,0.00052337,-0.00004118,0.00005941,-0.00
 020519,0.00005446,-0.00087436,0.00114658,0.00000432,0.00022894,-0.0004
 5657,-0.00008484,-0.00020578,-0.00022468,-0.00003423,0.00856269,0.0054
 6288,-0.00833087,-0.05527882,-0.07802396,0.06765815,-0.01572772,-0.004
 04792,0.01805329,0.00014464,-0.00014959,0.00008432,-0.00026908,0.00035
 355,0.00059271,0.00026753,0.00023186,0.00001964,-0.00000439,-0.0000176
 7,-0.00003211,-0.00024908,0.00024134,-0.00003845,0.00004183,-0.0003085
 3,-0.00022604,-0.00003958,0.00008450,0.00004594,0.00005597,-0.00007879
 ,-0.00008349,0.00313095,0.00011550,0.00043910,0.05807984,0.07553440,0.
 00013216,-0.00024444,-0.00003011,0.00008195,0.00055284,0.00012067,-0.0
 0002754,-0.00028280,-0.00002078,0.00005928,0.00051517,0.00020472,0.000
 50945,0.00017561,0.00022493,-0.00036360,-0.00004327,0.00013912,-0.0006
 9519,-0.00007350,0.00243750,0.12231588,0.06872164,-0.17012769,0.016315
 83,0.00880157,-0.01164627,0.00068912,-0.00055794,0.00017083,-0.0004203
 5,-0.00006852,-0.00130671,0.00000942,-0.00007779,-0.00002947,0.0000354
 5,-0.00002692,0.00002819,-0.00005547,-0.00005570,-0.00002187,-0.000071
 10,-0.00014726,-0.00037306,0.00003875,0.00002004,-0.00009462,-0.000043
 77,-0.00000187,0.00004337,-0.00022925,0.00043543,0.00091050,-0.1351879
 5,-0.08158456,0.18006331,-0.00000553,-0.00007118,-0.00004409,0.0001130
 0,0.00021254,0.00014484,-0.00005861,0.00030929,0.00009778,-0.00079784,
 -0.00016398,-0.00048197,-0.00020779,-0.00004551,-0.00012461,0.00008231
 ,0.00002725,0.00002227,0.00250555,0.00346615,0.00156677,-0.00498091,0.
 00152861,0.00206865,-0.30326164,0.10172793,0.00809551,0.00058081,-0.00
 022092,0.00009210,-0.00005025,-0.00002759,-0.00012303,-0.00000868,-0.0
 0000035,0.00002233,-0.00005993,0.00000871,-0.00012569,-0.00002555,0.00
 013946,0.00000655,0.00001247,-0.00004851,0.00002511,-0.00001135,0.0000
 0081,0.00001304,0.00002565,0.00001767,-0.00001501,0.00050480,-0.000178
 71,-0.00015559,0.00056254,-0.00167818,-0.00189090,0.31780017,0.0004356
 2,-0.00042214,-0.00020534,0.00000872,0.00120534,0.00076414,-0.00022366
 ,0.00008195,-0.00014936,-0.00077938,0.00023997,-0.00015932,-0.00008844
 ,-0.00016247,-0.00013122,-0.00001748,0.00000972,-0.00002232,0.00207253
 ,0.00549403,0.00825519,0.02199533,-0.00488259,-0.00064704,0.09916097,-
 0.08262434,0.00989667,0.00200158,-0.00193240,0.00000084,0.00004349,0.0
 0004937,-0.00031530,0.00003016,0.00004956,-0.00000918,-0.00004051,-0.0
 0001784,-0.00006705,-0.00001807,0.00010646,-0.00001463,0.00002730,-0.0
 0015308,0.00000537,-0.00001461,0.00003235,0.00001249,-0.00000210,-0.00
 003577,-0.00001104,-0.00017843,-0.00003969,-0.00009773,-0.00176609,-0.
 00337683,-0.00412679,-0.11212080,0.08030962,0.00008722,-0.00020244,-0.
 00004729,0.00009959,0.00058623,0.00029440,-0.00014868,0.00033457,0.000
 10100,-0.00170113,-0.00001347,-0.00018986,-0.00027959,-0.00022839,-0.0
 0018021,0.00010719,0.00004178,-0.00001355,0.00345467,0.00810303,0.0028
 6400,-0.02224082,0.00888589,0.00332960,0.01113712,0.00854411,-0.048639
 48,0.00093579,-0.00096628,0.00022171,0.00004702,-0.00002300,-0.0000946
 2,-0.00002470,0.00000709,0.00002517,-0.00008006,0.00000033,-0.00017494
 ,-0.00008658,0.00040572,-0.00002056,0.00006624,-0.00011141,0.00006251,
 -0.00001824,0.00001371,0.00001721,0.00002093,0.00001097,-0.00001334,-0
 .00036212,-0.00018542,0.00031857,-0.00154120,-0.00404452,-0.00236046,-
 0.00786237,-0.01328838,0.04219779,0.00002621,0.00000332,0.00001541,-0.
 00011198,-0.00000161,-0.00010081,0.00003305,-0.00006790,-0.00002052,0.
 00020951,-0.00004605,0.00006566,0.00011163,0.00001600,0.00013548,-0.00
 007291,-0.00001983,-0.00003150,0.00044574,-0.00101587,-0.00308588,0.00
 893292,0.00367580,-0.00602192,-0.16818687,-0.05705650,0.12673632,-0.00
 014783,0.00026995,0.00007439,-0.00005662,0.00004229,-0.00001081,0.0000
 1777,0.00000731,-0.00000973,0.00001613,-0.00001396,0.00002782,0.000003
 44,-0.00007872,0.00001397,-0.00007232,0.00003389,-0.00000828,0.0000064
 7,0.00000879,-0.00000839,-0.00001039,-0.00000340,0.00000983,0.00042331
 ,-0.00017397,0.00027361,0.00127996,0.00380438,0.00063599,-0.01268828,-
 0.01038951,0.01850202,0.16982550,-0.00009779,0.00010475,0.00006220,-0.
 00003870,-0.00035674,-0.00026374,0.00009484,-0.00012294,0.00002652,0.0
 0053049,0.00004876,0.00027144,0.00013683,0.00006255,0.00017282,-0.0000
 1587,-0.00000612,-0.00006508,-0.00405245,-0.00350740,-0.00353373,-0.01
 450153,-0.00418333,0.01692922,-0.05476174,-0.08034039,0.07684376,-0.00
 049501,0.00081079,-0.00013676,-0.00018461,0.00009320,0.00020334,-0.000
 03054,0.00002954,-0.00000537,0.00003629,-0.00000106,0.00002808,0.00006
 501,-0.00013724,0.00001858,-0.00010872,0.00010521,-0.00000892,0.000008
 74,0.00000609,-0.00002963,-0.00001463,0.00001861,0.00002368,0.00110263
 ,0.00016258,-0.00052061,0.00382259,0.00370697,0.00782536,0.00706987,0.
 00606719,-0.00788275,0.06106324,0.07757804,-0.00017113,0.00007023,0.00
 007182,-0.00006981,-0.00027673,-0.00027651,0.00007991,-0.00032517,0.00
 000147,0.00040955,-0.00008241,0.00055895,0.00021184,0.00008414,0.00015
 372,-0.00014908,-0.00004829,0.00004497,-0.00021418,-0.00494020,-0.0026
 1000,0.01573443,0.00836386,-0.01172160,0.12403826,0.07800934,-0.181526
 46,-0.00067822,0.00080457,0.00001811,0.00021029,-0.00004228,0.00006971
 ,0.00005559,-0.00002772,-0.00001853,0.00003837,-0.00002042,0.00008280,
 -0.00003396,-0.00003305,0.00001185,-0.00005903,0.00005342,-0.00009446,
 0.00002410,-0.00000611,-0.00004323,-0.00002578,0.00000057,0.00002311,-
 0.00098959,0.00035266,0.00036861,0.00022613,0.00767736,0.00308189,-0.0
 0127770,0.00017723,0.00242231,-0.13719927,-0.08972934,0.18941075,0.001
 08845,-0.00391265,0.00004862,0.01343784,0.02036732,-0.00027345,-0.0021
 2993,0.00500988,-0.00005071,-0.00131936,0.00077503,-0.00265312,0.00041
 816,-0.00066069,0.00006553,-0.00014431,0.00000809,-0.00003725,-0.00614
 200,-0.01435986,0.00094823,0.00101386,-0.00092205,0.00030920,-0.000097
 11,0.00066839,-0.00002222,-0.09272844,-0.10309159,0.00145091,-0.005158
 58,-0.01512913,-0.00134219,-0.00112116,0.00080822,0.00324464,0.0010467
 3,0.00082996,0.00003129,0.00000440,-0.00031183,-0.00003098,0.00006560,
 0.00003091,0.00001737,-0.00001224,-0.00003834,0.00004222,-0.00002484,-
 0.00003522,0.00007892,0.00086039,0.00070813,0.00027807,-0.00000048,-0.
 00004004,-0.00001425,-0.00000035,0.00005017,-0.00003367,-0.00000010,-0
 .00003101,-0.00010348,0.09043089,0.00135146,0.00357505,-0.00004763,-0.
 01431745,-0.01595208,0.00020482,0.00164957,-0.00410367,0.00018891,0.00
 034345,-0.00008789,0.00055036,0.00012643,0.00010052,0.00004988,-0.0000
 7194,-0.00007361,-0.00005342,0.00065220,-0.00174761,0.00075405,0.00008
 721,0.00041446,-0.00012314,-0.00023835,0.00006499,-0.00003743,-0.09912
 384,-0.28326061,0.00301156,0.00059776,-0.00090094,-0.00071604,0.000489
 63,-0.00019202,-0.00052733,-0.00081058,-0.00064231,-0.00003830,-0.0000
 2071,-0.00019878,-0.00015668,-0.00010494,-0.00002115,-0.00004632,0.000
 02249,0.00004643,-0.00007303,-0.00005384,0.00001541,-0.00000940,0.0000
 4888,0.00043296,-0.00054073,0.00004293,-0.00003426,-0.00001956,-0.0000
 1150,0.00000096,-0.00003300,-0.00000807,0.00002034,-0.00002076,0.10959
 096,0.30232147,-0.00006454,0.00013615,-0.00071900,-0.00003539,-0.00059
 816,-0.00161130,0.00029117,-0.00013215,-0.00074839,-0.00326667,-0.0015
 0471,-0.00317885,0.00098576,-0.00113652,0.00005396,-0.00052578,-0.0001
 3204,-0.00006087,-0.00843339,-0.02273281,0.00043431,0.00147891,-0.0007
 8651,0.00013443,-0.00017204,0.00052583,0.00005067,0.00127768,0.0031167
 5,-0.04759923,0.00697921,0.02392333,0.00173001,0.00273236,0.00154697,-
 0.00354452,-0.00006478,0.00000707,0.00038566,0.00008681,-0.00048354,-0
 .00016635,0.00003707,0.00004755,0.00000141,0.00007281,-0.00011103,-0.0
 0004291,-0.00012389,-0.00002234,0.00017774,0.00065795,0.00013746,0.001
 10360,-0.00009685,0.00001271,0.00000774,-0.00000068,0.00004168,-0.0000
 7931,-0.00000132,-0.00001196,-0.00007931,-0.00137599,-0.00327109,0.052
 71010,-0.00049812,0.00121988,-0.00037710,-0.00129093,-0.00372402,0.002
 80262,0.00060384,-0.00072381,-0.00097681,-0.00008155,-0.00003983,-0.00
 019442,-0.00006461,0.00001811,-0.00001242,0.00003658,0.00001302,0.0000
 1327,0.00025540,-0.00013039,-0.00149530,-0.00070462,-0.00032534,-0.000
 57141,0.00047962,-0.00024040,-0.00022523,-0.01300852,0.00692078,0.0024
 7907,-0.27009725,0.10395147,0.00343637,0.00543430,-0.00296295,-0.00045
 900,0.00013194,-0.00004997,-0.00017418,-0.00000334,-0.00003083,-0.0000
 0080,0.00003218,0.00001565,0.00003409,-0.00000192,-0.00002522,0.000009
 75,0.00001790,0.00000710,0.00000559,-0.00000110,-0.00003155,0.00001986
 ,0.00032351,0.00013379,-0.00168444,-0.00003003,-0.00013108,-0.00005949
 ,0.00002778,0.00022606,0.00004126,-0.00030773,-0.00015211,0.00027634,0
 .29204761,-0.00093230,0.00103772,-0.00037327,0.00027478,-0.00319860,0.
 00182604,0.00010800,-0.00388071,0.00080710,0.00031558,-0.00032847,0.00
 005592,0.00000354,0.00015235,-0.00002293,-0.00001595,-0.00006428,0.000
 08165,0.00103626,-0.00004503,-0.00065859,0.00089098,0.00071690,-0.0001
 3728,-0.00025332,-0.00020455,0.00017517,-0.01062886,0.00604193,0.00037
 023,0.10208639,-0.09409907,-0.00336905,0.02646512,-0.01238628,-0.00031
 653,0.00070521,0.00009238,-0.00121690,-0.00010129,0.00006724,-0.000129
 80,-0.00005536,-0.00001305,-0.00005550,0.00002577,0.00006225,-0.000007
 17,-0.00001738,-0.00000718,-0.00004546,-0.00020884,-0.00005685,-0.0001
 6976,-0.00042622,0.00006676,0.00027186,0.00004898,0.00004262,0.0000559
 2,-0.00003129,-0.00014935,0.00002886,0.00012673,-0.00002456,-0.0003408
 0,-0.11028269,0.10240496,0.00204470,-0.00200568,0.00136559,0.00170922,
 0.00505004,-0.00537278,-0.00061689,-0.00103726,0.00052939,0.00019807,-
 0.00029438,0.00015314,0.00005666,0.00004713,-0.00005449,-0.00006142,-0
 .00002498,0.00005629,-0.00040004,-0.00027620,0.00240125,0.00008488,-0.
 00022470,-0.00099828,-0.00046677,0.00027528,0.00021382,0.02598937,-0.0
 1381155,-0.00251026,0.00160164,-0.00232035,-0.04843282,0.00000723,-0.0
 0080648,-0.00158306,-0.00002574,-0.00008615,-0.00014819,0.00002094,0.0
 0010029,0.00001135,-0.00005766,-0.00005153,-0.00004540,0.00001419,0.00
 002123,-0.00002197,-0.00000616,0.00000123,-0.00000334,-0.00000327,0.00
 027036,0.00051087,-0.00148648,-0.00024211,-0.00165053,0.00000836,0.000
 03490,-0.00002004,0.00000207,-0.00014152,0.00000523,-0.00016745,0.0002
 7923,0.00015211,-0.00321113,0.00306655,0.05268293,0.00009359,-0.000382
 72,-0.00021926,0.00119391,0.00006867,0.00060833,-0.00022156,0.00047585
 ,0.00000234,-0.00004183,-0.00028313,-0.00015609,-0.00003755,0.00004730
 ,-0.00001572,0.00007824,-0.00000404,-0.00003790,-0.00241972,-0.0004848
 9,0.00281539,-0.00092698,-0.00023973,-0.00005027,0.00042699,-0.0001082
 0,-0.00015457,0.00953048,0.00609849,0.01557107,-0.12083127,-0.03930043
 ,-0.10890819,-0.00134710,0.00039680,-0.00027827,-0.00004607,0.00005147
 ,0.00001932,-0.00002342,-0.00004856,-0.00007649,-0.00002242,0.00000292
 ,0.00001548,-0.00001741,0.00002519,0.00000024,-0.00000226,0.00000872,-
 0.00001091,0.00061204,0.00018491,0.00096380,0.00059812,0.00015345,-0.0
 0019209,-0.00001367,-0.00004981,-0.00003113,-0.00000334,0.00015329,-0.
 00004426,0.00087754,-0.00001076,-0.00086481,-0.01511746,-0.00952395,-0
 .02538696,0.12553092,0.00078602,0.00026487,0.00027676,-0.00098241,-0.0
 0078362,-0.00090953,-0.00020258,-0.00265234,0.00075592,0.00016238,-0.0
 0011156,0.00049931,-0.00010159,0.00003260,0.00002365,0.00013417,-0.000
 03136,-0.00005693,-0.00153416,0.00020184,0.00207296,-0.00006447,0.0001
 5234,0.00000799,-0.00008285,0.00003301,0.00006320,0.00587484,0.0030763
 4,0.00820062,-0.03922389,-0.07123824,-0.06636132,-0.01633318,-0.011620
 56,-0.02349541,0.00043390,-0.00016728,-0.00073650,0.00001251,0.0000750
 5,-0.00004531,-0.00002932,-0.00001027,-0.00004331,-0.00004939,0.000133
 29,-0.00002277,-0.00002079,0.00001075,-0.00006474,0.00020956,0.0002675
 7,0.00061252,-0.00014025,-0.00011564,0.00000972,0.00002011,0.00000251,
 0.00000589,-0.00000301,-0.00004483,-0.00000896,0.00067391,0.00028458,-
 0.00026228,0.00665457,0.00488260,0.01161411,0.04348745,0.07987290,0.00
 128792,0.00005881,0.00047225,-0.00267010,0.00061734,-0.00060419,0.0000
 5715,-0.00041470,-0.00005183,-0.00017730,0.00049507,0.00046327,0.00017
 613,-0.00008607,0.00003321,-0.00009272,-0.00002803,0.00000573,0.004587
 39,0.00190417,-0.00351188,0.00088041,-0.00010458,0.00036943,-0.0001651
 7,0.00011429,-0.00000984,-0.01304011,-0.00852746,-0.02222638,-0.108084
 23,-0.06582920,-0.21867546,0.00196298,0.00167403,0.00250983,-0.0000431
 1,-0.00009359,-0.00010476,0.00003911,0.00000645,0.00006501,0.00000441,
 0.00002568,0.00001038,0.00002497,-0.00001937,0.00000685,-0.00001937,-0
 .00001911,0.00001730,-0.00097548,-0.00058525,-0.00149855,-0.00007715,-
 0.00003291,0.00014238,-0.00004385,0.00004090,-0.00000480,-0.00000870,-
 0.00005476,0.00000911,-0.00023633,0.00053762,0.00109493,-0.00019078,0.
 00077434,0.00156382,0.11590502,0.06882985,0.23800613,-0.00079344,-0.00
 138431,-0.00040660,-0.00125490,0.00401946,0.00259738,-0.01529991,-0.00
 606264,0.00171528,0.00059936,0.00025441,-0.00206285,0.00028189,-0.0008
 8261,-0.00060505,0.00039169,-0.00075334,-0.00093681,-0.00014676,-0.000
 07152,-0.00004762,-0.00012893,0.00000949,0.00009917,0.00008278,0.00003
 596,-0.00000310,0.00038749,0.00009420,-0.00085010,0.00335425,0.0013642
 4,0.00029029,-0.28896529,-0.08295911,-0.02661344,-0.00052396,0.0000267
 2,0.00041036,0.00003060,0.00001920,-0.00002822,0.00008541,0.00030521,0
 .00022452,-0.00040562,0.00038849,-0.00024376,-0.00003522,-0.00000848,-
 0.00031015,0.00001972,0.00001374,0.00000745,0.00011386,-0.00010815,0.0
 0004226,0.00000946,-0.00001303,0.00000098,-0.00000648,0.00000388,-0.00
 001922,0.00002407,0.00001847,-0.00003234,0.00156427,-0.00000395,-0.000
 05590,0.00054191,0.00048250,0.00062383,0.31121764,0.00083152,0.0009311
 9,0.00027600,-0.00028412,-0.00287636,-0.00150251,0.01045649,0.00467030
 ,0.00111006,-0.00141471,0.00021308,0.00071974,0.00047350,0.00022274,-0
 .00077941,-0.00030790,-0.00066243,-0.00081271,-0.00022689,-0.00011329,
 -0.00001099,-0.00045472,0.00000984,0.00034908,0.00021105,0.00000216,-0
 .00010220,-0.00025848,-0.00284547,-0.00074565,-0.02843796,-0.01059636,
 -0.00441136,-0.08195854,-0.07547481,-0.00608123,0.00006159,-0.00006822
 ,0.00001508,0.00004617,-0.00022872,0.00027111,-0.00024243,0.00004719,0
 .00022227,0.00007329,-0.00065336,-0.00068383,0.00003824,-0.00007715,0.
 00006562,0.00012265,0.00005276,0.00007814,0.00027696,-0.00022171,0.000
 04858,-0.00000536,-0.00002502,-0.00000105,-0.00000629,0.00005056,-0.00
 005387,-0.00048664,0.00010596,0.00097004,0.00015999,0.00226601,-0.0001
 0645,-0.00082937,-0.00436492,0.00067199,0.08873351,0.08463461,0.001795
 39,0.00203949,0.00121624,0.00199971,-0.00485178,-0.00469702,0.02626272
 ,0.01026334,-0.00017747,-0.00003836,0.00012611,0.00211617,0.00014326,0
 .00052338,-0.00142181,-0.00063640,-0.00119069,-0.00051258,0.00016804,0
 .00038655,-0.00001141,0.00018276,0.00004725,-0.00026568,-0.00014458,-0
 .00001100,0.00000220,-0.00051117,0.00069715,0.00058765,-0.00090317,-0.
 00026788,-0.00158303,-0.02902112,-0.00664692,-0.05125047,0.00023538,-0
 .00018560,-0.00016552,-0.00013913,-0.00027520,0.00053385,-0.00026044,0
 .00005892,0.00026328,0.00001643,-0.00037589,-0.00020634,0.00004442,-0.
 00006949,0.00001220,-0.00002781,-0.00004747,-0.00001454,-0.00016147,0.
 00014996,0.00010789,0.00000730,0.00001408,0.00001014,0.00000914,-0.000
 01783,0.00003548,-0.00007205,0.00010258,-0.00014789,-0.00001698,-0.000
 06427,0.00121789,0.00022705,-0.00091388,0.00013625,0.02783725,0.009834
 48,0.05588223,-0.00031426,0.00022222,-0.00026447,0.00143969,0.00035568
 ,0.00047446,0.00789300,-0.00815580,0.01669798,-0.00289317,0.00054080,0
 .00253792,-0.00011772,-0.00043840,-0.00032050,0.00027183,0.00014673,-0
 .00044094,-0.00016273,0.00012030,-0.00010786,-0.00024652,-0.00008089,0
 .00016209,0.00011591,0.00000315,-0.00005230,-0.00007525,-0.00105848,0.
 00012024,-0.00025096,-0.00234166,0.00205128,-0.09343891,0.04084983,-0.
 08804011,0.00105058,0.00004906,-0.00087685,0.00060871,-0.00021883,0.00
 112192,0.00004231,0.00003323,0.00002422,-0.00006247,0.00006750,-0.0000
 2035,-0.00000258,0.00001847,0.00000093,0.00000710,0.00001329,-0.000075
 74,0.00016989,-0.00008422,0.00001039,0.00000366,0.00000712,0.00001102,
 -0.00000228,0.00001884,-0.00003501,-0.00008128,-0.00009734,0.00018240,
 0.00025225,0.00039407,0.00020855,0.00158833,-0.00016402,0.00027509,-0.
 01114389,0.01342842,-0.02699620,0.09534876,-0.00069625,0.00029890,-0.0
 0025274,0.00096796,-0.00112591,0.00046196,-0.00474601,0.00406287,-0.00
 902436,0.00165049,0.00009047,-0.00212180,0.00032830,-0.00000674,0.0000
 4701,-0.00001666,0.00011766,-0.00008814,-0.00006204,-0.00011368,-0.000
 45774,0.00000890,0.00015559,0.00000714,-0.00001385,0.00005794,0.000032
 30,-0.00003203,-0.00409357,-0.00091323,0.01141319,-0.01365323,0.024620
 64,0.04035408,-0.08718601,0.08855723,-0.00068805,0.00042261,0.00020725
 ,-0.00022467,0.00022734,-0.00075119,-0.00003635,-0.00001924,-0.0000009
 2,-0.00000555,-0.00001979,-0.00000077,0.00001236,-0.00003658,0.0000069
 0,0.00001552,0.00009346,0.00005704,-0.00007634,-0.00005447,-0.00006689
 ,-0.00000475,-0.00001949,-0.00001512,-0.00000901,-0.00001579,-0.000006
 92,-0.00062866,-0.00014362,0.00106040,-0.00047023,-0.00337574,0.000668
 99,0.00011107,0.00185037,0.00004450,-0.00352235,0.00500140,-0.00932540
 ,-0.04362906,0.09748526,0.00104613,0.00007294,0.00032785,-0.00201171,-
 0.00095669,-0.00041586,-0.01015448,0.00988983,-0.02049004,0.00448345,-
 0.00161858,-0.00307732,0.00075747,0.00021713,0.00038494,-0.00020373,0.
 00001560,-0.00009072,-0.00011126,-0.00052215,0.00044716,0.00014387,0.0
 0007896,-0.00001173,-0.00006296,0.00003607,0.00002482,-0.00013191,0.00
 007410,0.00028849,0.00195081,-0.00238890,0.00389193,-0.08679640,0.0880
 4204,-0.23170014,-0.00031142,-0.00055941,0.00112247,-0.00092322,0.0004
 4592,-0.00154136,-0.00010309,-0.00001072,0.00001239,-0.00000480,-0.000
 02731,-0.00007241,-0.00000571,-0.00009195,0.00001796,0.00004273,0.0000
 3165,0.00006619,-0.00003062,-0.00001668,-0.00002147,-0.00002512,0.0000
 0122,-0.00002598,0.00000543,-0.00000301,0.00000021,-0.00010187,0.00003
 486,-0.00005871,0.00053128,-0.00060632,-0.00002251,0.00029890,-0.00005
 156,0.00178182,-0.00163363,0.00065909,-0.00166769,0.09335185,-0.092746
 15,0.25082968\\0.00000589,0.00001372,-0.00000842,-0.00002903,0.0000098
 7,-0.00004381,-0.00002999,-0.00007284,0.00000796,0.00004934,0.00002461
 ,0.00001097,0.00000658,0.00001266,-0.00002540,-0.00000242,0.00001428,0
 .00002084,-0.00004161,-0.00002243,-0.00001390,-0.00001187,0.00001681,0
 .00000654,0.00000091,-0.00000544,-0.00001348,-0.00000097,0.00003425,0.
 00006702,-0.00000846,0.00000649,-0.00001621,0.00000572,-0.00000862,0.0
 0000441,0.00000868,-0.00000643,0.00001019,-0.00001196,-0.00000830,-0.0
 0000559,0.00000823,-0.00000476,0.00000479,0.00000388,-0.00000450,-0.00
 000652,0.00001057,0.00000188,0.00000514,-0.00000531,0.00000949,0.00000
 072,0.00000682,0.00002224,-0.00000983,0.00001574,-0.00000422,-0.000002
 62,0.00000426,0.00000210,0.00000600,0.00000723,-0.00001381,-0.00001104
 ,0.00000743,-0.00000137,0.00001876,0.00000352,0.00000711,-0.00000588,-
 0.00000115,-0.00000763,0.00000394,-0.00000204,-0.00001516,-0.00000457\
 \\@


 A BIRD IN THE HAND IS SAFER THAN ONE OVERHEAD.

                       -- NEWTON'S SEVENTH LAW
 Job cpu time:       0 days  0 hours  2 minutes 48.1 seconds.
 Elapsed time:       0 days  0 hours  2 minutes 49.6 seconds.
 File lengths (MBytes):  RWF=    137 Int=      0 D2E=      0 Chk=      6 Scr=      1
 Normal termination of Gaussian 16 at Thu Feb 22 10:55:07 2024.
