 Entering Gaussian System, Link 0=g16
 Input=/Volumes/SSD-PMU3/b3lyp_6-31gd_freq/ANFLIDKLELMAAQ-XPQHUKHFSA-N_calculating/gaussianinput0.gjf
 Output=/Volumes/SSD-PMU3/b3lyp_6-31gd_freq/ANFLIDKLELMAAQ-XPQHUKHFSA-N_calculating/gaussianinput0.log
 Initial command:
 /Applications/g16/l1.exe "/Users/macmini_m1_2022/PycharmProjects/sphere_model/sphere_model_lib/Gau-54243.inp" -scrdir="/Users/macmini_m1_2022/PycharmProjects/sphere_model/sphere_model_lib/"
 Entering Link 1 = /Applications/g16/l1.exe PID=     54244.
  
 Copyright (c) 1988,1990,1992,1993,1995,1998,2003,2009,2016,
            Gaussian, Inc.  All Rights Reserved.
  
 This is part of the Gaussian(R) 16 program.  It is based on
 the Gaussian(R) 09 system (copyright 2009, Gaussian, Inc.),
 the Gaussian(R) 03 system (copyright 2003, Gaussian, Inc.),
 the Gaussian(R) 98 system (copyright 1998, Gaussian, Inc.),
 the Gaussian(R) 94 system (copyright 1995, Gaussian, Inc.),
 the Gaussian 92(TM) system (copyright 1992, Gaussian, Inc.),
 the Gaussian 90(TM) system (copyright 1990, Gaussian, Inc.),
 the Gaussian 88(TM) system (copyright 1988, Gaussian, Inc.),
 the Gaussian 86(TM) system (copyright 1986, Carnegie Mellon
 University), and the Gaussian 82(TM) system (copyright 1983,
 Carnegie Mellon University). Gaussian is a federally registered
 trademark of Gaussian, Inc.
  
 This software contains proprietary and confidential information,
 including trade secrets, belonging to Gaussian, Inc.
  
 This software is provided under written license and may be
 used, copied, transmitted, or stored only in accord with that
 written license.
  
 The following legend is applicable only to US Government
 contracts under FAR:
  
                    RESTRICTED RIGHTS LEGEND
  
 Use, reproduction and disclosure by the US Government is
 subject to restrictions as set forth in subparagraphs (a)
 and (c) of the Commercial Computer Software - Restricted
 Rights clause in FAR 52.227-19.
  
 Gaussian, Inc.
 340 Quinnipiac St., Bldg. 40, Wallingford CT 06492
  
  
 ---------------------------------------------------------------
 Warning -- This program may not be used in any manner that
 competes with the business of Gaussian, Inc. or will provide
 assistance to any competitor of Gaussian, Inc.  The licensee
 of this program is prohibited from giving any competitor of
 Gaussian, Inc. access to this program.  By using this program,
 the user acknowledges that Gaussian, Inc. is engaged in the
 business of creating and licensing software in the field of
 computational chemistry and represents and warrants to the
 licensee that it is not a competitor of Gaussian, Inc. and that
 it will not use this program in any manner prohibited above.
 ---------------------------------------------------------------
  

 Cite this work as:
 Gaussian 16, Revision A.03,
 M. J. Frisch, G. W. Trucks, H. B. Schlegel, G. E. Scuseria, 
 M. A. Robb, J. R. Cheeseman, G. Scalmani, V. Barone, 
 G. A. Petersson, H. Nakatsuji, X. Li, M. Caricato, A. V. Marenich, 
 J. Bloino, B. G. Janesko, R. Gomperts, B. Mennucci, H. P. Hratchian, 
 J. V. Ortiz, A. F. Izmaylov, J. L. Sonnenberg, D. Williams-Young, 
 F. Ding, F. Lipparini, F. Egidi, J. Goings, B. Peng, A. Petrone, 
 T. Henderson, D. Ranasinghe, V. G. Zakrzewski, J. Gao, N. Rega, 
 G. Zheng, W. Liang, M. Hada, M. Ehara, K. Toyota, R. Fukuda, 
 J. Hasegawa, M. Ishida, T. Nakajima, Y. Honda, O. Kitao, H. Nakai, 
 T. Vreven, K. Throssell, J. A. Montgomery, Jr., J. E. Peralta, 
 F. Ogliaro, M. J. Bearpark, J. J. Heyd, E. N. Brothers, K. N. Kudin, 
 V. N. Staroverov, T. A. Keith, R. Kobayashi, J. Normand, 
 K. Raghavachari, A. P. Rendell, J. C. Burant, S. S. Iyengar, 
 J. Tomasi, M. Cossi, J. M. Millam, M. Klene, C. Adamo, R. Cammi, 
 J. W. Ochterski, R. L. Martin, K. Morokuma, O. Farkas, 
 J. B. Foresman, and D. J. Fox, Gaussian, Inc., Wallingford CT, 2016.
 
 ******************************************
 Gaussian 16:  EM64M-G16RevA.03 25-Dec-2016
                21-Feb-2024 
 ******************************************
 %nprocshared=8
 Will use up to    8 processors via shared memory.
 %mem=4GB
 %chk= 0.chk
 ---------------------
 # freq b3lyp/6-31g(d)
 ---------------------
 1/10=4,30=1,38=1/1,3;
 2/12=2,17=6,18=5,40=1/2;
 3/5=1,6=6,7=1,11=2,25=1,30=1,71=2,74=-5,140=1/1,2,3;
 4//1;
 5/5=2,38=5,98=1/2;
 8/6=4,10=90,11=11/1;
 11/6=1,8=1,9=11,15=111,16=1/1,2,10;
 10/6=1/2;
 6/7=2,8=2,9=2,10=2,28=1/1;
 7/8=1,10=1,25=1/1,2,3,16;
 1/10=4,30=1/3;
 99//99;
 ---------
 good luck
 ---------
 Symbolic Z-matrix:
 Charge =  0 Multiplicity = 1
 O                     1.21728   0.        0. 
 C                     0.        0.        0. 
 C                    -0.80513  -1.29678   0.0316 
 C                    -2.1133   -1.2579   -0.79269 
 C                    -2.91902   0.       -0.41658 
 C                    -1.8615   -1.27633  -2.31635 
 C                    -1.16734   0.       -2.82505 
 C                    -1.8615    1.27633  -2.31635 
 C                    -2.1133    1.2579   -0.79269 
 C                    -0.80513   1.29678   0.0316 
 H                    -1.06499  -1.47312   1.08755 
 H                    -0.14447  -2.11543  -0.27322 
 H                    -2.69512  -2.15245  -0.53432 
 H                    -3.8812    0.       -0.94582 
 H                    -3.14771   0.        0.65845 
 H                    -2.83239  -1.38402  -2.8212 
 H                    -1.26938  -2.15981  -2.58862 
 H                    -1.15157   0.       -3.92219 
 H                    -0.11487   0.       -2.51492 
 H                    -1.26938   2.15981  -2.58862 
 H                    -2.83239   1.38402  -2.8212 
 H                    -2.69511   2.15246  -0.53432 
 H                    -1.06499   1.47312   1.08755 
 H                    -0.14447   2.11543  -0.27322 
 

 GradGradGradGradGradGradGradGradGradGradGradGradGradGradGradGradGradGrad
 Berny optimization.
 Initialization pass.
 Trust Radius=3.00D-01 FncErr=1.00D-07 GrdErr=1.00D-07 EigMax=2.50D+02 EigMin=1.00D-04
 Number of steps in this run=      2 maximum allowed number of steps=      2.
 GradGradGradGradGradGradGradGradGradGradGradGradGradGradGradGradGradGrad

                          Input orientation:                          
 ---------------------------------------------------------------------
 Center     Atomic      Atomic             Coordinates (Angstroms)
 Number     Number       Type             X           Y           Z
 ---------------------------------------------------------------------
      1          8           0        1.217277    0.000000    0.000000
      2          6           0        0.000000    0.000000    0.000000
      3          6           0       -0.805127   -1.296784    0.031599
      4          6           0       -2.113296   -1.257897   -0.792688
      5          6           0       -2.919016    0.000000   -0.416576
      6          6           0       -1.861495   -1.276331   -2.316346
      7          6           0       -1.167335    0.000000   -2.825046
      8          6           0       -1.861495    1.276331   -2.316346
      9          6           0       -2.113296    1.257897   -0.792688
     10          6           0       -0.805127    1.296784    0.031599
     11          1           0       -1.064987   -1.473116    1.087548
     12          1           0       -0.144472   -2.115434   -0.273218
     13          1           0       -2.695115   -2.152454   -0.534315
     14          1           0       -3.881197    0.000000   -0.945822
     15          1           0       -3.147713    0.000000    0.658452
     16          1           0       -2.832390   -1.384024   -2.821196
     17          1           0       -1.269376   -2.159814   -2.588621
     18          1           0       -1.151565    0.000000   -3.922191
     19          1           0       -0.114872    0.000000   -2.514922
     20          1           0       -1.269376    2.159814   -2.588621
     21          1           0       -2.832390    1.384024   -2.821196
     22          1           0       -2.695114    2.152455   -0.534315
     23          1           0       -1.064987    1.473116    1.087548
     24          1           0       -0.144472    2.115434   -0.273218
 ---------------------------------------------------------------------
                    Distance matrix (angstroms):
                    1          2          3          4          5
     1  O    0.000000
     2  C    1.217277   0.000000
     3  C    2.402658   1.526721   0.000000
     4  C    3.647379   2.583927   1.546696   0.000000
     5  C    4.157217   2.948591   2.520126   1.540438   0.000000
     6  C    4.058733   3.234137   2.574719   1.544434   2.521210
     7  C    3.696926   3.056723   3.158048   2.570530   2.978106
     8  C    4.058733   3.234137   3.640011   2.967701   2.521210
     9  C    3.647379   2.583927   2.986160   2.515794   1.540438
    10  C    2.402658   1.526721   2.593568   2.986160   2.520126
    11  H    2.926014   2.118261   1.101657   2.163460   2.805331
    12  H    2.530626   2.137892   1.095247   2.209409   3.491949
    13  H    4.497262   3.490300   2.150461   1.097954   2.167268
    14  H    5.185462   3.994780   3.478391   2.175139   1.098132
    15  H    4.414374   3.215845   2.749964   2.181314   1.099085
    16  H    5.125863   4.230497   3.500835   2.155887   2.775828
    17  H    4.189176   3.602370   2.797481   2.179686   3.479064
    18  H    4.582030   4.087748   4.175419   3.507281   3.925967
    19  H    2.845954   2.517544   2.939876   2.922686   3.502325
    20  H    4.189176   3.602370   4.362241   3.952003   3.479064
    21  H    5.125863   4.230497   4.408511   3.407593   2.775828
    22  H    4.497261   3.490300   3.973608   3.469261   2.167270
    23  H    2.926014   2.118261   2.975719   3.477452   2.805331
    24  H    2.530626   2.137892   3.488927   3.940238   3.491949
                    6          7          8          9         10
     6  C    0.000000
     7  C    1.539368   0.000000
     8  C    2.552662   1.539368   0.000000
     9  C    2.967701   2.570530   1.544434   0.000000
    10  C    3.640011   3.158048   2.574719   1.546696   0.000000
    11  H    3.501377   4.181978   4.447514   3.477452   2.975719
    12  H    2.797612   3.468881   4.315856   3.940238   3.488927
    13  H    2.153636   3.494942   3.953116   3.469260   3.973607
    14  H    2.754370   3.300989   2.754370   2.175139   3.478391
    15  H    3.483217   4.007076   3.483217   2.181314   2.749964
    16  H    1.099595   2.165166   2.876630   3.407593   4.408511
    17  H    1.097853   2.175110   3.497403   3.952003   4.362241
    18  H    2.170659   1.097258   2.170659   3.507281   4.175419
    19  H    2.172359   1.097203   2.172359   2.922686   2.939876
    20  H    3.497403   2.175110   1.097853   2.179686   2.797481
    21  H    2.876630   2.165166   1.099595   2.155887   3.500835
    22  H    3.953116   3.494942   2.153636   1.097954   2.150461
    23  H    4.447514   4.181978   3.501377   2.163460   1.101657
    24  H    4.315856   3.468881   2.797612   2.209409   1.095247
                   11         12         13         14         15
    11  H    0.000000
    12  H    1.763974   0.000000
    13  H    2.397761   2.564239   0.000000
    14  H    3.773023   4.346328   2.491824   0.000000
    15  H    2.586879   3.789792   2.502118   1.763999   0.000000
    16  H    4.290679   3.775189   2.416434   2.555885   3.758045
    17  H    3.745337   2.574581   2.500592   3.766324   4.328560
    18  H    5.222552   4.336393   4.300385   4.038522   4.996689
    19  H    4.006317   3.082397   3.900451   4.080108   4.389582
    20  H    5.172444   4.990415   4.984833   3.766324   4.328560
    21  H    5.154148   5.095420   4.213709   2.555885   3.758045
    22  H    4.293311   4.978837   4.304909   2.491825   2.502119
    23  H    2.946232   3.946736   4.293310   3.773023   2.586879
    24  H    3.946736   4.230868   4.978837   4.346328   3.789792
                   16         17         18         19         20
    16  H    0.000000
    17  H    1.760385   0.000000
    18  H    2.439854   2.541079   0.000000
    19  H    3.065001   2.450124   1.747895   0.000000
    20  H    3.880192   4.319628   2.541079   2.450124   0.000000
    21  H    2.768048   3.880192   2.439854   3.065001   1.760385
    22  H    4.213710   4.984834   4.300385   3.900451   2.500591
    23  H    5.154148   5.172444   5.222552   4.006317   3.745337
    24  H    5.095420   4.990415   4.336393   3.082397   2.574581
                   21         22         23         24
    21  H    0.000000
    22  H    2.416434   0.000000
    23  H    4.290679   2.397760   0.000000
    24  H    3.775189   2.564238   1.763974   0.000000
 Stoichiometry    C9H14O
 Framework group  CS[SG(C3H4O),X(C6H10)]
 Deg. of freedom    37
 Full point group                 CS      NOp   2
 Largest Abelian subgroup         CS      NOp   2
 Largest concise Abelian subgroup CS      NOp   2
                         Standard orientation:                         
 ---------------------------------------------------------------------
 Center     Atomic      Atomic             Coordinates (Angstroms)
 Number     Number       Type             X           Y           Z
 ---------------------------------------------------------------------
      1          8           0        0.508766   -2.618154    0.000000
      2          6           0       -0.140167   -1.588276    0.000000
      3          6           0       -0.596117   -0.923944   -1.296784
      4          6           0       -0.596117    0.622263   -1.257897
      5          6           0       -1.343858    1.103436   -0.000000
      6          6           0        0.827210    1.221493   -1.276331
      7          6           0        1.627655    0.905388    0.000000
      8          6           0        0.827210    1.221493    1.276331
      9          6           0       -0.596117    0.622263    1.257897
     10          6           0       -0.596117   -0.923944    1.296784
     11          1           0       -1.628035   -1.267018   -1.473116
     12          1           0        0.013971   -1.320393   -2.115434
     13          1           0       -1.124883    0.976772   -2.152454
     14          1           0       -1.409031    2.199633   -0.000000
     15          1           0       -2.375305    0.723825    0.000000
     16          1           0        0.736752    2.312056   -1.384024
     17          1           0        1.373229    0.865681   -2.159814
     18          1           0        2.564302    1.476936   -0.000000
     19          1           0        1.926345   -0.150377    0.000000
     20          1           0        1.373229    0.865681    2.159814
     21          1           0        0.736752    2.312056    1.384024
     22          1           0       -1.124883    0.976772    2.152454
     23          1           0       -1.628035   -1.267018    1.473116
     24          1           0        0.013971   -1.320393    2.115434
 ---------------------------------------------------------------------
 Rotational constants (GHZ):           1.8466689           1.3288763           1.2222258
 Standard basis: 6-31G(d) (6D, 7F)
 There are   107 symmetry adapted cartesian basis functions of A'  symmetry.
 There are    71 symmetry adapted cartesian basis functions of A"  symmetry.
 There are   107 symmetry adapted basis functions of A'  symmetry.
 There are    71 symmetry adapted basis functions of A"  symmetry.
   178 basis functions,   336 primitive gaussians,   178 cartesian basis functions
    38 alpha electrons       38 beta electrons
       nuclear repulsion energy       571.8955268352 Hartrees.
 NAtoms=   24 NActive=   24 NUniq=   16 SFac= 2.25D+00 NAtFMM=   60 NAOKFM=F Big=F
 Integral buffers will be    131072 words long.
 Raffenetti 2 integral format.
 Two-electron integral symmetry is turned on.
 One-electron integrals computed using PRISM.
 NBasis=   178 RedAO= T EigKep=  2.83D-03  NBF=   107    71
 NBsUse=   178 1.00D-06 EigRej= -1.00D+00 NBFU=   107    71
 ExpMin= 1.61D-01 ExpMax= 5.48D+03 ExpMxC= 8.25D+02 IAcc=3 IRadAn=         5 AccDes= 0.00D+00
 Harris functional with IExCor=  402 and IRadAn=       5 diagonalized for initial guess.
 HarFok:  IExCor=  402 AccDes= 0.00D+00 IRadAn=         5 IDoV= 1 UseB2=F ITyADJ=14
 ICtDFT=  3500011 ScaDFX=  1.000000  1.000000  1.000000  1.000000
 FoFCou: FMM=F IPFlag=           0 FMFlag=      100000 FMFlg1=           0
         NFxFlg=           0 DoJE=T BraDBF=F KetDBF=T FulRan=T
         wScrn=  0.000000 ICntrl=       500 IOpCl=  0 I1Cent=   200000004 NGrid=           0
         NMat0=    1 NMatS0=      1 NMatT0=    0 NMatD0=    1 NMtDS0=    0 NMtDT0=    0
 Petite list used in FoFCou.
 Initial guess orbital symmetries:
       Occupied  (A') (A') (A') (A") (A') (A") (A') (A") (A') (A')
                 (A') (A') (A") (A') (A') (A") (A') (A") (A') (A')
                 (A') (A') (A') (A") (A") (A') (A") (A') (A') (A")
                 (A") (A') (A") (A') (A") (A') (A') (A")
       Virtual   (A') (A') (A') (A') (A") (A') (A") (A") (A') (A')
                 (A') (A') (A") (A") (A') (A") (A') (A") (A') (A')
                 (A") (A') (A') (A") (A") (A') (A') (A") (A') (A")
                 (A') (A") (A') (A') (A") (A') (A') (A") (A") (A')
                 (A') (A") (A') (A") (A') (A") (A') (A') (A") (A')
                 (A') (A') (A") (A") (A') (A') (A") (A') (A') (A")
                 (A') (A') (A") (A') (A') (A') (A") (A') (A") (A')
                 (A") (A') (A") (A') (A") (A') (A') (A") (A') (A')
                 (A") (A') (A") (A") (A") (A') (A") (A') (A") (A")
                 (A') (A") (A') (A') (A') (A") (A') (A') (A') (A')
                 (A") (A') (A") (A") (A') (A") (A') (A') (A") (A")
                 (A') (A") (A') (A') (A') (A") (A") (A") (A') (A')
                 (A') (A") (A') (A') (A") (A') (A") (A') (A') (A")
                 (A') (A') (A') (A") (A') (A") (A') (A') (A') (A")
 The electronic state of the initial guess is 1-A'.
 Keep R1 ints in memory in symmetry-blocked form, NReq=190534809.
 Requested convergence on RMS density matrix=1.00D-08 within 128 cycles.
 Requested convergence on MAX density matrix=1.00D-06.
 Requested convergence on             energy=1.00D-06.
 No special actions if energy rises.
 Integral accuracy reduced to 1.0D-05 until final iterations.
 Initial convergence to 1.0D-05 achieved.  Increase integral accuracy.
 SCF Done:  E(RB3LYP) =  -426.625338666     A.U. after   13 cycles
            NFock= 13  Conv=0.52D-08     -V/T= 2.0097
 DoSCS=F DFT=T ScalE2(SS,OS)=  1.000000  1.000000
 Range of M.O.s used for correlation:     1   178
 NBasis=   178 NAE=    38 NBE=    38 NFC=     0 NFV=     0
 NROrb=    178 NOA=    38 NOB=    38 NVA=   140 NVB=   140
 Symmetrizing basis deriv contribution to polar:
 IMax=3 JMax=2 DiffMx= 0.00D+00
 G2DrvN: will do    25 centers at a time, making    1 passes.
 Calling FoFCou, ICntrl=  3107 FMM=F I1Cent=   0 AccDes= 0.00D+00.
 End of G2Drv F.D. properties file   721 does not exist.
 End of G2Drv F.D. properties file   722 does not exist.
 End of G2Drv F.D. properties file   788 does not exist.
          IDoAtm=111111111111111111111111
          Differentiating once with respect to electric field.
                with respect to dipole field.
          Differentiating once with respect to nuclear coordinates.
 Keep R1 ints in memory in symmetry-blocked form, NReq=190544485.
          There are    51 degrees of freedom in the 1st order CPHF.  IDoFFX=4 NUNeed=    51.
     51 vectors produced by pass  0 Test12= 1.04D-14 1.96D-09 XBig12= 6.48D+01 2.74D+00.
 AX will form    51 AO Fock derivatives at one time.
     51 vectors produced by pass  1 Test12= 1.04D-14 1.96D-09 XBig12= 6.66D+00 6.75D-01.
     51 vectors produced by pass  2 Test12= 1.04D-14 1.96D-09 XBig12= 1.06D-01 4.20D-02.
     51 vectors produced by pass  3 Test12= 1.04D-14 1.96D-09 XBig12= 7.00D-04 4.03D-03.
     51 vectors produced by pass  4 Test12= 1.04D-14 1.96D-09 XBig12= 1.88D-06 1.41D-04.
     40 vectors produced by pass  5 Test12= 1.04D-14 1.96D-09 XBig12= 1.95D-09 4.15D-06.
      6 vectors produced by pass  6 Test12= 1.04D-14 1.96D-09 XBig12= 1.48D-12 1.26D-07.
      3 vectors produced by pass  7 Test12= 1.04D-14 1.96D-09 XBig12= 1.28D-15 3.98D-09.
 InvSVY:  IOpt=1 It=  1 EMax= 1.78D-15
 Solved reduced A of dimension   304 with    51 vectors.
 Isotropic polarizability for W=    0.000000       88.58 Bohr**3.
 End of Minotr F.D. properties file   721 does not exist.
 End of Minotr F.D. properties file   722 does not exist.
 End of Minotr F.D. properties file   788 does not exist.

 **********************************************************************

            Population analysis using the SCF density.

 **********************************************************************

 Orbital symmetries:
       Occupied  (A') (A') (A") (A') (A") (A') (A') (A') (A") (A')
                 (A') (A') (A") (A') (A') (A") (A') (A") (A') (A')
                 (A') (A') (A') (A") (A") (A') (A') (A") (A') (A")
                 (A') (A") (A') (A") (A') (A") (A') (A")
       Virtual   (A') (A') (A") (A') (A') (A') (A') (A") (A') (A")
                 (A') (A') (A") (A") (A') (A") (A') (A") (A') (A')
                 (A') (A") (A') (A") (A") (A') (A") (A') (A') (A")
                 (A') (A") (A') (A") (A') (A') (A') (A") (A') (A")
                 (A') (A") (A') (A") (A') (A") (A') (A') (A") (A')
                 (A') (A') (A") (A") (A') (A') (A") (A') (A') (A')
                 (A") (A') (A") (A') (A') (A') (A') (A") (A") (A')
                 (A") (A') (A') (A") (A") (A') (A') (A") (A') (A')
                 (A") (A") (A') (A") (A') (A") (A") (A') (A") (A")
                 (A') (A') (A") (A') (A') (A") (A') (A') (A') (A')
                 (A") (A') (A") (A") (A') (A") (A') (A') (A") (A')
                 (A") (A") (A') (A') (A") (A') (A") (A') (A") (A')
                 (A') (A') (A") (A') (A') (A") (A") (A') (A') (A")
                 (A') (A') (A') (A") (A') (A") (A') (A') (A') (A")
 The electronic state is 1-A'.
 Alpha  occ. eigenvalues --  -19.12855 -10.26790 -10.19575 -10.19574 -10.18798
 Alpha  occ. eigenvalues --  -10.18797 -10.18547 -10.18311 -10.18310 -10.18172
 Alpha  occ. eigenvalues --   -1.02868  -0.85272  -0.77349  -0.76571  -0.71966
 Alpha  occ. eigenvalues --   -0.68331  -0.61404  -0.59179  -0.55107  -0.52187
 Alpha  occ. eigenvalues --   -0.47155  -0.46257  -0.45245  -0.44041  -0.43846
 Alpha  occ. eigenvalues --   -0.41793  -0.40797  -0.40497  -0.37932  -0.37548
 Alpha  occ. eigenvalues --   -0.35267  -0.34846  -0.33842  -0.33641  -0.30720
 Alpha  occ. eigenvalues --   -0.30153  -0.29783  -0.23245
 Alpha virt. eigenvalues --   -0.00955   0.06871   0.11154   0.11177   0.12703
 Alpha virt. eigenvalues --    0.12874   0.14781   0.14954   0.15811   0.16665
 Alpha virt. eigenvalues --    0.17578   0.18099   0.18262   0.19224   0.21018
 Alpha virt. eigenvalues --    0.21394   0.21444   0.22653   0.23987   0.25031
 Alpha virt. eigenvalues --    0.26164   0.26689   0.27903   0.29925   0.34017
 Alpha virt. eigenvalues --    0.37784   0.50819   0.50860   0.52059   0.52439
 Alpha virt. eigenvalues --    0.52849   0.56084   0.57316   0.61455   0.61708
 Alpha virt. eigenvalues --    0.63275   0.64776   0.66102   0.67184   0.68465
 Alpha virt. eigenvalues --    0.70039   0.72167   0.72360   0.76146   0.76863
 Alpha virt. eigenvalues --    0.77906   0.78119   0.79658   0.82977   0.83783
 Alpha virt. eigenvalues --    0.85870   0.86368   0.87237   0.87924   0.88609
 Alpha virt. eigenvalues --    0.90944   0.91582   0.92420   0.93851   0.95681
 Alpha virt. eigenvalues --    0.95739   0.96695   0.97611   0.99549   1.00923
 Alpha virt. eigenvalues --    1.05114   1.11185   1.11207   1.11462   1.18623
 Alpha virt. eigenvalues --    1.19681   1.26115   1.33559   1.35091   1.36484
 Alpha virt. eigenvalues --    1.40308   1.47009   1.51413   1.56820   1.58459
 Alpha virt. eigenvalues --    1.62696   1.65616   1.65896   1.70583   1.71443
 Alpha virt. eigenvalues --    1.73057   1.78555   1.80163   1.81451   1.83081
 Alpha virt. eigenvalues --    1.84560   1.86932   1.87487   1.93085   1.94955
 Alpha virt. eigenvalues --    1.97456   1.98222   1.98811   2.01445   2.05413
 Alpha virt. eigenvalues --    2.05931   2.11002   2.12055   2.15834   2.17083
 Alpha virt. eigenvalues --    2.19554   2.20831   2.30496   2.30571   2.33126
 Alpha virt. eigenvalues --    2.33484   2.34011   2.35669   2.39291   2.40347
 Alpha virt. eigenvalues --    2.41936   2.48102   2.52171   2.54550   2.60590
 Alpha virt. eigenvalues --    2.61850   2.67169   2.67523   2.70424   2.73412
 Alpha virt. eigenvalues --    2.73498   2.78711   2.79160   2.99551   3.02564
 Alpha virt. eigenvalues --    4.07516   4.09600   4.22941   4.24439   4.34163
 Alpha virt. eigenvalues --    4.49320   4.55778   4.61558   4.67476   4.71203
          Condensed to atoms (all electrons):
               1          2          3          4          5          6
     1  O    8.041147   0.560652  -0.077048   0.002380   0.000069   0.000303
     2  C    0.560652   4.479113   0.327125  -0.016502  -0.018664  -0.003388
     3  C   -0.077048   0.327125   5.357939   0.319301  -0.047698  -0.050959
     4  C    0.002380  -0.016502   0.319301   4.953024   0.370920   0.386106
     5  C    0.000069  -0.018664  -0.047698   0.370920   5.096303  -0.045589
     6  C    0.000303  -0.003388  -0.050959   0.386106  -0.045589   5.032663
     7  C   -0.002634   0.002446  -0.004836  -0.036700  -0.018012   0.375822
     8  C    0.000303  -0.003388  -0.000371  -0.016801  -0.045589  -0.044972
     9  C    0.002380  -0.016502  -0.002488  -0.029259   0.370920  -0.016801
    10  C   -0.077048   0.327125  -0.140645  -0.002488  -0.047698  -0.000371
    11  H    0.000494  -0.029017   0.346840  -0.031284  -0.002309   0.005188
    12  H    0.003909  -0.024023   0.342995  -0.029504   0.004626  -0.004141
    13  H   -0.000076   0.003355  -0.034465   0.367243  -0.038363  -0.042234
    14  H    0.000002   0.000385   0.005006  -0.034356   0.362957  -0.003666
    15  H   -0.000009  -0.001519  -0.002514  -0.038279   0.365150   0.005131
    16  H   -0.000002  -0.000010   0.005482  -0.037573  -0.004435   0.368269
    17  H   -0.000004  -0.000328  -0.004991  -0.034404   0.005245   0.367315
    18  H    0.000039  -0.000168   0.000030   0.004482   0.000082  -0.032200
    19  H    0.002575   0.008637   0.001864  -0.005378   0.000136  -0.038248
    20  H   -0.000004  -0.000328  -0.000036   0.000137   0.005245   0.004600
    21  H   -0.000002  -0.000010   0.000101  -0.001013  -0.004435  -0.002615
    22  H   -0.000076   0.003355  -0.000164   0.005016  -0.038363   0.000207
    23  H    0.000494  -0.029017   0.004190  -0.001308  -0.002309   0.000033
    24  H    0.003909  -0.024023   0.006315  -0.000207   0.004626  -0.000019
               7          8          9         10         11         12
     1  O   -0.002634   0.000303   0.002380  -0.077048   0.000494   0.003909
     2  C    0.002446  -0.003388  -0.016502   0.327125  -0.029017  -0.024023
     3  C   -0.004836  -0.000371  -0.002488  -0.140645   0.346840   0.342995
     4  C   -0.036700  -0.016801  -0.029259  -0.002488  -0.031284  -0.029504
     5  C   -0.018012  -0.045589   0.370920  -0.047698  -0.002309   0.004626
     6  C    0.375822  -0.044972  -0.016801  -0.000371   0.005188  -0.004141
     7  C    5.034596   0.375822  -0.036700  -0.004836  -0.000089  -0.000174
     8  C    0.375822   5.032663   0.386106  -0.050959   0.000033  -0.000019
     9  C   -0.036700   0.386106   4.953024   0.319301  -0.001308  -0.000207
    10  C   -0.004836  -0.050959   0.319301   5.357939   0.004190   0.006315
    11  H   -0.000089   0.000033  -0.001308   0.004190   0.576520  -0.025167
    12  H   -0.000174  -0.000019  -0.000207   0.006315  -0.025167   0.562217
    13  H    0.004978   0.000207   0.005016  -0.000164  -0.006757  -0.002123
    14  H   -0.000865  -0.003666  -0.034356   0.005006  -0.000036  -0.000157
    15  H    0.000135   0.005131  -0.038279  -0.002514   0.004226  -0.000035
    16  H   -0.039372  -0.002615  -0.001013   0.000101  -0.000177  -0.000019
    17  H   -0.033818   0.004600   0.000137  -0.000036  -0.000059   0.004388
    18  H    0.367347  -0.032200   0.004482   0.000030   0.000003  -0.000021
    19  H    0.373633  -0.038248  -0.005378   0.001864   0.000084   0.000093
    20  H   -0.033818   0.367315  -0.034404  -0.004991  -0.000001  -0.000003
    21  H   -0.039372   0.368269  -0.037573   0.005482   0.000001  -0.000002
    22  H    0.004978  -0.042234   0.367243  -0.034465  -0.000023   0.000019
    23  H   -0.000089   0.005188  -0.031284   0.346840   0.000297  -0.000110
    24  H   -0.000174  -0.004141  -0.029504   0.342995  -0.000110  -0.000180
              13         14         15         16         17         18
     1  O   -0.000076   0.000002  -0.000009  -0.000002  -0.000004   0.000039
     2  C    0.003355   0.000385  -0.001519  -0.000010  -0.000328  -0.000168
     3  C   -0.034465   0.005006  -0.002514   0.005482  -0.004991   0.000030
     4  C    0.367243  -0.034356  -0.038279  -0.037573  -0.034404   0.004482
     5  C   -0.038363   0.362957   0.365150  -0.004435   0.005245   0.000082
     6  C   -0.042234  -0.003666   0.005131   0.368269   0.367315  -0.032200
     7  C    0.004978  -0.000865   0.000135  -0.039372  -0.033818   0.367347
     8  C    0.000207  -0.003666   0.005131  -0.002615   0.004600  -0.032200
     9  C    0.005016  -0.034356  -0.038279  -0.001013   0.000137   0.004482
    10  C   -0.000164   0.005006  -0.002514   0.000101  -0.000036   0.000030
    11  H   -0.006757  -0.000036   0.004226  -0.000177  -0.000059   0.000003
    12  H   -0.002123  -0.000157  -0.000035  -0.000019   0.004388  -0.000021
    13  H    0.633246  -0.003605  -0.003723  -0.004218  -0.002743  -0.000149
    14  H   -0.003605   0.602415  -0.034362   0.004829  -0.000042  -0.000073
    15  H   -0.003723  -0.034362   0.613888  -0.000049  -0.000172   0.000015
    16  H   -0.004218   0.004829  -0.000049   0.613528  -0.035761  -0.005901
    17  H   -0.002743  -0.000042  -0.000172  -0.035761   0.601820  -0.001596
    18  H   -0.000149  -0.000073   0.000015  -0.005901  -0.001596   0.597793
    19  H   -0.000062   0.000065  -0.000000   0.005248  -0.004646  -0.032254
    20  H    0.000014  -0.000042  -0.000172  -0.000078  -0.000154  -0.001596
    21  H   -0.000049   0.004829  -0.000049   0.003768  -0.000078  -0.005901
    22  H   -0.000186  -0.003605  -0.003723  -0.000049   0.000014  -0.000149
    23  H   -0.000023  -0.000036   0.004226   0.000001  -0.000001   0.000003
    24  H    0.000019  -0.000157  -0.000035  -0.000002  -0.000003  -0.000021
              19         20         21         22         23         24
     1  O    0.002575  -0.000004  -0.000002  -0.000076   0.000494   0.003909
     2  C    0.008637  -0.000328  -0.000010   0.003355  -0.029017  -0.024023
     3  C    0.001864  -0.000036   0.000101  -0.000164   0.004190   0.006315
     4  C   -0.005378   0.000137  -0.001013   0.005016  -0.001308  -0.000207
     5  C    0.000136   0.005245  -0.004435  -0.038363  -0.002309   0.004626
     6  C   -0.038248   0.004600  -0.002615   0.000207   0.000033  -0.000019
     7  C    0.373633  -0.033818  -0.039372   0.004978  -0.000089  -0.000174
     8  C   -0.038248   0.367315   0.368269  -0.042234   0.005188  -0.004141
     9  C   -0.005378  -0.034404  -0.037573   0.367243  -0.031284  -0.029504
    10  C    0.001864  -0.004991   0.005482  -0.034465   0.346840   0.342995
    11  H    0.000084  -0.000001   0.000001  -0.000023   0.000297  -0.000110
    12  H    0.000093  -0.000003  -0.000002   0.000019  -0.000110  -0.000180
    13  H   -0.000062   0.000014  -0.000049  -0.000186  -0.000023   0.000019
    14  H    0.000065  -0.000042   0.004829  -0.003605  -0.000036  -0.000157
    15  H   -0.000000  -0.000172  -0.000049  -0.003723   0.004226  -0.000035
    16  H    0.005248  -0.000078   0.003768  -0.000049   0.000001  -0.000002
    17  H   -0.004646  -0.000154  -0.000078   0.000014  -0.000001  -0.000003
    18  H   -0.032254  -0.001596  -0.005901  -0.000149   0.000003  -0.000021
    19  H    0.570245  -0.004646   0.005248  -0.000062   0.000084   0.000093
    20  H   -0.004646   0.601820  -0.035761  -0.002743  -0.000059   0.004388
    21  H    0.005248  -0.035761   0.613528  -0.004218  -0.000177  -0.000019
    22  H   -0.000062  -0.002743  -0.004218   0.633246  -0.006757  -0.002123
    23  H    0.000084  -0.000059  -0.000177  -0.006757   0.576520  -0.025167
    24  H    0.000093   0.004388  -0.000019  -0.002123  -0.025167   0.562217
 Mulliken charges:
               1
     1  O   -0.461752
     2  C    0.454698
     3  C   -0.350972
     4  C   -0.093553
     5  C   -0.272813
     6  C   -0.260434
     7  C   -0.288271
     8  C   -0.260434
     9  C   -0.093553
    10  C   -0.350972
    11  H    0.158462
    12  H    0.161325
    13  H    0.124864
    14  H    0.133531
    15  H    0.127530
    16  H    0.130044
    17  H    0.135316
    18  H    0.137923
    19  H    0.159052
    20  H    0.135316
    21  H    0.130044
    22  H    0.124864
    23  H    0.158462
    24  H    0.161325
 Sum of Mulliken charges =  -0.00000
 Mulliken charges with hydrogens summed into heavy atoms:
               1
     1  O   -0.461752
     2  C    0.454698
     3  C   -0.031185
     4  C    0.031311
     5  C   -0.011752
     6  C    0.004925
     7  C    0.008704
     8  C    0.004925
     9  C    0.031311
    10  C   -0.031185
 APT charges:
               1
     1  O   -0.647725
     2  C    0.720156
     3  C   -0.055740
     4  C    0.140775
     5  C    0.081092
     6  C    0.108770
     7  C    0.081820
     8  C    0.108770
     9  C    0.140775
    10  C   -0.055740
    11  H   -0.013328
    12  H   -0.022431
    13  H   -0.078902
    14  H   -0.047751
    15  H   -0.055412
    16  H   -0.053424
    17  H   -0.051873
    18  H   -0.051245
    19  H   -0.028626
    20  H   -0.051873
    21  H   -0.053424
    22  H   -0.078902
    23  H   -0.013328
    24  H   -0.022431
 Sum of APT charges =  -0.00000
 APT charges with hydrogens summed into heavy atoms:
               1
     1  O   -0.647725
     2  C    0.720156
     3  C   -0.091499
     4  C    0.061873
     5  C   -0.022072
     6  C    0.003473
     7  C    0.001949
     8  C    0.003473
     9  C    0.061873
    10  C   -0.091499
 Electronic spatial extent (au):  <R**2>=           1262.5609
 Charge=             -0.0000 electrons
 Dipole moment (field-independent basis, Debye):
    X=             -1.4358    Y=              2.6683    Z=             -0.0000  Tot=              3.0301
 Quadrupole moment (field-independent basis, Debye-Ang):
   XX=            -60.1456   YY=            -70.1454   ZZ=            -59.4497
   XY=              3.7679   XZ=             -0.0000   YZ=              0.0000
 Traceless Quadrupole moment (field-independent basis, Debye-Ang):
   XX=              3.1013   YY=             -6.8985   ZZ=              3.7971
   XY=              3.7679   XZ=             -0.0000   YZ=              0.0000
 Octapole moment (field-independent basis, Debye-Ang**2):
  XXX=              0.1038  YYY=             21.6258  ZZZ=             -0.0000  XYY=             -8.4821
  XXY=             -3.9326  XXZ=             -0.0000  XZZ=              0.2507  YZZ=             -5.3469
  YYZ=             -0.0000  XYZ=             -0.0000
 Hexadecapole moment (field-independent basis, Debye-Ang**3):
 XXXX=           -424.0539 YYYY=           -793.2695 ZZZZ=           -512.4023 XXXY=            -25.6401
 XXXZ=              0.0000 YYYX=             -8.8236 YYYZ=             -0.0000 ZZZX=              0.0000
 ZZZY=              0.0000 XXYY=           -191.7079 XXZZ=           -155.7367 YYZZ=           -205.8405
 XXYZ=              0.0000 YYXZ=              0.0000 ZZXY=            -12.2600
 N-N= 5.718955268352D+02 E-N=-2.133566145052D+03  KE= 4.225279383306D+02
 Symmetry A'   KE= 2.969492315402D+02
 Symmetry A"   KE= 1.255787067904D+02
  Exact polarizability:  85.131  -0.988  92.114  -0.000   0.000  88.485
 Approx polarizability: 125.535  -9.221 136.193   0.000  -0.000 122.201
 Calling FoFJK, ICntrl=    100127 FMM=F ISym2X=1 I1Cent= 0 IOpClX= 0 NMat=1 NMatS=1 NMatT=0.
 Full mass-weighted force constant matrix:
 Low frequencies ---   -8.9282    0.0004    0.0007    0.0010    9.1955   14.4144
 Low frequencies ---   99.4460  143.2951  254.1044
 Diagonal vibrational polarizability:
        8.1863488       5.4373847       4.5731462
 Harmonic frequencies (cm**-1), IR intensities (KM/Mole), Raman scattering
 activities (A**4/AMU), depolarization ratios for plane and unpolarized
 incident light, reduced masses (AMU), force constants (mDyne/A),
 and normal coordinates:
                      1                      2                      3
                     A'                     A"                     A'
 Frequencies --     99.4454               143.2905               254.1042
 Red. masses --      5.2810                 2.6092                 2.1934
 Frc consts  --      0.0308                 0.0316                 0.0834
 IR Inten    --      3.5489                 0.5205                 0.1394
  Atom  AN      X      Y      Z        X      Y      Z        X      Y      Z
     1   8     0.33   0.28   0.00    -0.00  -0.00   0.12    -0.00  -0.03   0.00
     2   6    -0.00   0.07   0.00    -0.00  -0.00   0.06    -0.05  -0.06   0.00
     3   6    -0.17  -0.01   0.03     0.15   0.02   0.00    -0.08  -0.05   0.02
     4   6    -0.04  -0.00   0.00    -0.01   0.03  -0.00     0.03  -0.04   0.00
     5   6     0.02   0.08   0.00    -0.00  -0.00   0.01     0.08   0.03  -0.00
     6   6     0.02  -0.14  -0.01    -0.07   0.15  -0.03     0.02  -0.01  -0.05
     7   6    -0.00  -0.16  -0.00     0.00   0.00  -0.12     0.06   0.25  -0.00
     8   6     0.02  -0.14   0.01     0.07  -0.15  -0.03     0.02  -0.01   0.05
     9   6    -0.04  -0.00  -0.00     0.01  -0.03  -0.00     0.03  -0.04  -0.00
    10   6    -0.17  -0.01  -0.03    -0.15  -0.02   0.00    -0.08  -0.05  -0.02
    11   1    -0.23   0.07   0.19     0.21  -0.08  -0.16    -0.13   0.04   0.11
    12   1    -0.30  -0.07  -0.04     0.30   0.09   0.08    -0.18  -0.11  -0.02
    13   1    -0.01   0.03  -0.00    -0.07  -0.03   0.01     0.02  -0.05   0.00
    14   1     0.15   0.09   0.00    -0.00  -0.00   0.02     0.20   0.04  -0.00
    15   1    -0.03   0.20   0.00     0.00  -0.00   0.03     0.04   0.14  -0.00
    16   1     0.11  -0.13  -0.05    -0.16   0.16   0.13    -0.05  -0.04  -0.25
    17   1    -0.01  -0.22   0.00    -0.10   0.32  -0.12     0.06  -0.13   0.02
    18   1     0.01  -0.18  -0.00     0.00  -0.00  -0.09    -0.10   0.51   0.00
    19   1    -0.02  -0.16  -0.00    -0.00   0.00  -0.28     0.35   0.32  -0.00
    20   1    -0.01  -0.22  -0.00     0.10  -0.32  -0.12     0.06  -0.13  -0.02
    21   1     0.11  -0.13   0.05     0.16  -0.16   0.13    -0.05  -0.04   0.25
    22   1    -0.01   0.03   0.00     0.07   0.03   0.01     0.02  -0.05  -0.00
    23   1    -0.23   0.07  -0.19    -0.21   0.08  -0.16    -0.13   0.04  -0.11
    24   1    -0.30  -0.07   0.04    -0.30  -0.09   0.08    -0.18  -0.11   0.02
                      4                      5                      6
                     A"                     A'                     A"
 Frequencies --    338.6562               356.9774               369.1862
 Red. masses --      1.8549                 2.6767                 3.6967
 Frc consts  --      0.1253                 0.2010                 0.2969
 IR Inten    --      0.1227                 0.4445                 1.8396
  Atom  AN      X      Y      Z        X      Y      Z        X      Y      Z
     1   8     0.00  -0.00  -0.01     0.02  -0.13   0.00     0.00  -0.00  -0.06
     2   6     0.00  -0.00  -0.03     0.15  -0.04  -0.00     0.00  -0.00   0.11
     3   6     0.09   0.02  -0.05     0.06   0.01   0.06     0.03   0.14   0.16
     4   6    -0.04   0.01   0.07    -0.06   0.02   0.01     0.10   0.14   0.01
     5   6     0.00   0.00   0.11     0.06   0.22  -0.00     0.00   0.00   0.00
     6   6     0.00  -0.11  -0.04    -0.06  -0.03  -0.05     0.13   0.04  -0.14
     7   6    -0.00   0.00  -0.01    -0.13  -0.03   0.00    -0.00  -0.00  -0.09
     8   6    -0.00   0.11  -0.04    -0.06  -0.03   0.05    -0.13  -0.04  -0.14
     9   6     0.04  -0.01   0.07    -0.06   0.02  -0.01    -0.10  -0.14   0.01
    10   6    -0.09  -0.02  -0.05     0.06   0.01  -0.06    -0.03  -0.14   0.16
    11   1     0.18  -0.12  -0.24     0.08  -0.10   0.15    -0.02   0.23   0.23
    12   1     0.29   0.18   0.02     0.01   0.09  -0.02    -0.07   0.02   0.14
    13   1    -0.08   0.05   0.11    -0.09  -0.06  -0.01     0.05   0.06   0.00
    14   1     0.00   0.00   0.11     0.44   0.25  -0.00     0.00   0.00   0.20
    15   1    -0.00   0.00   0.14    -0.07   0.58  -0.00    -0.00   0.00  -0.20
    16   1     0.14  -0.12  -0.22     0.01  -0.03  -0.14     0.28   0.04  -0.27
    17   1    -0.07  -0.33   0.01    -0.04  -0.14   0.01     0.06  -0.16  -0.10
    18   1    -0.00   0.00  -0.06    -0.09  -0.09   0.00     0.00  -0.00   0.08
    19   1    -0.00   0.00   0.11    -0.18  -0.04  -0.00    -0.00  -0.00  -0.10
    20   1     0.07   0.33   0.01    -0.04  -0.14  -0.01    -0.06   0.16  -0.10
    21   1    -0.14   0.12  -0.22     0.01  -0.03   0.14    -0.28  -0.04  -0.27
    22   1     0.08  -0.05   0.11    -0.09  -0.06   0.01    -0.05  -0.06   0.00
    23   1    -0.18   0.12  -0.24     0.08  -0.10  -0.15     0.02  -0.23   0.23
    24   1    -0.29  -0.18   0.02     0.01   0.09   0.02     0.07  -0.02   0.14
                      7                      8                      9
                     A'                     A'                     A"
 Frequencies --    388.0475               446.8739               476.6863
 Red. masses --      1.8042                 2.3282                 4.2747
 Frc consts  --      0.1601                 0.2739                 0.5723
 IR Inten    --      0.5941                 2.3721                 9.9717
  Atom  AN      X      Y      Z        X      Y      Z        X      Y      Z
     1   8     0.04  -0.08  -0.00     0.02   0.08  -0.00    -0.00   0.00   0.35
     2   6     0.02  -0.08  -0.00    -0.16  -0.03  -0.00    -0.00  -0.00  -0.12
     3   6    -0.06  -0.04   0.05     0.00  -0.06  -0.08    -0.09   0.05  -0.16
     4   6     0.04  -0.01   0.03     0.03  -0.05  -0.06     0.00   0.12   0.01
     5   6     0.03   0.03  -0.00     0.17   0.02  -0.00    -0.00  -0.00   0.08
     6   6     0.00   0.11   0.07    -0.03   0.05  -0.03     0.06   0.03  -0.03
     7   6     0.03  -0.03   0.00    -0.10  -0.01   0.00     0.00  -0.00  -0.01
     8   6     0.00   0.11  -0.07    -0.03   0.05   0.03    -0.06  -0.03  -0.03
     9   6     0.04  -0.01  -0.03     0.03  -0.05   0.06    -0.00  -0.12   0.01
    10   6    -0.06  -0.04  -0.05     0.00  -0.06   0.08     0.09  -0.05  -0.16
    11   1    -0.14   0.11   0.24     0.05  -0.05  -0.35    -0.17   0.19   0.01
    12   1    -0.27  -0.11  -0.06     0.22  -0.06   0.08    -0.29   0.08  -0.33
    13   1     0.05  -0.03   0.01    -0.04  -0.02  -0.01    -0.02   0.22   0.07
    14   1     0.08   0.03  -0.00     0.45   0.04  -0.00     0.00  -0.00   0.20
    15   1     0.01   0.07   0.00     0.07   0.30   0.00    -0.00   0.00   0.01
    16   1    -0.13   0.12   0.30    -0.14   0.05   0.07     0.15   0.03  -0.09
    17   1     0.01   0.36  -0.03     0.07   0.19  -0.03     0.02  -0.06  -0.02
    18   1     0.10  -0.16  -0.00    -0.02  -0.14  -0.00     0.00   0.00   0.06
    19   1    -0.13  -0.08   0.00    -0.24  -0.05  -0.00     0.00   0.00  -0.03
    20   1     0.01   0.36   0.03     0.07   0.19   0.03    -0.02   0.06  -0.02
    21   1    -0.13   0.12  -0.30    -0.14   0.05  -0.07    -0.15  -0.03  -0.09
    22   1     0.05  -0.03  -0.01    -0.04  -0.02   0.01     0.02  -0.22   0.07
    23   1    -0.14   0.11  -0.24     0.05  -0.05   0.35     0.17  -0.19   0.01
    24   1    -0.27  -0.11   0.06     0.22  -0.06  -0.08     0.29  -0.08  -0.33
                     10                     11                     12
                     A'                     A'                     A"
 Frequencies --    494.0876               578.9705               627.3497
 Red. masses --      2.1577                 2.5431                 5.1101
 Frc consts  --      0.3103                 0.5023                 1.1849
 IR Inten    --      0.2638                 1.5135                 1.4772
  Atom  AN      X      Y      Z        X      Y      Z        X      Y      Z
     1   8     0.04   0.00  -0.00    -0.12   0.08  -0.00     0.00  -0.00  -0.06
     2   6    -0.08  -0.07   0.00     0.13   0.21   0.00     0.00  -0.00  -0.11
     3   6     0.01  -0.02  -0.00     0.02   0.01  -0.00     0.03  -0.15  -0.06
     4   6    -0.05  -0.01   0.08    -0.02  -0.09  -0.04     0.20  -0.15   0.21
     5   6    -0.09   0.12  -0.00     0.08  -0.05  -0.00     0.00   0.00   0.16
     6   6    -0.01  -0.04   0.11    -0.05  -0.06   0.05     0.12   0.05  -0.08
     7   6     0.16  -0.00   0.00     0.04  -0.04   0.00    -0.00  -0.00  -0.11
     8   6    -0.01  -0.04  -0.11    -0.05  -0.06  -0.05    -0.12  -0.05  -0.08
     9   6    -0.05  -0.01  -0.08    -0.02  -0.09   0.04    -0.20   0.15   0.21
    10   6     0.01  -0.02   0.00     0.02   0.01   0.00    -0.03   0.15  -0.06
    11   1     0.09  -0.12  -0.28     0.01  -0.09   0.24    -0.06   0.07   0.05
    12   1     0.24   0.14   0.09    -0.08  -0.09  -0.04    -0.12  -0.19  -0.15
    13   1     0.06  -0.00   0.02    -0.03  -0.02  -0.01     0.07  -0.12   0.30
    14   1     0.13   0.13  -0.00     0.34  -0.03   0.00     0.00   0.00  -0.09
    15   1    -0.16   0.31   0.00    -0.00   0.20   0.00     0.00   0.00  -0.03
    16   1    -0.05  -0.03   0.22    -0.19  -0.04   0.29    -0.11   0.04   0.00
    17   1    -0.11   0.08  -0.00    -0.03   0.22  -0.04     0.06   0.19  -0.18
    18   1     0.01   0.25  -0.00    -0.13   0.26  -0.00    -0.00   0.00   0.17
    19   1     0.39   0.06  -0.00     0.35   0.05  -0.00     0.00  -0.00  -0.20
    20   1    -0.11   0.08   0.00    -0.03   0.22   0.04    -0.06  -0.19  -0.18
    21   1    -0.05  -0.03  -0.22    -0.19  -0.04  -0.29     0.11  -0.04   0.00
    22   1     0.06  -0.00  -0.02    -0.03  -0.02   0.01    -0.07   0.12   0.30
    23   1     0.09  -0.12   0.28     0.01  -0.09  -0.24     0.06  -0.07   0.05
    24   1     0.24   0.14  -0.09    -0.08  -0.09   0.04     0.12   0.19  -0.15
                     13                     14                     15
                     A'                     A'                     A"
 Frequencies --    720.0321               767.5064               775.5629
 Red. masses --      3.5679                 2.7684                 2.1805
 Frc consts  --      1.0898                 0.9608                 0.7728
 IR Inten    --      0.9639                 0.6145                 2.5807
  Atom  AN      X      Y      Z        X      Y      Z        X      Y      Z
     1   8    -0.06   0.12  -0.00     0.05  -0.04   0.00    -0.00   0.00   0.02
     2   6    -0.11   0.07  -0.00    -0.04  -0.09  -0.00     0.00   0.00  -0.08
     3   6     0.06  -0.01   0.22     0.01   0.11   0.02     0.11   0.10   0.01
     4   6     0.07  -0.09   0.16     0.07   0.05   0.07     0.06  -0.02   0.04
     5   6    -0.00  -0.02   0.00     0.18  -0.05  -0.00    -0.00  -0.00  -0.07
     6   6    -0.01   0.01   0.04    -0.10  -0.08   0.06    -0.10  -0.08   0.05
     7   6    -0.05   0.05  -0.00    -0.14  -0.04  -0.00     0.00   0.00  -0.05
     8   6    -0.01   0.01  -0.04    -0.10  -0.08  -0.06     0.10   0.08   0.05
     9   6     0.07  -0.09  -0.16     0.07   0.05  -0.07    -0.06   0.02   0.04
    10   6     0.06  -0.01  -0.22     0.01   0.11  -0.02    -0.11  -0.10   0.01
    11   1     0.06   0.04   0.12    -0.03   0.26  -0.06    -0.02   0.28   0.35
    12   1     0.12  -0.04   0.28    -0.02   0.18  -0.04    -0.24   0.04  -0.22
    13   1     0.10  -0.27   0.08     0.01   0.10   0.13     0.09  -0.08   0.00
    14   1     0.06  -0.02  -0.00    -0.07  -0.07  -0.00     0.00   0.00  -0.19
    15   1    -0.01   0.00  -0.00     0.27  -0.29  -0.00    -0.00   0.00  -0.16
    16   1    -0.06  -0.02  -0.17    -0.08  -0.07   0.15    -0.12  -0.08   0.04
    17   1    -0.05  -0.16   0.09    -0.08  -0.02   0.05    -0.15  -0.07   0.01
    18   1     0.13  -0.26   0.00    -0.37   0.34  -0.00     0.00  -0.00  -0.29
    19   1    -0.38  -0.04  -0.00     0.25   0.08   0.00    -0.00  -0.00   0.01
    20   1    -0.05  -0.16  -0.09    -0.08  -0.02  -0.05     0.15   0.07   0.01
    21   1    -0.06  -0.02   0.17    -0.08  -0.07  -0.15     0.12   0.08   0.04
    22   1     0.10  -0.27  -0.08     0.01   0.10  -0.13    -0.09   0.08   0.00
    23   1     0.06   0.04  -0.12    -0.03   0.26   0.06     0.02  -0.28   0.35
    24   1     0.12  -0.04  -0.28    -0.02   0.18   0.04     0.24  -0.04  -0.22
                     16                     17                     18
                     A'                     A"                     A'
 Frequencies --    821.7642               838.6983               855.7326
 Red. masses --      2.1450                 1.7446                 2.5062
 Frc consts  --      0.8534                 0.7230                 1.0813
 IR Inten    --      2.0969                 0.1297                 0.3291
  Atom  AN      X      Y      Z        X      Y      Z        X      Y      Z
     1   8    -0.01  -0.01  -0.00     0.00   0.00  -0.02     0.01  -0.02   0.00
     2   6     0.07   0.03   0.00    -0.00  -0.00  -0.03     0.02  -0.01  -0.00
     3   6    -0.02   0.01  -0.13     0.10  -0.06  -0.01    -0.04   0.05   0.01
     4   6     0.01  -0.03   0.08    -0.07   0.00  -0.05    -0.08  -0.01   0.09
     5   6    -0.00  -0.08   0.00    -0.00  -0.00   0.06     0.13  -0.12  -0.00
     6   6    -0.00   0.01   0.13    -0.00   0.08  -0.00    -0.03   0.04  -0.12
     7   6    -0.02   0.09   0.00    -0.00  -0.00   0.08     0.18  -0.03   0.00
     8   6    -0.00   0.01  -0.13     0.00  -0.08  -0.00    -0.03   0.04   0.12
     9   6     0.01  -0.03  -0.08     0.07  -0.00  -0.05    -0.08  -0.01  -0.09
    10   6    -0.02   0.01   0.13    -0.10   0.06  -0.01    -0.04   0.05  -0.01
    11   1    -0.05   0.05  -0.03     0.02  -0.02   0.37     0.01  -0.05  -0.06
    12   1    -0.10   0.06  -0.21    -0.18  -0.21  -0.15     0.03   0.23  -0.02
    13   1     0.11   0.16   0.09    -0.15  -0.09  -0.03    -0.29   0.04   0.23
    14   1     0.35  -0.06   0.00    -0.00  -0.00   0.04     0.22  -0.12  -0.00
    15   1    -0.12   0.24   0.00    -0.00  -0.00   0.26     0.09  -0.02   0.00
    16   1     0.03  -0.02  -0.16     0.15   0.07  -0.25    -0.06   0.04  -0.10
    17   1    -0.04  -0.25   0.21     0.05  -0.19   0.14    -0.24   0.03  -0.24
    18   1     0.17  -0.23   0.00    -0.00   0.00   0.17     0.29  -0.20   0.00
    19   1    -0.36  -0.01  -0.00     0.00   0.00  -0.08    -0.03  -0.09   0.00
    20   1    -0.04  -0.25  -0.21    -0.05   0.19   0.14    -0.24   0.03   0.24
    21   1     0.03  -0.02   0.16    -0.15  -0.07  -0.25    -0.06   0.04   0.10
    22   1     0.11   0.16  -0.09     0.15   0.09  -0.03    -0.29   0.04  -0.23
    23   1    -0.05   0.05   0.03    -0.02   0.02   0.37     0.01  -0.05   0.06
    24   1    -0.10   0.06   0.21     0.18   0.21  -0.15     0.03   0.23   0.02
                     19                     20                     21
                     A"                     A'                     A"
 Frequencies --    891.9997               936.6845               962.0545
 Red. masses --      1.5325                 1.7888                 2.1366
 Frc consts  --      0.7184                 0.9247                 1.1651
 IR Inten    --      1.4101                 1.9188                 2.3652
  Atom  AN      X      Y      Z        X      Y      Z        X      Y      Z
     1   8    -0.00   0.00  -0.00     0.02   0.01  -0.00     0.00   0.00   0.03
     2   6     0.00   0.00  -0.01    -0.10  -0.06   0.00    -0.00   0.00  -0.06
     3   6     0.05   0.01   0.00     0.10   0.06  -0.01    -0.02   0.11   0.03
     4   6    -0.03   0.01  -0.06     0.02  -0.02  -0.03    -0.07  -0.11   0.04
     5   6     0.00   0.00   0.09    -0.11  -0.08   0.00     0.00  -0.00  -0.07
     6   6     0.06  -0.08  -0.05    -0.03   0.01  -0.04     0.04   0.04  -0.07
     7   6    -0.00   0.00   0.01     0.03  -0.05  -0.00    -0.00  -0.00   0.11
     8   6    -0.06   0.08  -0.05    -0.03   0.01   0.04    -0.04  -0.04  -0.07
     9   6     0.03  -0.01  -0.06     0.02  -0.02   0.03     0.07   0.11   0.04
    10   6    -0.05  -0.01   0.00     0.10   0.06   0.01     0.02  -0.11   0.03
    11   1     0.03  -0.04   0.20    -0.04   0.41   0.12     0.02   0.00  -0.01
    12   1    -0.07  -0.04  -0.06    -0.15  -0.14  -0.10    -0.01   0.37  -0.08
    13   1    -0.09   0.03  -0.01     0.01  -0.11  -0.07    -0.17  -0.25   0.04
    14   1    -0.00   0.00   0.18     0.36  -0.05   0.00     0.00  -0.00  -0.38
    15   1     0.00  -0.00   0.16    -0.27   0.36   0.00    -0.00   0.00   0.07
    16   1    -0.06  -0.04   0.39     0.06   0.02  -0.04    -0.10   0.03  -0.08
    17   1     0.09   0.34  -0.20    -0.12  -0.04  -0.08     0.08   0.07  -0.06
    18   1     0.00  -0.00  -0.02    -0.04   0.07  -0.00    -0.00   0.00   0.44
    19   1    -0.00   0.00   0.37     0.14  -0.02   0.00     0.00   0.00   0.08
    20   1    -0.09  -0.34  -0.20    -0.12  -0.04   0.08    -0.08  -0.07  -0.06
    21   1     0.06   0.04   0.39     0.06   0.02   0.04     0.10  -0.03  -0.08
    22   1     0.09  -0.03  -0.01     0.01  -0.11   0.07     0.17   0.25   0.04
    23   1    -0.03   0.04   0.20    -0.04   0.41  -0.12    -0.02  -0.00  -0.01
    24   1     0.07   0.04  -0.06    -0.15  -0.14   0.10     0.01  -0.37  -0.08
                     22                     23                     24
                     A'                     A'                     A'
 Frequencies --    968.3449               992.8947              1039.0965
 Red. masses --      1.9923                 2.3551                 2.7568
 Frc consts  --      1.1007                 1.3679                 1.7537
 IR Inten    --      1.4116                 0.9997                 1.0892
  Atom  AN      X      Y      Z        X      Y      Z        X      Y      Z
     1   8    -0.01  -0.00   0.00     0.03  -0.05   0.00    -0.03   0.02  -0.00
     2   6     0.04   0.02  -0.00     0.02  -0.03   0.00     0.04   0.04   0.00
     3   6    -0.01   0.04  -0.07    -0.07   0.14   0.07    -0.02  -0.05  -0.05
     4   6     0.08  -0.08   0.04    -0.04  -0.07  -0.07     0.03  -0.03   0.17
     5   6    -0.07   0.12  -0.00    -0.05  -0.10   0.00    -0.09  -0.02   0.00
     6   6    -0.03  -0.06  -0.08     0.09  -0.03   0.01     0.10   0.05  -0.09
     7   6     0.02   0.04   0.00    -0.06   0.05   0.00    -0.16  -0.09   0.00
     8   6    -0.03  -0.06   0.08     0.09  -0.03  -0.01     0.10   0.05   0.09
     9   6     0.08  -0.08  -0.04    -0.04  -0.07   0.07     0.03  -0.03  -0.17
    10   6    -0.01   0.04   0.07    -0.07   0.14  -0.07    -0.02  -0.05   0.05
    11   1    -0.03   0.13  -0.08     0.02  -0.04  -0.14    -0.03  -0.03  -0.05
    12   1    -0.05   0.17  -0.17     0.09   0.37   0.08    -0.03   0.09  -0.12
    13   1     0.22  -0.14  -0.07     0.01  -0.11  -0.11    -0.11  -0.04   0.25
    14   1    -0.28   0.11  -0.00     0.25  -0.08  -0.00     0.11  -0.00  -0.00
    15   1     0.02  -0.12   0.00    -0.15   0.18   0.00    -0.15   0.14  -0.00
    16   1    -0.38  -0.08  -0.00    -0.07  -0.03   0.10     0.21   0.08   0.12
    17   1    -0.04   0.16  -0.18     0.35   0.15   0.09     0.15   0.12  -0.09
    18   1     0.14  -0.17   0.00    -0.01  -0.03   0.00    -0.40   0.31  -0.00
    19   1    -0.18  -0.03   0.00    -0.10   0.03  -0.00     0.31   0.05   0.00
    20   1    -0.04   0.16   0.18     0.35   0.15  -0.09     0.15   0.12   0.09
    21   1    -0.38  -0.08   0.00    -0.07  -0.03  -0.10     0.21   0.08  -0.12
    22   1     0.22  -0.14   0.07     0.01  -0.11   0.11    -0.11  -0.04  -0.25
    23   1    -0.03   0.13   0.08     0.02  -0.04   0.14    -0.03  -0.03   0.05
    24   1    -0.05   0.17   0.17     0.09   0.37  -0.08    -0.03   0.09   0.12
                     25                     26                     27
                     A"                     A"                     A"
 Frequencies --   1057.3602              1076.6796              1115.9510
 Red. masses --      1.7360                 2.0928                 1.2429
 Frc consts  --      1.1435                 1.4294                 0.9120
 IR Inten    --      0.3464                 3.5986                10.3620
  Atom  AN      X      Y      Z        X      Y      Z        X      Y      Z
     1   8     0.00   0.00   0.01     0.00  -0.00  -0.01    -0.00   0.00   0.01
     2   6    -0.00   0.00   0.03     0.00   0.00   0.07    -0.00  -0.00  -0.10
     3   6    -0.01   0.07  -0.01     0.00   0.00  -0.03    -0.01  -0.03   0.04
     4   6     0.05  -0.09  -0.08     0.07   0.01  -0.02     0.03   0.03  -0.01
     5   6     0.00   0.00   0.14    -0.00  -0.00   0.05     0.00   0.00   0.01
     6   6     0.00  -0.00   0.02    -0.12   0.00  -0.09    -0.03  -0.01  -0.02
     7   6     0.00  -0.00  -0.03     0.00   0.00   0.18     0.00   0.00   0.04
     8   6    -0.00   0.00   0.02     0.12  -0.00  -0.09     0.03   0.01  -0.02
     9   6    -0.05   0.09  -0.08    -0.07  -0.01  -0.02    -0.03  -0.03  -0.01
    10   6     0.01  -0.07  -0.01    -0.00  -0.00  -0.03     0.01   0.03   0.04
    11   1    -0.04   0.25  -0.15    -0.07   0.30  -0.16     0.06  -0.27   0.10
    12   1     0.02   0.00   0.05     0.02  -0.23   0.09     0.01   0.21  -0.06
    13   1     0.14  -0.15  -0.16    -0.10   0.05   0.09     0.17  -0.13  -0.15
    14   1    -0.00   0.00   0.20     0.00  -0.00   0.10    -0.00   0.00   0.57
    15   1     0.00  -0.00   0.51    -0.00   0.00  -0.17     0.00  -0.00  -0.23
    16   1    -0.14  -0.03  -0.12    -0.24  -0.01  -0.13    -0.25  -0.04  -0.11
    17   1     0.23  -0.02   0.16    -0.15   0.01  -0.12     0.05   0.02   0.02
    18   1     0.00  -0.00  -0.13     0.00  -0.00   0.35     0.00  -0.00   0.13
    19   1    -0.00  -0.00  -0.26    -0.00  -0.00   0.33    -0.00   0.00  -0.10
    20   1    -0.23   0.02   0.16     0.15  -0.01  -0.12    -0.05  -0.02   0.02
    21   1     0.14   0.03  -0.12     0.24   0.01  -0.13     0.25   0.04  -0.11
    22   1    -0.14   0.15  -0.16     0.10  -0.05   0.09    -0.17   0.13  -0.15
    23   1     0.04  -0.25  -0.15     0.07  -0.30  -0.16    -0.06   0.27   0.10
    24   1    -0.02  -0.00   0.05    -0.02   0.23   0.09    -0.01  -0.21  -0.06
                     28                     29                     30
                     A'                     A'                     A"
 Frequencies --   1116.5806              1137.4160              1140.5279
 Red. masses --      1.8219                 1.6845                 1.0505
 Frc consts  --      1.3383                 1.2840                 0.8051
 IR Inten    --      3.4047                 4.2485                 1.3591
  Atom  AN      X      Y      Z        X      Y      Z        X      Y      Z
     1   8     0.01  -0.04   0.00     0.01   0.00  -0.00    -0.00   0.00   0.00
     2   6     0.08   0.04  -0.00    -0.04  -0.02   0.00    -0.00  -0.00  -0.03
     3   6    -0.09  -0.01   0.04     0.04  -0.01   0.01     0.00  -0.02   0.01
     4   6     0.10   0.05  -0.02    -0.01   0.08   0.03    -0.01   0.01   0.01
     5   6    -0.06  -0.08   0.00    -0.04  -0.05   0.00    -0.00  -0.00  -0.02
     6   6    -0.04   0.02  -0.03     0.04  -0.10  -0.03     0.01   0.01   0.01
     7   6    -0.01  -0.04   0.00    -0.04   0.10   0.00    -0.00   0.00  -0.02
     8   6    -0.04   0.02   0.03     0.04  -0.10   0.03    -0.01  -0.01   0.01
     9   6     0.10   0.05   0.02    -0.01   0.08  -0.03     0.01  -0.01   0.01
    10   6    -0.09  -0.01  -0.04     0.04  -0.01  -0.01    -0.00   0.02   0.01
    11   1    -0.02  -0.09  -0.19     0.03  -0.07   0.15    -0.02   0.11  -0.07
    12   1     0.17  -0.07   0.25    -0.00  -0.21   0.07     0.01  -0.01   0.01
    13   1     0.34   0.17  -0.11    -0.02   0.40   0.16     0.28  -0.17  -0.23
    14   1     0.24  -0.06   0.00     0.12  -0.03   0.00     0.00  -0.00   0.06
    15   1    -0.15   0.18  -0.00    -0.10   0.13  -0.00    -0.00   0.00   0.39
    16   1    -0.03   0.02  -0.08    -0.21  -0.10   0.17     0.14   0.03   0.07
    17   1    -0.27  -0.05  -0.14     0.08   0.20  -0.13    -0.37  -0.05  -0.20
    18   1    -0.07   0.06   0.00     0.09  -0.12  -0.00    -0.00   0.00   0.24
    19   1     0.08  -0.01  -0.00    -0.23   0.04  -0.00    -0.00   0.00   0.16
    20   1    -0.27  -0.05   0.14     0.08   0.20   0.13     0.37   0.05  -0.20
    21   1    -0.03   0.02   0.08    -0.21  -0.10  -0.17    -0.14  -0.03   0.07
    22   1     0.34   0.17   0.11    -0.02   0.40  -0.16    -0.28   0.17  -0.23
    23   1    -0.02  -0.09   0.19     0.03  -0.07  -0.15     0.02  -0.11  -0.07
    24   1     0.17  -0.07  -0.25    -0.00  -0.21  -0.07    -0.01   0.01   0.01
                     31                     32                     33
                     A"                     A"                     A'
 Frequencies --   1159.1978              1246.9351              1248.1849
 Red. masses --      1.1659                 1.8528                 1.1670
 Frc consts  --      0.9230                 1.6973                 1.0712
 IR Inten    --     12.6550                31.9616                 2.1180
  Atom  AN      X      Y      Z        X      Y      Z        X      Y      Z
     1   8     0.00  -0.00  -0.01     0.00  -0.00  -0.04     0.01  -0.04   0.00
     2   6     0.00   0.00   0.08     0.00   0.00   0.24     0.08   0.05  -0.00
     3   6     0.01   0.03  -0.04     0.02  -0.04  -0.06    -0.02  -0.00   0.00
     4   6    -0.01  -0.01  -0.00    -0.03  -0.03   0.02    -0.01  -0.01   0.00
     5   6     0.00   0.00  -0.00    -0.00   0.00  -0.04    -0.01   0.02   0.00
     6   6     0.02  -0.02   0.01     0.01  -0.00   0.01    -0.01  -0.02   0.01
     7   6     0.00   0.00  -0.02     0.00   0.00  -0.02     0.02   0.03   0.00
     8   6    -0.02   0.02   0.01    -0.01   0.00   0.01    -0.01  -0.02  -0.01
     9   6     0.01   0.01  -0.00     0.03   0.03   0.02    -0.01  -0.01  -0.00
    10   6    -0.01  -0.03  -0.04    -0.02   0.04  -0.06    -0.02  -0.00  -0.00
    11   1     0.04  -0.19   0.17    -0.05   0.18  -0.06    -0.10   0.41  -0.28
    12   1    -0.02  -0.04  -0.02    -0.15   0.35  -0.38     0.10  -0.27   0.21
    13   1     0.21   0.36   0.01    -0.01  -0.11  -0.04    -0.26  -0.07   0.13
    14   1    -0.00  -0.00  -0.17    -0.00   0.00   0.43    -0.05   0.02  -0.00
    15   1     0.00  -0.00   0.15    -0.00  -0.00  -0.20    -0.01   0.00   0.00
    16   1    -0.26  -0.06  -0.10     0.08   0.01   0.05     0.04  -0.01   0.07
    17   1    -0.11  -0.00  -0.08     0.01  -0.00   0.01     0.09   0.02   0.05
    18   1     0.00   0.00   0.43     0.00  -0.00   0.10     0.06  -0.05  -0.00
    19   1    -0.00  -0.00  -0.27    -0.00   0.00  -0.02    -0.04   0.01   0.00
    20   1     0.11   0.00  -0.08    -0.01   0.00   0.01     0.09   0.02  -0.05
    21   1     0.26   0.06  -0.10    -0.08  -0.01   0.05     0.04  -0.01  -0.07
    22   1    -0.21  -0.36   0.01     0.01   0.11  -0.04    -0.26  -0.07  -0.13
    23   1    -0.04   0.19   0.17     0.05  -0.18  -0.06    -0.10   0.41   0.28
    24   1     0.02   0.04  -0.02     0.15  -0.35  -0.38     0.10  -0.27  -0.21
                     34                     35                     36
                     A"                     A'                     A"
 Frequencies --   1264.6725              1286.3260              1314.3052
 Red. masses --      1.4034                 1.3132                 1.5116
 Frc consts  --      1.3225                 1.2802                 1.5384
 IR Inten    --      0.8416                 0.1963                 0.5198
  Atom  AN      X      Y      Z        X      Y      Z        X      Y      Z
     1   8     0.00  -0.00  -0.01    -0.01   0.01  -0.00     0.00  -0.00  -0.01
     2   6     0.00   0.00   0.06     0.02   0.01   0.00     0.00   0.00   0.00
     3   6    -0.03   0.02  -0.02     0.00  -0.05   0.01     0.02  -0.07   0.03
     4   6     0.07  -0.04  -0.02    -0.02   0.04  -0.00    -0.02   0.08   0.05
     5   6    -0.00   0.00   0.03     0.03  -0.03   0.00     0.00  -0.00  -0.06
     6   6    -0.04   0.06  -0.03     0.02  -0.05  -0.00    -0.00  -0.01  -0.05
     7   6     0.00   0.00   0.04    -0.03   0.10  -0.00    -0.00   0.00   0.06
     8   6     0.04  -0.06  -0.03     0.02  -0.05   0.00     0.00   0.01  -0.05
     9   6    -0.07   0.04  -0.02    -0.02   0.04   0.00     0.02  -0.08   0.05
    10   6     0.03  -0.02  -0.02     0.00  -0.05  -0.01    -0.02   0.07   0.03
    11   1     0.05  -0.33   0.16    -0.03   0.11  -0.09    -0.04   0.18  -0.09
    12   1    -0.01   0.20  -0.09    -0.03   0.16  -0.12    -0.02   0.15  -0.11
    13   1     0.14   0.11  -0.00     0.08  -0.26  -0.18     0.18   0.13  -0.05
    14   1     0.00   0.00  -0.14     0.06  -0.03   0.00     0.00   0.00  -0.28
    15   1    -0.00   0.00   0.20     0.02  -0.00  -0.00     0.00  -0.00   0.47
    16   1     0.15   0.07  -0.05     0.32   0.01   0.29    -0.23  -0.03  -0.10
    17   1    -0.06  -0.04  -0.01    -0.26   0.04  -0.20     0.26   0.12   0.06
    18   1     0.00  -0.00  -0.42     0.06  -0.05   0.00     0.00  -0.00  -0.30
    19   1    -0.00   0.00   0.47    -0.19   0.06   0.00    -0.00   0.00   0.03
    20   1     0.06   0.04  -0.01    -0.26   0.04   0.20    -0.26  -0.12   0.06
    21   1    -0.15  -0.07  -0.05     0.32   0.01  -0.29     0.23   0.03  -0.10
    22   1    -0.14  -0.11  -0.00     0.08  -0.26   0.18    -0.18  -0.13  -0.05
    23   1    -0.05   0.33   0.16    -0.03   0.11   0.09     0.04  -0.18  -0.09
    24   1     0.01  -0.20  -0.09    -0.03   0.16   0.12     0.02  -0.15  -0.11
                     37                     38                     39
                     A'                     A"                     A"
 Frequencies --   1332.3343              1354.9292              1370.8359
 Red. masses --      1.7686                 1.6888                 1.3186
 Frc consts  --      1.8497                 1.8266                 1.4600
 IR Inten    --      1.7900                 3.2931                 0.0761
  Atom  AN      X      Y      Z        X      Y      Z        X      Y      Z
     1   8     0.03  -0.03   0.00    -0.00  -0.00  -0.00     0.00  -0.00  -0.00
     2   6    -0.02  -0.02   0.00     0.00   0.00  -0.03    -0.00  -0.00   0.00
     3   6    -0.01   0.11  -0.04    -0.00  -0.06   0.08     0.00  -0.00  -0.00
     4   6    -0.04  -0.10   0.01     0.08   0.02  -0.09    -0.03   0.01   0.01
     5   6     0.03   0.06  -0.00    -0.00   0.00   0.07    -0.00   0.00   0.10
     6   6     0.05   0.02   0.01    -0.03  -0.03   0.02    -0.07  -0.01  -0.03
     7   6    -0.05   0.03  -0.00    -0.00  -0.00  -0.00     0.00   0.00  -0.06
     8   6     0.05   0.02  -0.01     0.03   0.03   0.02     0.07   0.01  -0.03
     9   6    -0.04  -0.10  -0.01    -0.08  -0.02  -0.09     0.03  -0.01   0.01
    10   6    -0.01   0.11   0.04     0.00   0.06   0.08    -0.00   0.00  -0.00
    11   1     0.04  -0.14   0.12    -0.00   0.04  -0.10    -0.00   0.00  -0.00
    12   1     0.05  -0.37   0.23    -0.05   0.38  -0.17    -0.00  -0.01  -0.00
    13   1     0.11   0.08  -0.01    -0.22   0.11   0.12     0.30  -0.02  -0.19
    14   1    -0.11   0.04   0.00    -0.00   0.00  -0.37     0.00   0.00  -0.36
    15   1     0.09  -0.11  -0.00    -0.00   0.00   0.10    -0.00   0.00  -0.33
    16   1     0.19   0.04   0.12     0.13  -0.01   0.09     0.20   0.03   0.10
    17   1    -0.33  -0.06  -0.20    -0.13  -0.02  -0.05     0.28   0.04   0.17
    18   1    -0.05   0.02  -0.00    -0.00   0.00   0.28     0.00   0.00   0.38
    19   1    -0.04   0.04   0.00    -0.00  -0.00  -0.32    -0.00  -0.00   0.15
    20   1    -0.33  -0.06   0.20     0.13   0.02  -0.05    -0.28  -0.04   0.17
    21   1     0.19   0.04  -0.12    -0.13   0.01   0.09    -0.20  -0.03   0.10
    22   1     0.11   0.08   0.01     0.22  -0.11   0.12    -0.30   0.02  -0.19
    23   1     0.04  -0.14  -0.12     0.00  -0.04  -0.10     0.00  -0.00  -0.00
    24   1     0.05  -0.37  -0.23     0.05  -0.38  -0.17     0.00   0.01  -0.00
                     40                     41                     42
                     A'                     A"                     A'
 Frequencies --   1371.8062              1383.7722              1398.1936
 Red. masses --      1.6445                 1.4699                 1.4334
 Frc consts  --      1.8233                 1.6583                 1.6511
 IR Inten    --      0.2613                10.6717                 4.7745
  Atom  AN      X      Y      Z        X      Y      Z        X      Y      Z
     1   8     0.01  -0.00   0.00     0.00  -0.00   0.01    -0.01   0.02  -0.00
     2   6    -0.02  -0.02  -0.00    -0.00   0.00  -0.07     0.00  -0.01  -0.00
     3   6    -0.03   0.05  -0.03     0.02  -0.02   0.06     0.01  -0.03   0.05
     4   6     0.11   0.02  -0.01    -0.02  -0.06  -0.03     0.03  -0.09  -0.05
     5   6    -0.06   0.00  -0.00     0.00  -0.00  -0.03    -0.03   0.04   0.00
     6   6    -0.08  -0.03  -0.01     0.01   0.04   0.03    -0.04   0.01  -0.01
     7   6     0.04   0.04   0.00    -0.00  -0.00  -0.11     0.01   0.03   0.00
     8   6    -0.08  -0.03   0.01    -0.01  -0.04   0.03    -0.04   0.01   0.01
     9   6     0.11   0.02   0.01     0.02   0.06  -0.03     0.03  -0.09   0.05
    10   6    -0.03   0.05   0.03    -0.02   0.02   0.06     0.01  -0.03  -0.05
    11   1     0.07  -0.35   0.15    -0.02   0.18  -0.08    -0.01   0.11  -0.04
    12   1     0.02  -0.05   0.05     0.00   0.09  -0.01    -0.02   0.24  -0.10
    13   1    -0.32  -0.24   0.14     0.01   0.38   0.13    -0.02   0.49   0.21
    14   1     0.08   0.01   0.00    -0.00  -0.00   0.27    -0.08   0.04  -0.00
    15   1    -0.06   0.03   0.00    -0.00   0.00  -0.04    -0.02  -0.00  -0.00
    16   1     0.26   0.02   0.18    -0.08   0.01  -0.14     0.31   0.05   0.11
    17   1     0.09  -0.01   0.09     0.04  -0.03   0.08    -0.03  -0.01  -0.01
    18   1     0.08  -0.03  -0.00    -0.00  -0.00   0.18     0.04  -0.03  -0.00
    19   1    -0.12  -0.00  -0.00     0.00  -0.00   0.61    -0.04   0.01   0.00
    20   1     0.09  -0.01  -0.09    -0.04   0.03   0.08    -0.03  -0.01   0.01
    21   1     0.26   0.02  -0.18     0.08  -0.01  -0.14     0.31   0.05  -0.11
    22   1    -0.32  -0.24  -0.14    -0.01  -0.38   0.13    -0.02   0.49  -0.21
    23   1     0.07  -0.35  -0.15     0.02  -0.18  -0.08    -0.01   0.11   0.04
    24   1     0.02  -0.05  -0.05    -0.00  -0.09  -0.01    -0.02   0.24   0.10
                     43                     44                     45
                     A"                     A'                     A"
 Frequencies --   1401.6314              1412.8735              1421.9389
 Red. masses --      1.4450                 1.4301                 1.4704
 Frc consts  --      1.6726                 1.6820                 1.7517
 IR Inten    --      0.2477                 1.1018                 1.0444
  Atom  AN      X      Y      Z        X      Y      Z        X      Y      Z
     1   8    -0.00   0.00   0.00     0.00  -0.01   0.00    -0.00   0.00  -0.01
     2   6     0.00  -0.00  -0.01     0.00   0.00  -0.00     0.00  -0.00   0.04
     3   6    -0.01   0.01  -0.01     0.00   0.01  -0.02    -0.02   0.00  -0.03
     4   6     0.05  -0.01   0.03    -0.05  -0.00   0.06     0.05   0.08   0.00
     5   6    -0.00   0.00  -0.13     0.03  -0.01   0.00     0.00   0.00  -0.01
     6   6    -0.07  -0.02  -0.04    -0.08  -0.00  -0.06     0.01  -0.01   0.05
     7   6     0.00   0.00  -0.02     0.04   0.00   0.00     0.00   0.00  -0.12
     8   6     0.07   0.02  -0.04    -0.08  -0.00   0.06    -0.01   0.01   0.05
     9   6    -0.05   0.01   0.03    -0.05  -0.00  -0.06    -0.05  -0.08   0.00
    10   6     0.01  -0.01  -0.01     0.00   0.01   0.02     0.02  -0.00  -0.03
    11   1     0.00  -0.07   0.09    -0.02   0.03   0.05     0.01  -0.12   0.05
    12   1     0.06  -0.03   0.07     0.04  -0.11   0.08     0.01  -0.01  -0.01
    13   1    -0.08   0.07   0.15     0.39   0.05  -0.18    -0.25  -0.35   0.01
    14   1    -0.00   0.00   0.36     0.07  -0.02  -0.00    -0.00   0.00  -0.19
    15   1    -0.00   0.00   0.49     0.06  -0.08  -0.00     0.00  -0.00   0.22
    16   1     0.24   0.02   0.22     0.26   0.05   0.10    -0.24  -0.05  -0.15
    17   1     0.22  -0.01   0.14     0.38   0.08   0.18     0.06  -0.00   0.09
    18   1     0.00   0.00   0.34     0.07  -0.04   0.00     0.00  -0.00   0.29
    19   1    -0.00   0.00  -0.14     0.01  -0.01  -0.00     0.00   0.00   0.46
    20   1    -0.22   0.01   0.14     0.38   0.08  -0.18    -0.06   0.00   0.09
    21   1    -0.24  -0.02   0.22     0.26   0.05  -0.10     0.24   0.05  -0.15
    22   1     0.08  -0.07   0.15     0.39   0.05   0.18     0.25   0.35   0.01
    23   1    -0.00   0.07   0.09    -0.02   0.03  -0.05    -0.01   0.12   0.05
    24   1    -0.06   0.03   0.07     0.04  -0.11  -0.08    -0.01   0.01  -0.01
                     46                     47                     48
                     A"                     A'                     A'
 Frequencies --   1481.4383              1488.3711              1513.5371
 Red. masses --      1.0874                 1.0845                 1.0886
 Frc consts  --      1.4061                 1.4154                 1.4693
 IR Inten    --      8.1929                 9.5171                 3.2746
  Atom  AN      X      Y      Z        X      Y      Z        X      Y      Z
     1   8     0.00  -0.00   0.00     0.00  -0.01   0.00     0.00  -0.00   0.00
     2   6    -0.00   0.00  -0.01    -0.01  -0.00  -0.00     0.00   0.00  -0.00
     3   6    -0.02  -0.03  -0.04    -0.02  -0.03  -0.05    -0.00  -0.00  -0.00
     4   6    -0.00  -0.00  -0.01     0.00  -0.00  -0.01    -0.00  -0.00  -0.00
     5   6    -0.00   0.00   0.01     0.01  -0.01  -0.00    -0.05   0.03  -0.00
     6   6     0.00  -0.01   0.01     0.00  -0.00   0.01    -0.00  -0.02   0.04
     7   6     0.00  -0.00   0.00    -0.00  -0.00   0.00     0.01  -0.01   0.00
     8   6    -0.00   0.01   0.01     0.00  -0.00  -0.01    -0.00  -0.02  -0.04
     9   6     0.00   0.00  -0.01     0.00  -0.00   0.01    -0.00  -0.00   0.00
    10   6     0.02   0.03  -0.04    -0.02  -0.03   0.05    -0.00  -0.00   0.00
    11   1    -0.16   0.22   0.39    -0.15   0.18   0.42    -0.01   0.02   0.02
    12   1     0.42   0.21   0.18     0.41   0.21   0.17     0.03   0.01   0.01
    13   1    -0.00  -0.01  -0.01    -0.02  -0.02  -0.00    -0.02  -0.00   0.01
    14   1     0.00   0.00  -0.02    -0.15  -0.01  -0.00     0.46   0.05   0.00
    15   1     0.00  -0.00  -0.05    -0.05   0.14   0.00     0.14  -0.45   0.00
    16   1     0.04  -0.01  -0.08     0.01  -0.01  -0.05     0.15  -0.04  -0.32
    17   1    -0.02   0.09  -0.04    -0.02   0.04  -0.03    -0.01   0.33  -0.12
    18   1    -0.00   0.00  -0.01    -0.01   0.01  -0.00    -0.08   0.12   0.00
    19   1    -0.00  -0.00  -0.02    -0.02  -0.00  -0.00    -0.14  -0.05  -0.00
    20   1     0.02  -0.09  -0.04    -0.02   0.04   0.03    -0.01   0.33   0.12
    21   1    -0.04   0.01  -0.08     0.01  -0.01   0.05     0.15  -0.04   0.32
    22   1     0.00   0.01  -0.01    -0.02  -0.02   0.00    -0.02  -0.00  -0.01
    23   1     0.16  -0.22   0.39    -0.15   0.18  -0.42    -0.01   0.02  -0.02
    24   1    -0.42  -0.21   0.18     0.41   0.21  -0.17     0.03   0.01  -0.01
                     49                     50                     51
                     A"                     A'                     A'
 Frequencies --   1515.4007              1530.0014              1541.3367
 Red. masses --      1.0919                 1.0857                 1.0929
 Frc consts  --      1.4773                 1.4974                 1.5297
 IR Inten    --      4.5190                 8.2374                 3.3098
  Atom  AN      X      Y      Z        X      Y      Z        X      Y      Z
     1   8     0.00  -0.00   0.00    -0.00   0.00   0.00    -0.00   0.00  -0.00
     2   6    -0.00  -0.00   0.00    -0.00  -0.00  -0.00    -0.00  -0.00   0.00
     3   6     0.00   0.01   0.00    -0.00  -0.01  -0.01    -0.00   0.01   0.00
     4   6     0.00  -0.00   0.01    -0.00   0.00  -0.01     0.01   0.00   0.00
     5   6     0.00  -0.00  -0.01    -0.05   0.03   0.00     0.02  -0.01   0.00
     6   6    -0.03  -0.03   0.04     0.01   0.02  -0.02    -0.01  -0.01   0.02
     7   6     0.00   0.00   0.01    -0.04   0.02  -0.00    -0.07   0.02   0.00
     8   6     0.03   0.03   0.04     0.01   0.02   0.02    -0.01  -0.01  -0.02
     9   6    -0.00   0.00   0.01    -0.00   0.00   0.01     0.01   0.00  -0.00
    10   6    -0.00  -0.01   0.00    -0.00  -0.01   0.01    -0.00   0.01  -0.00
    11   1     0.03  -0.05  -0.07    -0.04   0.05   0.09     0.02  -0.04  -0.03
    12   1    -0.08  -0.05  -0.02     0.08   0.06   0.03    -0.04  -0.03  -0.01
    13   1    -0.00  -0.00   0.02    -0.02   0.01  -0.00    -0.01  -0.03   0.00
    14   1    -0.00  -0.00   0.05     0.47   0.05   0.00    -0.18  -0.02  -0.00
    15   1    -0.00   0.00   0.03     0.14  -0.45  -0.00    -0.05   0.17   0.00
    16   1     0.27  -0.04  -0.40    -0.13   0.02   0.21     0.13  -0.02  -0.20
    17   1     0.03   0.46  -0.14    -0.03  -0.24   0.07    -0.00   0.23  -0.07
    18   1     0.00  -0.00   0.02     0.18  -0.31   0.00     0.27  -0.50  -0.00
    19   1     0.00   0.00  -0.03     0.35   0.11  -0.00     0.57   0.18  -0.00
    20   1    -0.03  -0.46  -0.14    -0.03  -0.24  -0.07    -0.00   0.23   0.07
    21   1    -0.27   0.04  -0.40    -0.13   0.02  -0.21     0.13  -0.02   0.20
    22   1     0.00   0.00   0.02    -0.02   0.01   0.00    -0.01  -0.03  -0.00
    23   1    -0.03   0.05  -0.07    -0.04   0.05  -0.09     0.02  -0.04   0.03
    24   1     0.08   0.05  -0.02     0.08   0.06  -0.03    -0.04  -0.03   0.01
                     52                     53                     54
                     A'                     A"                     A'
 Frequencies --   1808.7067              3013.2067              3017.6730
 Red. masses --     11.2851                 1.0692                 1.0700
 Frc consts  --     21.7516                 5.7194                 5.7408
 IR Inten    --    171.6465                 0.0001                18.0750
  Atom  AN      X      Y      Z        X      Y      Z        X      Y      Z
     1   8     0.27  -0.42  -0.00     0.00  -0.00  -0.00     0.00  -0.00   0.00
     2   6    -0.41   0.64   0.00    -0.00   0.00   0.00    -0.00   0.00   0.00
     3   6     0.03  -0.04   0.01    -0.04  -0.02  -0.02    -0.04  -0.02  -0.02
     4   6     0.01  -0.01   0.00     0.01  -0.00   0.01     0.01  -0.00   0.01
     5   6    -0.00   0.00   0.00    -0.00  -0.00   0.00     0.01   0.00   0.00
     6   6    -0.00   0.00  -0.00     0.00   0.00  -0.00     0.00   0.00  -0.00
     7   6    -0.00   0.00  -0.00     0.00  -0.00  -0.00    -0.00  -0.00  -0.00
     8   6    -0.00   0.00   0.00    -0.00  -0.00  -0.00     0.00   0.00   0.00
     9   6     0.01  -0.01  -0.00    -0.01   0.00   0.01     0.01  -0.00  -0.01
    10   6     0.03  -0.04  -0.01     0.04   0.02  -0.02    -0.04  -0.02   0.02
    11   1     0.01  -0.06   0.04     0.63   0.20   0.11     0.61   0.19   0.10
    12   1    -0.11   0.17  -0.17    -0.11   0.06   0.13    -0.11   0.06   0.13
    13   1     0.01   0.01   0.02    -0.07   0.05  -0.12    -0.08   0.06  -0.15
    14   1    -0.01  -0.00  -0.00    -0.00   0.00  -0.00     0.00   0.03   0.00
    15   1    -0.00  -0.00  -0.00     0.00   0.00  -0.00    -0.09  -0.04  -0.00
    16   1     0.02   0.00   0.01     0.00  -0.02   0.00     0.01  -0.06   0.00
[...]
 93,0.00134115,-0.00047855,0.,0.00051291,0.00101353,0.00218293,0.001341
 15,0.00068282,0.00024641,-0.00818708,-0.00056988,-0.00068162,0.0003767
 5,0.00049184,-0.00019633,0.00067864,-0.00004953,-0.00011625,0.00030498
 ,-0.00023796,-0.00046522,0.00038914,0.00263678,0.,-0.01555432,-0.05417
 284,0.,0.31705879,0.00014697,-0.00002886,-0.00025823,-0.00009312,0.000
 07725,0.00050703,0.00090536,0.00059127,0.00087259,0.00415031,0.0010868
 6,0.00318678,0.00031255,0.00002762,0.00039913,-0.24556389,-0.01822129,
 -0.10187494,-0.01540806,-0.00205650,-0.00578377,0.00038248,0.00074314,
 -0.00000388,0.00003930,-0.00020124,0.00013076,-0.00007378,0.00004247,-
 0.00002265,0.00014797,-0.00017238,0.00002315,0.00017272,-0.00019456,0.
 00018477,0.00078939,0.00033779,-0.00058459,0.00043538,-0.00034808,0.00
 000764,0.00028790,-0.00010823,-0.00003443,0.26801066,0.00031789,0.0001
 3092,-0.00027884,-0.00034933,-0.00035685,0.00059952,0.00057007,0.00080
 420,0.00028490,-0.00021838,-0.00092541,-0.00032712,-0.00083976,0.00016
 675,-0.00050874,-0.01835975,-0.05321483,-0.01173708,-0.02707315,-0.003
 40350,-0.01231281,-0.00071696,0.00150925,-0.00057378,0.00006876,-0.000
 23613,0.00015278,0.00003110,0.00011985,0.00001471,-0.00012829,0.000313
 13,0.00017626,-0.00039586,0.00015332,-0.00015031,0.00048877,0.00021087
 ,0.00018870,0.00023711,-0.00002234,-0.00018274,0.00007957,0.00000179,0
 .00011111,0.02349516,0.05514432,-0.00066853,-0.00056226,0.00029794,0.0
 0095379,0.00166977,-0.00044488,0.00295778,-0.00085882,-0.00583990,-0.0
 3038909,-0.00283110,-0.01791625,-0.00159943,0.00075775,0.00104322,-0.1
 0114583,-0.01197755,-0.10028050,0.01172339,0.00166401,0.00491629,-0.00
 022459,-0.00046954,-0.00007922,0.00004443,-0.00013584,-0.00012237,0.00
 002538,-0.00003336,-0.00006670,-0.00167188,-0.00017446,-0.00138808,0.0
 0023979,0.00006879,0.00021739,-0.00000415,0.00048184,0.00124606,0.0009
 9798,-0.00059645,0.00012743,0.00034439,0.00036681,0.00037043,0.1095209
 1,0.00946649,0.11288732,0.00007101,0.00006892,0.00001387,0.00002033,-0
 .00010172,-0.00000423,0.00056882,-0.00070101,-0.00057212,-0.00373254,0
 .00384030,0.00042318,0.00033216,-0.00075723,0.00144768,-0.12715753,0.1
 1307725,0.03307050,0.00902605,-0.01496154,-0.00469224,-0.00133760,-0.0
 0240723,0.00145245,-0.00020294,-0.00013435,0.00023114,0.00001801,0.000
 06652,-0.00004416,-0.00000731,-0.00009938,0.00003901,0.00039865,0.0000
 4348,0.00018689,-0.00021628,-0.00007937,0.00007329,0.00047534,-0.00036
 545,-0.00006099,0.00014877,0.00059647,0.00035264,-0.01618984,0.0235452
 2,0.00731367,0.13562985,-0.00022155,0.00028331,0.00008640,0.00019249,-
 0.00070637,-0.00003641,0.00018334,0.00015589,0.00036343,0.00005938,0.0
 0002437,-0.00020924,-0.00029215,0.00137063,-0.00008605,0.11229587,-0.2
 1284118,-0.04968166,0.01537721,-0.02281189,-0.00705730,-0.00473938,-0.
 00294268,0.00318660,-0.00007441,0.00044722,0.00066685,0.00007465,0.000
 20540,-0.00007761,-0.00018386,0.00019300,0.00006655,-0.00053829,0.0002
 4112,-0.00047238,0.00001778,0.00061090,-0.00049587,0.00005460,-0.00005
 565,0.00010963,0.00001735,0.00003325,0.00008868,-0.00135197,0.00303240
 ,0.00147995,-0.12183256,0.23217619,-0.00011719,0.00009453,0.00012291,-
 0.00003309,-0.00026438,-0.00012964,0.00133353,-0.00090761,0.00158971,0
 .01844788,-0.02788902,-0.00885799,0.00010822,0.00166605,-0.00702829,0.
 03242123,-0.04907129,-0.06408067,-0.00718981,0.00904295,0.00300551,0.0
 0163216,0.00166604,-0.00059533,0.00026710,0.00060271,-0.00018992,0.000
 04674,0.00005176,0.00014616,0.00013197,0.00036352,0.00037588,-0.000923
 57,0.00053941,-0.00017623,-0.00010222,0.00047777,0.00125402,0.00006281
 ,0.00023759,0.00016205,0.00108367,-0.00199592,-0.00063608,-0.00814857,
 0.01295613,0.00387155,-0.03832906,0.05303019,0.07000452,0.00041375,0.,
 -0.00082503,-0.00089593,0.,0.00112012,-0.00003929,-0.00009220,-0.00013
 931,-0.00113312,-0.00317185,0.00007021,0.00040594,0.,-0.00043594,-0.00
 134906,-0.00074486,0.01722142,-0.04875432,0.,-0.00199850,-0.00134906,0
 .00074486,0.01722142,-0.00113312,0.00317185,0.00007021,-0.00003929,0.0
 0009220,-0.00013931,0.00014150,0.00013728,0.00008552,0.00004372,-0.000
 08133,0.00006814,-0.00010035,-0.00007648,0.00093723,-0.00005481,0.,0.0
 0000335,0.00001506,0.,0.00003983,0.00049833,0.00074157,0.00023907,0.00
 029262,0.00024561,-0.00051500,0.05172092,0.,0.00042902,0.,0.,-0.001035
 86,0.,-0.00025549,0.00025768,-0.00046352,-0.00264635,-0.00531975,-0.00
 010550,0.,-0.00053816,0.,-0.00037372,-0.00003383,0.03011428,0.,-0.0474
 1485,0.,0.00037372,-0.00003383,-0.03011428,0.00264635,-0.00531975,0.00
 010550,0.00025549,0.00025768,0.00046352,0.00007272,0.00005495,0.000094
 58,0.00003257,0.00005355,0.00000724,-0.00057503,0.00003686,0.00183281,
 0.,0.00009966,0.,0.,0.00028266,0.,0.00023071,0.00131690,-0.00056549,0.
 00077833,0.00065767,-0.00037592,0.,0.05428901,-0.00004629,0.,-0.000129
 66,-0.00005042,0.,0.00017684,0.00013108,-0.00016217,0.00036677,0.00098
 107,0.00239050,0.00144267,-0.00041653,0.,0.00036804,-0.00018247,0.0001
 0734,-0.00988081,-0.00030746,0.,-0.30708462,-0.00018247,-0.00010734,-0
 .00988081,0.00098107,-0.00239050,0.00144267,0.00013108,0.00016217,0.00
 036677,0.00001825,0.00000842,-0.00003190,-0.00003856,0.00000438,-0.000
 00740,0.00014749,-0.00010678,-0.00076572,0.00007919,0.,-0.00000648,-0.
 00000578,0.,-0.00003589,0.00046932,-0.00018460,0.00089064,-0.00020947,
 0.00043230,0.00018384,-0.00087628,0.,0.33236479,-0.00019940,0.,-0.0023
 5533,-0.00080133,0.,0.00125672,0.00009045,-0.00014708,0.00008206,-0.00
 033131,0.00012487,-0.00072637,0.00007503,0.,0.00016736,-0.01396293,-0.
 00100458,-0.00451232,-0.28412804,0.,-0.07035130,-0.01396293,0.00100458
 ,-0.00451232,-0.00033131,-0.00012487,-0.00072637,0.00009045,0.00014708
 ,0.00008206,0.00019148,0.00012450,0.00006034,0.00003677,-0.00015974,0.
 00008823,0.00019548,-0.00002260,0.00017585,0.00021682,0.,-0.00003497,-
 0.00005520,0.,0.00012169,0.00008664,-0.00256259,0.00139500,0.00105384,
 -0.00017793,0.00000502,0.00044067,0.,-0.00100981,0.30973064,0.,-0.0001
 7126,0.,0.,0.00066514,0.,-0.00004019,0.00033729,0.00054580,0.00037249,
 0.00057799,-0.00083992,0.,-0.00022474,0.,-0.02879719,-0.00170210,-0.00
 981807,0.,-0.04876116,0.,0.02879719,-0.00170210,0.00981807,-0.00037249
 ,0.00057799,0.00083992,0.00004019,0.00033729,-0.00054580,0.00009414,-0
 .00003259,-0.00003276,0.00006656,-0.00021212,0.00009882,0.00027609,-0.
 00000149,-0.00009211,0.,-0.00014636,0.,0.,0.00013024,0.,-0.00318700,-0
 .00463289,0.00275795,0.00045215,0.00114904,-0.00058025,0.,-0.00015953,
 0.,0.,0.05770142,-0.00130256,0.,-0.00077391,0.00045405,0.,-0.00286911,
 0.00001508,0.00015703,-0.00048186,0.00049654,-0.00046992,0.00069959,0.
 00013777,0.,-0.00014136,0.01139099,-0.00047826,0.00357053,-0.07037573,
 0.,-0.07407130,0.01139099,0.00047826,0.00357053,0.00049654,0.00046992,
 0.00069959,0.00001508,-0.00015703,-0.00048186,-0.00001607,-0.00004863,
 0.00007575,-0.00004555,0.00004219,-0.00004638,-0.00024998,0.00000079,0
 .00005441,-0.00012918,0.,-0.00002422,0.00002623,0.,-0.00003310,0.00145
 440,0.00185467,0.00020057,-0.00050465,-0.00059359,0.00041573,-0.032962
 11,0.,-0.01004918,0.07907002,0.,0.07898552,0.00007101,-0.00006892,0.00
 001387,0.00002033,0.00010172,-0.00000423,0.00001801,-0.00006652,-0.000
 04416,-0.00020294,0.00013435,0.00023114,0.00033216,0.00075723,0.001447
 68,-0.00133760,0.00240723,0.00145245,0.00902605,0.01496154,-0.00469224
 ,-0.12715753,-0.11307725,0.03307050,-0.00373254,-0.00384030,0.00042318
 ,0.00056882,0.00070101,-0.00057212,-0.00002775,0.00000153,-0.00002902,
 0.00006133,-0.00002378,0.00000881,0.00001681,-0.00010559,-0.00007243,0
 .00047534,0.00036545,-0.00006099,0.00014877,-0.00059647,0.00035264,0.0
 0025323,0.00032342,0.00006198,0.00050496,0.00083322,-0.00015674,0.0002
 9262,-0.00077833,-0.00020947,0.00105384,-0.00045215,-0.00050465,0.1356
 2985,0.00022155,0.00028331,-0.00008640,-0.00019249,-0.00070637,0.00003
 641,-0.00007465,0.00020540,0.00007761,0.00007441,0.00044722,-0.0006668
 5,0.00029215,0.00137063,0.00008605,0.00473938,-0.00294268,-0.00318660,
 -0.01537721,-0.02281189,0.00705730,-0.11229586,-0.21284118,0.04968167,
 -0.00005938,0.00002437,0.00020924,-0.00018334,0.00015589,-0.00036343,0
 .00005279,0.00002217,0.00008795,0.00000133,0.00005796,-0.00003166,-0.0
 0004029,0.00006143,0.00011667,-0.00005460,-0.00005565,-0.00010963,-0.0
 0001735,0.00003325,-0.00008868,-0.00007444,0.00020486,-0.00012461,-0.0
 0083322,-0.00156905,0.00075211,-0.00024561,0.00065767,-0.00043230,0.00
 017793,0.00114904,0.00059359,0.12183256,0.23217619,-0.00011719,-0.0000
 9453,0.00012291,-0.00003309,0.00026438,-0.00012964,0.00004674,-0.00005
 176,0.00014616,0.00026710,-0.00060271,-0.00018992,0.00010822,-0.001666
 05,-0.00702829,0.00163216,-0.00166604,-0.00059533,-0.00718981,-0.00904
 295,0.00300551,0.03242123,0.04907130,-0.06408067,0.01844788,0.02788902
 ,-0.00885799,0.00133353,0.00090761,0.00158971,0.00005319,-0.00003706,0
 .00005901,-0.00012958,-0.00001214,-0.00006521,-0.00012311,0.00010554,0
 .00015607,0.00006281,-0.00023759,0.00016205,0.00108367,0.00199592,-0.0
 0063608,0.00017444,0.00034001,-0.00010187,-0.00015674,-0.00075211,0.00
 051430,-0.00051500,0.00037592,0.00018384,0.00000502,0.00058025,0.00041
 573,-0.03832907,-0.05303020,0.07000452,0.00014697,0.00002886,-0.000258
 23,-0.00009312,-0.00007726,0.00050703,-0.00007378,-0.00004247,-0.00002
 265,0.00003930,0.00020124,0.00013076,0.00031255,-0.00002762,0.00039913
 ,0.00038248,-0.00074314,-0.00000388,-0.01540806,0.00205650,-0.00578377
 ,-0.24556389,0.01822129,-0.10187494,0.00415031,-0.00108686,0.00318678,
 0.00090536,-0.00059127,0.00087259,0.00003448,0.00002411,0.00000365,0.0
 0002837,-0.00002109,0.00002115,0.00001727,0.00002063,-0.00007876,0.000
 43538,0.00034808,0.00000764,0.00028790,0.00010823,-0.00003443,0.000629
 36,0.00066407,-0.00016589,0.00025323,0.00007444,0.00017444,0.00049833,
 -0.00023071,0.00046932,0.00008663,0.00318700,0.00145440,-0.01618984,0.
 00135197,-0.00814857,0.26801066,-0.00031789,0.00013092,0.00027884,0.00
 034933,-0.00035685,-0.00059952,-0.00003110,0.00011985,-0.00001471,-0.0
 0006876,-0.00023613,-0.00015278,0.00083976,0.00016675,0.00050874,0.000
 71696,0.00150925,0.00057378,0.02707315,-0.00340350,0.01231281,0.018359
 74,-0.05321483,0.01173708,0.00021838,-0.00092541,0.00032712,-0.0005700
 7,0.00080420,-0.00028490,-0.00003810,-0.00002926,0.00001478,-0.0000230
 9,0.00006459,-0.00003446,-0.00002015,-0.00002570,0.00008335,-0.0002371
 1,-0.00002234,0.00018274,-0.00007957,0.00000179,-0.00011111,-0.0006640
 7,-0.00032623,-0.00017441,-0.00032342,0.00020486,-0.00034001,-0.000741
 57,0.00131690,0.00018460,0.00256259,-0.00463289,-0.00185467,-0.0235452
 2,0.00303240,-0.01295613,-0.02349515,0.05514432,-0.00066853,0.00056226
 ,0.00029794,0.00095379,-0.00166977,-0.00044488,0.00002538,0.00003336,-
 0.00006670,0.00004443,0.00013584,-0.00012237,-0.00159943,-0.00075775,0
 .00104322,-0.00022459,0.00046954,-0.00007922,0.01172339,-0.00166401,0.
 00491629,-0.10114584,0.01197754,-0.10028050,-0.03038909,0.00283110,-0.
 01791625,0.00295778,0.00085882,-0.00583990,-0.00001025,0.00002050,0.00
 005027,0.00006283,0.00012116,0.00002925,-0.00000076,0.00006781,0.00003
 972,0.00099798,0.00059645,0.00012743,0.00034439,-0.00036681,0.00037043
 ,-0.00016589,0.00017441,0.00005172,0.00006198,0.00012461,-0.00010187,0
 .00023907,0.00056549,0.00089064,0.00139500,-0.00275795,0.00020057,0.00
 731368,-0.00147995,0.00387155,0.10952091,-0.00946648,0.11288732,-0.002
 53338,0.00245959,0.00080152,-0.00200570,-0.00556849,-0.00349282,0.0000
 8640,0.00002530,0.00034656,-0.00225867,-0.00253094,0.00119859,0.010520
 18,-0.01661326,-0.00477134,-0.00006912,-0.00014657,0.00016897,0.000975
 54,-0.00075766,0.00156585,-0.00320488,0.00499185,0.00151795,-0.1205173
 8,0.11030182,0.03287520,-0.01790145,0.02533105,0.00239686,-0.00001702,
 -0.00003129,0.00000761,0.00014312,0.00011733,0.00010971,0.00068252,-0.
 00100122,-0.00012603,0.00085630,0.00069848,-0.00033572,0.00057205,0.00
 085910,-0.00023796,0.00001727,0.00002015,-0.00000076,0.00001681,0.0000
 4029,-0.00012311,-0.00010035,0.00057503,0.00014749,0.00019548,-0.00027
 609,-0.00024998,-0.00021628,-0.00001778,-0.00010222,0.00078939,-0.0004
 8877,-0.00000415,0.13192116,0.00011701,0.00013724,0.00006415,-0.000821
 62,0.00067349,-0.00019482,-0.00047934,0.00078031,-0.00016016,-0.005258
 79,-0.00319750,0.00232631,0.01455024,-0.02344778,-0.00631213,-0.000137
 84,0.00039107,0.00061174,-0.00039390,0.00113704,0.00011344,-0.00066299
 ,0.00122842,0.00026071,0.10951808,-0.21683352,-0.04855476,-0.00068433,
 0.00195587,0.00026609,0.00000093,-0.00001218,0.00002174,0.00014908,0.0
 0005432,0.00001738,0.00100122,-0.00161178,-0.00061706,-0.00018726,0.00
 094773,-0.00049213,0.00025519,0.00097388,0.00046522,-0.00002063,-0.000
 02570,-0.00006781,0.00010559,0.00006143,-0.00010554,0.00007648,0.00003
 686,0.00010678,0.00002260,-0.00000149,-0.00000079,0.00007937,0.0006109
 0,-0.00047777,-0.00033779,0.00021087,-0.00048184,-0.11743486,0.2352377
 1,-0.00194925,0.00156587,0.00055394,-0.00183586,-0.00282011,-0.0017733
 1,0.00019751,-0.00023143,0.00017311,0.00122678,0.00150530,-0.00014291,
 -0.00493621,0.00764669,0.00196391,0.00017211,0.00071708,-0.00013318,-0
 .00027843,0.00245729,-0.00651491,0.01838706,-0.02884951,-0.01096460,0.
 03276940,-0.04927026,-0.06211040,-0.01177363,0.01629848,0.00144634,0.0
 0000889,0.00002171,0.00003950,-0.00001138,0.00009858,0.00000439,-0.000
 12603,0.00061706,0.00034728,0.00002338,-0.00055115,0.00011141,-0.00060
 932,-0.00016969,0.00038914,-0.00007876,-0.00008335,0.00003972,-0.00007
 243,-0.00011667,0.00015607,0.00093723,-0.00183281,-0.00076572,0.000175
 85,0.00009211,0.00005441,0.00007329,0.00049587,0.00125402,-0.00058459,
 -0.00018870,0.00124606,-0.03259309,0.05234876,0.07327985,-0.00081308,0
 .00246232,-0.00368339,-0.00746301,0.00188199,0.01863611,0.00021771,0.0
 0005491,-0.00118160,-0.00010728,-0.00027682,-0.00001922,0.00139652,0.0
 0054405,-0.00051099,0.00005473,0.00011286,-0.00000286,-0.00043641,0.00
 031284,0.00018029,-0.00511699,-0.00057873,-0.00171421,0.00440875,-0.00
 532848,-0.03012906,-0.05714691,0.00866525,0.06522272,0.00033283,0.0003
 6860,-0.00013748,-0.00011264,-0.00004698,-0.00021467,-0.00001702,-0.00
 000093,0.00000889,0.00020855,0.00043773,0.00018129,-0.00022038,-0.0002
 4873,0.00049184,0.00003448,0.00003810,-0.00001025,-0.00002775,-0.00005
 279,0.00005319,0.00014150,-0.00007272,0.00001825,0.00019148,-0.0000941
 4,-0.00001607,-0.00000731,0.00018386,0.00013197,0.00014797,0.00012829,
 -0.00167188,0.00166837,0.00007365,0.00038330,0.06724614,0.00134785,-0.
 00157156,0.00360358,0.00823872,-0.00269439,-0.03118179,-0.00108292,-0.
 00068863,0.00418932,0.00048259,0.00019298,0.00009440,0.00018816,0.0000
 1400,-0.00110128,-0.00003700,0.00017476,0.00005563,0.00025994,0.000031
 71,0.00013313,0.00036554,0.00045583,0.00041112,-0.00013297,-0.00031006
 ,0.00073584,0.00958643,-0.05532176,-0.04516641,-0.00036860,-0.00158349
 ,-0.00000834,0.00019043,0.00032772,0.00039328,0.00003129,-0.00001218,-
 0.00002171,0.00001509,0.00001815,0.00017712,-0.00031657,-0.00007488,0.
 00019633,-0.00002411,-0.00002926,-0.00002050,-0.00000153,0.00002217,0.
 00003706,-0.00013728,0.00005495,-0.00000842,-0.00012450,-0.00003259,0.
 00004863,0.00009938,0.00019300,-0.00036352,0.00017238,0.00031313,0.000
 17446,-0.00023160,0.00038001,0.00062534,-0.01269622,0.05493924,-0.0007
 6319,-0.00065342,0.00017362,0.00182097,-0.00109744,-0.00124996,0.00060
 966,0.00002042,-0.00062574,-0.00023814,-0.00000170,-0.00005117,0.00120
 599,0.00045175,0.00021303,0.00010008,0.00012275,-0.00009478,-0.0002600
 5,0.00041083,0.00043367,-0.00448003,0.00000129,0.00000342,0.00348086,-
 0.00249402,-0.01939444,0.06073747,-0.03765737,-0.27270372,-0.00013748,
 0.00000834,0.00041441,0.00000188,-0.00022753,0.00016971,0.00000761,-0.
 00002174,0.00003950,-0.00009877,0.00017411,0.00040242,-0.00046828,-0.0
 0054307,0.00067864,0.00000365,-0.00001478,0.00005027,-0.00002902,-0.00
 008795,0.00005901,0.00008552,-0.00009458,-0.00003190,0.00006034,0.0000
 3276,0.00007575,0.00003901,-0.00006655,0.00037588,0.00002315,-0.000176
 26,-0.00138808,0.00025336,0.00057262,0.00100939,-0.06417768,0.04272422
 ,0.30021476,0.00137737,-0.00083262,0.00038212,0.01066969,0.01404301,-0
 .00622775,-0.00199714,0.00249566,0.00079251,-0.00038589,0.00032283,0.0
 0004255,-0.00425527,0.00187377,-0.00398940,0.00002588,-0.00002728,0.00
 017941,0.00013074,-0.00005030,-0.00020315,0.00090569,-0.00039589,0.001
 61064,-0.01433524,-0.02035958,0.00852396,-0.14488401,-0.12038947,0.045
 55627,-0.00011264,-0.00019043,0.00000188,0.00060768,0.00082330,0.00012
 118,0.00014312,-0.00014908,-0.00001138,-0.00088598,-0.00174815,0.00015
 586,0.00028631,0.00037588,-0.00004953,0.00002837,0.00002309,0.00006283
 ,0.00006133,-0.00000133,-0.00012958,0.00004372,-0.00003257,-0.00003856
 ,0.00003677,-0.00006656,-0.00004555,0.00039865,0.00053829,-0.00092357,
 0.00017272,0.00039586,0.00023979,0.00037964,0.00046991,0.00049418,-0.0
 0458027,-0.00582450,0.00222309,0.15616876,-0.00004308,0.00578619,-0.00
 169860,-0.02107790,-0.02674366,0.00972428,0.00479627,-0.00279361,-0.00
 146028,0.00049432,0.00024650,0.00036352,0.00038353,0.00123346,-0.00003
 048,-0.00005189,-0.00003579,0.00016002,-0.00019443,-0.00012567,-0.0000
 7325,0.00008421,0.00021237,0.00021887,0.00015946,0.00083574,-0.0009976
 6,-0.11672278,-0.19526360,0.05877912,0.00004698,0.00032772,0.00022753,
 -0.00082330,-0.00145304,0.00003389,-0.00011733,0.00005432,-0.00009858,
 0.00009304,0.00012449,0.00007685,0.00001908,-0.00006562,0.00011625,0.0
 0002109,0.00006459,-0.00012116,0.00002378,0.00005796,0.00001214,0.0000
 8133,0.00005355,-0.00000438,0.00015975,-0.00021212,-0.00004219,-0.0000
 4348,0.00024112,-0.00053941,0.00019456,0.00015332,-0.00006879,-0.00032
 144,0.00031280,-0.00037645,0.00413212,0.00520114,-0.00138266,0.1287061
 4,0.21178785,-0.00146245,0.00030123,-0.00081064,0.00055820,-0.00481218
 ,-0.00001730,0.00016898,-0.00023069,0.00090442,-0.00011474,0.00040449,
 0.00002317,-0.00308905,0.00047156,-0.00220944,0.00000328,0.00002449,0.
 00010568,-0.00006111,-0.00000322,-0.00010795,-0.00038454,-0.00120158,0
 .00143994,-0.00980830,-0.01486250,0.00496498,0.04444560,0.05908176,-0.
 07114079,-0.00021467,-0.00039328,0.00016971,0.00012118,-0.00003389,0.0
 0028645,0.00010971,-0.00001738,0.00000439,-0.00068650,-0.00095712,0.00
 049866,-0.00018481,-0.00009826,0.00030498,0.00002115,0.00003446,0.0000
 2925,0.00000881,0.00003166,-0.00006521,0.00006814,-0.00000724,-0.00000
 740,0.00008823,-0.00009882,-0.00004638,0.00018689,0.00047238,-0.000176
 23,0.00018477,0.00015031,0.00021739,0.00064751,0.00028987,0.00033647,0
 .01816152,0.02427252,-0.00877368,-0.04876781,-0.06281857,0.07406955\\0
 .00001265,0.,0.00002333,0.00001808,0.,0.00003572,-0.00002715,0.0000662
 6,-0.00009497,0.00000228,0.00000278,0.00004481,0.00001376,0.,-0.000022
 72,-0.00002033,-0.00002013,-0.00000994,0.00000369,0.,0.00004802,-0.000
 02033,0.00002013,-0.00000994,0.00000228,-0.00000278,0.00004481,-0.0000
 2715,-0.00006626,-0.00009497,0.00000830,-0.00001831,0.00003374,0.00000
 901,0.00001738,0.00001187,-0.00000197,0.00001554,-0.00001301,-0.000004
 56,0.,0.00000719,0.00001758,0.,-0.00002576,-0.00000450,0.00001317,-0.0
 0002123,-0.00000543,0.00001466,0.00001669,-0.00000045,0.,0.00000098,0.
 00001883,0.,-0.00000265,-0.00000543,-0.00001466,0.00001669,-0.00000450
 ,-0.00001317,-0.00002123,-0.00000197,-0.00001554,-0.00001301,0.0000083
 0,0.00001831,0.00003374,0.00000901,-0.00001738,0.00001187\\\@


      THE ONE-EYED VIEW OF OUR UNIVERSE SAYS YOU MUST NOT LOOK
      FAR AFIELD FOR PROBLEMS.  SUCH PROBLEMS MAY NEVER ARRIVE. 
      INSTEAD, TEND TO THE WOLF WITHIN YOUR FENCES.
      THE PACKS RANGING OUTSIDE MAY NOT EVEN EXIST.

                              -- THE AZHAR BOOK SHAMRA I:4
                                 CHILDREN OF DUNE, BY FRANK HERBERT
 Job cpu time:       0 days  0 hours  1 minutes 17.1 seconds.
 Elapsed time:       0 days  0 hours  1 minutes 18.4 seconds.
 File lengths (MBytes):  RWF=     72 Int=      0 D2E=      0 Chk=      5 Scr=      1
 Normal termination of Gaussian 16 at Wed Feb 21 19:34:04 2024.
