 Entering Gaussian System, Link 0=g16
 Input=/Volumes/SSD-PMU3/b3lyp_6-31gd_freq/AGCCOKROZDYAMR-NGJRWZKOSA-N_calculating/gaussianinput0.gjf
 Output=/Volumes/SSD-PMU3/b3lyp_6-31gd_freq/AGCCOKROZDYAMR-NGJRWZKOSA-N_calculating/gaussianinput0.log
 Initial command:
 /Applications/g16/l1.exe "/Users/macmini_m1_2022/PycharmProjects/sphere_model/sphere_model_lib/Gau-52900.inp" -scrdir="/Users/macmini_m1_2022/PycharmProjects/sphere_model/sphere_model_lib/"
 Entering Link 1 = /Applications/g16/l1.exe PID=     52901.
  
 Copyright (c) 1988,1990,1992,1993,1995,1998,2003,2009,2016,
            Gaussian, Inc.  All Rights Reserved.
  
 This is part of the Gaussian(R) 16 program.  It is based on
 the Gaussian(R) 09 system (copyright 2009, Gaussian, Inc.),
 the Gaussian(R) 03 system (copyright 2003, Gaussian, Inc.),
 the Gaussian(R) 98 system (copyright 1998, Gaussian, Inc.),
 the Gaussian(R) 94 system (copyright 1995, Gaussian, Inc.),
 the Gaussian 92(TM) system (copyright 1992, Gaussian, Inc.),
 the Gaussian 90(TM) system (copyright 1990, Gaussian, Inc.),
 the Gaussian 88(TM) system (copyright 1988, Gaussian, Inc.),
 the Gaussian 86(TM) system (copyright 1986, Carnegie Mellon
 University), and the Gaussian 82(TM) system (copyright 1983,
 Carnegie Mellon University). Gaussian is a federally registered
 trademark of Gaussian, Inc.
  
 This software contains proprietary and confidential information,
 including trade secrets, belonging to Gaussian, Inc.
  
 This software is provided under written license and may be
 used, copied, transmitted, or stored only in accord with that
 written license.
  
 The following legend is applicable only to US Government
 contracts under FAR:
  
                    RESTRICTED RIGHTS LEGEND
  
 Use, reproduction and disclosure by the US Government is
 subject to restrictions as set forth in subparagraphs (a)
 and (c) of the Commercial Computer Software - Restricted
 Rights clause in FAR 52.227-19.
  
 Gaussian, Inc.
 340 Quinnipiac St., Bldg. 40, Wallingford CT 06492
  
  
 ---------------------------------------------------------------
 Warning -- This program may not be used in any manner that
 competes with the business of Gaussian, Inc. or will provide
 assistance to any competitor of Gaussian, Inc.  The licensee
 of this program is prohibited from giving any competitor of
 Gaussian, Inc. access to this program.  By using this program,
 the user acknowledges that Gaussian, Inc. is engaged in the
 business of creating and licensing software in the field of
 computational chemistry and represents and warrants to the
 licensee that it is not a competitor of Gaussian, Inc. and that
 it will not use this program in any manner prohibited above.
 ---------------------------------------------------------------
  

 Cite this work as:
 Gaussian 16, Revision A.03,
 M. J. Frisch, G. W. Trucks, H. B. Schlegel, G. E. Scuseria, 
 M. A. Robb, J. R. Cheeseman, G. Scalmani, V. Barone, 
 G. A. Petersson, H. Nakatsuji, X. Li, M. Caricato, A. V. Marenich, 
 J. Bloino, B. G. Janesko, R. Gomperts, B. Mennucci, H. P. Hratchian, 
 J. V. Ortiz, A. F. Izmaylov, J. L. Sonnenberg, D. Williams-Young, 
 F. Ding, F. Lipparini, F. Egidi, J. Goings, B. Peng, A. Petrone, 
 T. Henderson, D. Ranasinghe, V. G. Zakrzewski, J. Gao, N. Rega, 
 G. Zheng, W. Liang, M. Hada, M. Ehara, K. Toyota, R. Fukuda, 
 J. Hasegawa, M. Ishida, T. Nakajima, Y. Honda, O. Kitao, H. Nakai, 
 T. Vreven, K. Throssell, J. A. Montgomery, Jr., J. E. Peralta, 
 F. Ogliaro, M. J. Bearpark, J. J. Heyd, E. N. Brothers, K. N. Kudin, 
 V. N. Staroverov, T. A. Keith, R. Kobayashi, J. Normand, 
 K. Raghavachari, A. P. Rendell, J. C. Burant, S. S. Iyengar, 
 J. Tomasi, M. Cossi, J. M. Millam, M. Klene, C. Adamo, R. Cammi, 
 J. W. Ochterski, R. L. Martin, K. Morokuma, O. Farkas, 
 J. B. Foresman, and D. J. Fox, Gaussian, Inc., Wallingford CT, 2016.
 
 ******************************************
 Gaussian 16:  EM64M-G16RevA.03 25-Dec-2016
                21-Feb-2024 
 ******************************************
 %nprocshared=8
 Will use up to    8 processors via shared memory.
 %mem=4GB
 %chk= 0.chk
 ---------------------
 # freq b3lyp/6-31g(d)
 ---------------------
 1/10=4,30=1,38=1/1,3;
 2/12=2,17=6,18=5,40=1/2;
 3/5=1,6=6,7=1,11=2,25=1,30=1,71=2,74=-5,140=1/1,2,3;
 4//1;
 5/5=2,38=5,98=1/2;
 8/6=4,10=90,11=11/1;
 11/6=1,8=1,9=11,15=111,16=1/1,2,10;
 10/6=1/2;
 6/7=2,8=2,9=2,10=2,28=1/1;
 7/8=1,10=1,25=1/1,2,3,16;
 1/10=4,30=1/3;
 99//99;
 ---------
 good luck
 ---------
 Symbolic Z-matrix:
 Charge =  0 Multiplicity = 1
 O                     1.21167   0.        0. 
 C                     0.        0.        0. 
 C                    -0.93264  -1.21012  -0.00831 
 C                    -2.14549  -0.65514   0.77159 
 C                    -1.53658  -1.3131   -1.44811 
 C                    -0.52454  -1.47988  -2.58316 
 C                    -2.44238  -0.03211  -1.54936 
 C                    -3.88341  -0.34343  -1.96489 
 C                    -2.31831   0.59307  -0.12995 
 C                    -0.92052   1.23549  -0.00831 
 H                    -0.45514  -2.12616   0.34522 
 H                    -1.92136  -0.40544   1.81534 
 H                    -3.00571  -1.33277   0.75355 
 H                    -2.19023  -2.19664  -1.44051 
 H                    -1.03719  -1.54794  -3.55022 
 H                     0.17525  -0.6382   -2.6333 
 H                     0.06861  -2.39276  -2.45493 
 H                    -2.01821   0.65921  -2.29049 
 H                    -4.3872   -0.98043  -1.22749 
 H                    -3.90978  -0.87014  -2.9267 
 H                    -4.47363   0.57449  -2.07215 
 H                    -3.14181   1.26317   0.13405 
 H                    -0.65418   1.924    -0.81795 
 H                    -0.79894   1.77733   0.93933 
 

 GradGradGradGradGradGradGradGradGradGradGradGradGradGradGradGradGradGrad
 Berny optimization.
 Initialization pass.
 Trust Radius=3.00D-01 FncErr=1.00D-07 GrdErr=1.00D-07 EigMax=2.50D+02 EigMin=1.00D-04
 Number of steps in this run=      2 maximum allowed number of steps=      2.
 GradGradGradGradGradGradGradGradGradGradGradGradGradGradGradGradGradGrad

                          Input orientation:                          
 ---------------------------------------------------------------------
 Center     Atomic      Atomic             Coordinates (Angstroms)
 Number     Number       Type             X           Y           Z
 ---------------------------------------------------------------------
      1          8           0        1.211666    0.000000    0.000000
      2          6           0        0.000000    0.000000    0.000000
      3          6           0       -0.932644   -1.210123   -0.008310
      4          6           0       -2.145488   -0.655139    0.771592
      5          6           0       -1.536582   -1.313098   -1.448109
      6          6           0       -0.524541   -1.479879   -2.583161
      7          6           0       -2.442384   -0.032114   -1.549357
      8          6           0       -3.883409   -0.343431   -1.964889
      9          6           0       -2.318309    0.593073   -0.129950
     10          6           0       -0.920515    1.235487   -0.008310
     11          1           0       -0.455138   -2.126165    0.345216
     12          1           0       -1.921362   -0.405439    1.815335
     13          1           0       -3.005708   -1.332768    0.753548
     14          1           0       -2.190226   -2.196636   -1.440514
     15          1           0       -1.037191   -1.547944   -3.550223
     16          1           0        0.175245   -0.638204   -2.633300
     17          1           0        0.068607   -2.392763   -2.454933
     18          1           0       -2.018208    0.659213   -2.290495
     19          1           0       -4.387205   -0.980425   -1.227486
     20          1           0       -3.909778   -0.870135   -2.926702
     21          1           0       -4.473625    0.574486   -2.072154
     22          1           0       -3.141814    1.263170    0.134053
     23          1           0       -0.654184    1.924001   -0.817952
     24          1           0       -0.798937    1.777332    0.939327
 ---------------------------------------------------------------------
                    Distance matrix (angstroms):
                    1          2          3          4          5
     1  O    0.000000
     2  C    1.211666   0.000000
     3  C    2.462221   1.527839   0.000000
     4  C    3.506429   2.372273   1.545071   0.000000
     5  C    3.372553   2.486429   1.564726   2.393898   0.000000
     6  C    3.446328   3.022897   2.620911   3.816023   1.529832
     7  C    3.969083   2.892538   2.458017   2.421386   1.572148
     8  C    5.471611   4.365730   3.645047   3.256664   2.591315
     9  C    3.581808   2.396493   2.277362   1.549412   2.445839
    10  C    2.464283   1.540729   2.445640   2.383962   2.991295
    11  H    2.723598   2.201568   1.091845   2.281008   2.246467
    12  H    3.643582   2.674220   2.225030   1.096349   3.409101
    13  H    4.486686   3.373186   2.212027   1.095210   2.646887
    14  H    4.298041   3.420143   2.146143   2.696596   1.099067
    15  H    4.478568   4.009486   3.559523   4.550111   2.173345
    16  H    2.900990   2.715195   2.906042   4.120604   2.188724
    17  H    3.613668   3.428807   2.896050   4.281591   2.180826
    18  H    4.014102   3.123154   3.143443   3.334681   2.198087
    19  H    5.815093   4.659992   3.670578   3.021162   2.878437
    20  H    5.962542   4.960754   4.182814   4.103209   2.830991
    21  H    6.078354   4.963585   4.470216   3.875447   3.546636
    22  H    4.535015   3.388888   3.319319   2.253671   3.423034
    23  H    2.802182   2.190612   3.248968   3.376774   3.413874
    24  H    2.843197   2.163226   3.137002   2.785363   3.974258
                    6          7          8          9         10
     6  C    0.000000
     7  C    2.615893   0.000000
     8  C    3.599412   1.531711   0.000000
     9  C    3.678720   1.555947   2.587195   0.000000
    10  C    3.762960   2.509527   3.885862   1.543153   0.000000
    11  H    2.999649   3.453057   4.501974   3.330382   3.412076
    12  H    4.738386   3.425199   4.259527   2.222325   2.649531
    13  H    4.160704   2.704146   3.023086   2.227543   3.394759
    14  H    2.143336   2.181877   2.564412   3.084876   3.929738
    15  H    1.096655   2.876764   3.473484   4.233614   4.506246
    16  H    1.095733   2.897285   4.123874   3.741740   3.406168
    17  H    1.096186   3.563398   4.478653   4.474163   4.486482
    18  H    2.625340   1.098701   2.142496   2.182290   2.597189
    19  H    4.124013   2.187515   1.096966   2.821491   4.291223
    20  H    3.456825   2.180047   1.096903   3.534908   4.678285
    21  H    4.480715   2.183396   1.096555   2.901360   4.161846
    22  H    4.664514   2.236254   2.745303   1.094024   2.226028
    23  H    3.836557   2.749363   4.109088   2.239203   1.095675
    24  H    4.805480   3.488346   4.737729   2.203251   1.098359
                   11         12         13         14         15
    11  H    0.000000
    12  H    2.696657   0.000000
    13  H    2.702151   1.778521   0.000000
    14  H    2.490849   3.725752   2.495032   0.000000
    15  H    3.980901   5.556644   4.737489   2.490213   0.000000
    16  H    3.388653   4.923443   4.698044   3.073581   1.771546
    17  H    2.861157   5.113181   4.568299   2.483916   1.770923
    18  H    4.141074   4.242724   3.769528   2.984616   2.724124
    19  H    4.387170   3.958504   2.440733   2.520172   4.115796
    20  H    4.921138   5.163008   3.817802   2.631581   3.016614
    21  H    5.411602   4.752565   3.711737   3.645819   4.300985
    22  H    4.330174   2.664670   2.672301   3.918551   5.089763
    23  H    4.218581   3.737142   4.313447   4.441470   4.434682
    24  H    3.963389   2.606092   3.817993   4.836502   5.591984
                   16         17         18         19         20
    16  H    0.000000
    17  H    1.766823   0.000000
    18  H    2.571389   3.700864   0.000000
    19  H    4.786374   4.832762   3.070920   0.000000
    20  H    4.102108   4.285850   2.514299   1.768456   0.000000
    21  H    4.837096   5.439022   2.466561   1.771632   1.770623
    22  H    4.719782   5.511397   2.739651   2.904911   3.809066
    23  H    3.247820   4.672963   2.372474   4.747510   4.780472
    24  H    4.421256   5.446405   3.628851   5.017566   5.624286
                   21         22         23         24
    21  H    0.000000
    22  H    2.667462   0.000000
    23  H    4.240559   2.744324   0.000000
    24  H    4.900937   2.530198   1.769320   0.000000
 Stoichiometry    C9H14O
 Framework group  C1[X(C9H14O)]
 Deg. of freedom    66
 Full point group                 C1      NOp   1
 Largest Abelian subgroup         C1      NOp   1
 Largest concise Abelian subgroup C1      NOp   1
                         Standard orientation:                         
 ---------------------------------------------------------------------
 Center     Atomic      Atomic             Coordinates (Angstroms)
 Number     Number       Type             X           Y           Z
 ---------------------------------------------------------------------
      1          8           0       -2.696379    0.362713   -0.291169
      2          6           0       -1.612819   -0.141815   -0.092468
      3          6           0       -0.639896    0.156682    1.047098
      4          6           0        0.044718   -1.217582    1.220156
      5          6           0        0.535614    0.991382    0.438972
      6          6           0        0.141074    2.317231   -0.214365
      7          6           0        1.246318   -0.034261   -0.517377
      8          6           0        2.749855   -0.162369   -0.254503
      9          6           0        0.450393   -1.348047   -0.269504
     10          6           0       -0.924144   -1.214357   -0.958047
     11          1           0       -1.117704    0.618477    1.913453
     12          1           0       -0.635915   -2.010148    1.552661
     13          1           0        0.897563   -1.181598    1.906338
     14          1           0        1.215633    1.210933    1.274029
     15          1           0        1.026192    2.832694   -0.606175
     16          1           0       -0.557093    2.170832   -1.046087
     17          1           0       -0.342874    2.986298    0.506584
     18          1           0        1.110863    0.282653   -1.560623
     19          1           0        2.952057   -0.540341    0.755243
     20          1           0        3.249103    0.809895   -0.347509
     21          1           0        3.221534   -0.848019   -0.968531
     22          1           0        0.997519   -2.256534   -0.538190
     23          1           0       -0.888444   -0.912663   -2.010763
     24          1           0       -1.504085   -2.145372   -0.900850
 ---------------------------------------------------------------------
 Rotational constants (GHZ):           2.0083822           1.2896491           1.0184526
 Standard basis: 6-31G(d) (6D, 7F)
 There are   178 symmetry adapted cartesian basis functions of A   symmetry.
 There are   178 symmetry adapted basis functions of A   symmetry.
   178 basis functions,   336 primitive gaussians,   178 cartesian basis functions
    38 alpha electrons       38 beta electrons
       nuclear repulsion energy       567.5613445187 Hartrees.
 NAtoms=   24 NActive=   24 NUniq=   24 SFac= 1.00D+00 NAtFMM=   60 NAOKFM=F Big=F
 Integral buffers will be    131072 words long.
 Raffenetti 2 integral format.
 Two-electron integral symmetry is turned on.
 One-electron integrals computed using PRISM.
 NBasis=   178 RedAO= T EigKep=  1.48D-03  NBF=   178
 NBsUse=   178 1.00D-06 EigRej= -1.00D+00 NBFU=   178
 ExpMin= 1.61D-01 ExpMax= 5.48D+03 ExpMxC= 8.25D+02 IAcc=3 IRadAn=         5 AccDes= 0.00D+00
 Harris functional with IExCor=  402 and IRadAn=       5 diagonalized for initial guess.
 HarFok:  IExCor=  402 AccDes= 0.00D+00 IRadAn=         5 IDoV= 1 UseB2=F ITyADJ=14
 ICtDFT=  3500011 ScaDFX=  1.000000  1.000000  1.000000  1.000000
 FoFCou: FMM=F IPFlag=           0 FMFlag=      100000 FMFlg1=           0
         NFxFlg=           0 DoJE=T BraDBF=F KetDBF=T FulRan=T
         wScrn=  0.000000 ICntrl=       500 IOpCl=  0 I1Cent=   200000004 NGrid=           0
         NMat0=    1 NMatS0=      1 NMatT0=    0 NMatD0=    1 NMtDS0=    0 NMtDT0=    0
 Petite list used in FoFCou.
 Requested convergence on RMS density matrix=1.00D-08 within 128 cycles.
 Requested convergence on MAX density matrix=1.00D-06.
 Requested convergence on             energy=1.00D-06.
 No special actions if energy rises.
 Integral accuracy reduced to 1.0D-05 until final iterations.
 Initial convergence to 1.0D-05 achieved.  Increase integral accuracy.
 SCF Done:  E(RB3LYP) =  -426.610646271     A.U. after   13 cycles
            NFock= 13  Conv=0.86D-08     -V/T= 2.0096
 DoSCS=F DFT=T ScalE2(SS,OS)=  1.000000  1.000000
 Range of M.O.s used for correlation:     1   178
 NBasis=   178 NAE=    38 NBE=    38 NFC=     0 NFV=     0
 NROrb=    178 NOA=    38 NOB=    38 NVA=   140 NVB=   140
 Symmetrizing basis deriv contribution to polar:
 IMax=3 JMax=2 DiffMx= 0.00D+00
 G2DrvN: will do    25 centers at a time, making    1 passes.
 Calling FoFCou, ICntrl=  3107 FMM=F I1Cent=   0 AccDes= 0.00D+00.
 End of G2Drv F.D. properties file   721 does not exist.
 End of G2Drv F.D. properties file   722 does not exist.
 End of G2Drv F.D. properties file   788 does not exist.
          IDoAtm=111111111111111111111111
          Differentiating once with respect to electric field.
                with respect to dipole field.
          Differentiating once with respect to nuclear coordinates.
 Keep R1 ints in memory in canonical form, NReq=134943929.
          There are    75 degrees of freedom in the 1st order CPHF.  IDoFFX=6 NUNeed=     3.
     72 vectors produced by pass  0 Test12= 7.09D-15 1.33D-09 XBig12= 6.66D+01 2.69D+00.
 AX will form    72 AO Fock derivatives at one time.
     72 vectors produced by pass  1 Test12= 7.09D-15 1.33D-09 XBig12= 1.09D+01 7.80D-01.
     72 vectors produced by pass  2 Test12= 7.09D-15 1.33D-09 XBig12= 1.36D-01 5.66D-02.
     72 vectors produced by pass  3 Test12= 7.09D-15 1.33D-09 XBig12= 4.52D-04 3.08D-03.
     72 vectors produced by pass  4 Test12= 7.09D-15 1.33D-09 XBig12= 4.41D-07 5.78D-05.
     35 vectors produced by pass  5 Test12= 7.09D-15 1.33D-09 XBig12= 3.04D-10 1.59D-06.
      3 vectors produced by pass  6 Test12= 7.09D-15 1.33D-09 XBig12= 2.26D-13 7.37D-08.
      1 vectors produced by pass  7 Test12= 7.09D-15 1.33D-09 XBig12= 1.96D-16 2.36D-09.
 InvSVY:  IOpt=1 It=  1 EMax= 4.44D-15
 Solved reduced A of dimension   399 with    75 vectors.
 Isotropic polarizability for W=    0.000000       88.78 Bohr**3.
 End of Minotr F.D. properties file   721 does not exist.
 End of Minotr F.D. properties file   722 does not exist.
 End of Minotr F.D. properties file   788 does not exist.

 **********************************************************************

            Population analysis using the SCF density.

 **********************************************************************

 Orbital symmetries:
       Occupied  (A) (A) (A) (A) (A) (A) (A) (A) (A) (A) (A) (A)
                 (A) (A) (A) (A) (A) (A) (A) (A) (A) (A) (A) (A)
                 (A) (A) (A) (A) (A) (A) (A) (A) (A) (A) (A) (A)
                 (A) (A)
       Virtual   (A) (A) (A) (A) (A) (A) (A) (A) (A) (A) (A) (A)
                 (A) (A) (A) (A) (A) (A) (A) (A) (A) (A) (A) (A)
                 (A) (A) (A) (A) (A) (A) (A) (A) (A) (A) (A) (A)
                 (A) (A) (A) (A) (A) (A) (A) (A) (A) (A) (A) (A)
                 (A) (A) (A) (A) (A) (A) (A) (A) (A) (A) (A) (A)
                 (A) (A) (A) (A) (A) (A) (A) (A) (A) (A) (A) (A)
                 (A) (A) (A) (A) (A) (A) (A) (A) (A) (A) (A) (A)
                 (A) (A) (A) (A) (A) (A) (A) (A) (A) (A) (A) (A)
                 (A) (A) (A) (A) (A) (A) (A) (A) (A) (A) (A) (A)
                 (A) (A) (A) (A) (A) (A) (A) (A) (A) (A) (A) (A)
                 (A) (A) (A) (A) (A) (A) (A) (A) (A) (A) (A) (A)
                 (A) (A) (A) (A) (A) (A) (A) (A)
 The electronic state is 1-A.
 Alpha  occ. eigenvalues --  -19.13291 -10.26648 -10.19812 -10.19582 -10.19293
 Alpha  occ. eigenvalues --  -10.19187 -10.19104 -10.18866 -10.18055 -10.17648
 Alpha  occ. eigenvalues --   -1.03187  -0.87983  -0.77297  -0.75143  -0.71231
 Alpha  occ. eigenvalues --   -0.67038  -0.64163  -0.58321  -0.55450  -0.52070
 Alpha  occ. eigenvalues --   -0.48424  -0.47119  -0.45641  -0.42904  -0.42143
 Alpha  occ. eigenvalues --   -0.40884  -0.40013  -0.39493  -0.38828  -0.37606
 Alpha  occ. eigenvalues --   -0.35733  -0.35602  -0.34791  -0.33557  -0.31687
 Alpha  occ. eigenvalues --   -0.30902  -0.30605  -0.23019
 Alpha virt. eigenvalues --   -0.01031   0.07930   0.10449   0.11050   0.12146
 Alpha virt. eigenvalues --    0.13831   0.14519   0.15275   0.15411   0.16042
 Alpha virt. eigenvalues --    0.16958   0.17422   0.18332   0.18668   0.20114
 Alpha virt. eigenvalues --    0.20364   0.21438   0.22086   0.22562   0.24377
 Alpha virt. eigenvalues --    0.26843   0.27232   0.28353   0.31080   0.32947
 Alpha virt. eigenvalues --    0.35376   0.48888   0.52006   0.52181   0.52572
 Alpha virt. eigenvalues --    0.55158   0.57540   0.59037   0.59517   0.61301
 Alpha virt. eigenvalues --    0.61850   0.63314   0.64563   0.65707   0.68485
 Alpha virt. eigenvalues --    0.70089   0.70495   0.72023   0.73729   0.76356
 Alpha virt. eigenvalues --    0.78031   0.80448   0.81158   0.81621   0.82964
 Alpha virt. eigenvalues --    0.85471   0.86541   0.87944   0.88844   0.89549
 Alpha virt. eigenvalues --    0.90338   0.90919   0.92032   0.93290   0.94208
 Alpha virt. eigenvalues --    0.94924   0.95425   0.96341   0.98343   0.98893
 Alpha virt. eigenvalues --    1.01306   1.03728   1.07586   1.10472   1.14996
 Alpha virt. eigenvalues --    1.20981   1.27119   1.30076   1.32637   1.39378
 Alpha virt. eigenvalues --    1.44141   1.47968   1.53090   1.55563   1.58713
 Alpha virt. eigenvalues --    1.61669   1.64288   1.66745   1.71899   1.73983
 Alpha virt. eigenvalues --    1.74319   1.76956   1.79821   1.80923   1.83304
 Alpha virt. eigenvalues --    1.87700   1.87909   1.89309   1.91588   1.92420
 Alpha virt. eigenvalues --    1.97396   1.99709   2.00840   2.03380   2.05196
 Alpha virt. eigenvalues --    2.07174   2.09266   2.12826   2.15012   2.17921
 Alpha virt. eigenvalues --    2.20243   2.22003   2.25798   2.28930   2.29342
 Alpha virt. eigenvalues --    2.30834   2.34045   2.37150   2.38948   2.40835
 Alpha virt. eigenvalues --    2.45287   2.49706   2.50802   2.52619   2.58925
 Alpha virt. eigenvalues --    2.62106   2.66082   2.69310   2.71533   2.75053
 Alpha virt. eigenvalues --    2.76823   2.81634   2.84467   3.03211   3.05401
 Alpha virt. eigenvalues --    4.08796   4.17680   4.23259   4.30361   4.41133
 Alpha virt. eigenvalues --    4.45588   4.50069   4.65775   4.72606   4.84444
          Condensed to atoms (all electrons):
               1          2          3          4          5          6
     1  O    8.023791   0.566332  -0.061860   0.002260  -0.002506   0.000454
     2  C    0.566332   4.514197   0.359016  -0.050452  -0.028995  -0.003009
     3  C   -0.061860   0.359016   5.219937   0.315070   0.374108  -0.048728
     4  C    0.002260  -0.050452   0.315070   5.193062  -0.065425   0.006135
     5  C   -0.002506  -0.028995   0.374108  -0.065425   4.985401   0.367449
     6  C    0.000454  -0.003009  -0.048728   0.006135   0.367449   5.104009
     7  C   -0.000071  -0.022228  -0.063739  -0.066353   0.364277  -0.033844
     8  C   -0.000001   0.000500   0.001828  -0.003479  -0.031189   0.001528
     9  C    0.003262  -0.048702  -0.002451   0.339271  -0.066575   0.002546
    10  C   -0.072723   0.309373  -0.176583  -0.057491  -0.007909   0.001215
    11  H    0.001598  -0.031152   0.350310  -0.032382  -0.029291  -0.000516
    12  H    0.000072  -0.003492  -0.031799   0.365931   0.005181  -0.000163
    13  H   -0.000060   0.004006  -0.028327   0.367335  -0.005427   0.000052
    14  H   -0.000079   0.003927  -0.041715  -0.001944   0.371104  -0.045022
    15  H    0.000028   0.000253   0.004510  -0.000202  -0.029200   0.367970
    16  H    0.002123   0.007252  -0.007659   0.000316  -0.032081   0.372454
    17  H    0.000136  -0.000554  -0.002851  -0.000017  -0.028942   0.370445
    18  H   -0.000024  -0.000252   0.002005   0.006801  -0.047522  -0.005335
    19  H    0.000000  -0.000002   0.000153   0.002468  -0.006348   0.000049
    20  H   -0.000000  -0.000016   0.000186  -0.000114  -0.004571   0.000495
    21  H   -0.000000  -0.000003  -0.000155  -0.000041   0.004442  -0.000152
    22  H   -0.000058   0.003710   0.004217  -0.033701   0.006384  -0.000112
    23  H    0.000333  -0.021177   0.004870   0.005816  -0.000447  -0.000011
    24  H   -0.000498  -0.019656   0.003308  -0.000970   0.000208  -0.000022
               7          8          9         10         11         12
     1  O   -0.000071  -0.000001   0.003262  -0.072723   0.001598   0.000072
     2  C   -0.022228   0.000500  -0.048702   0.309373  -0.031152  -0.003492
     3  C   -0.063739   0.001828  -0.002451  -0.176583   0.350310  -0.031799
     4  C   -0.066353  -0.003479   0.339271  -0.057491  -0.032382   0.365931
     5  C    0.364277  -0.031189  -0.066575  -0.007909  -0.029291   0.005181
     6  C   -0.033844   0.001528   0.002546   0.001215  -0.000516  -0.000163
     7  C    4.976474   0.364057   0.384825  -0.025920   0.006493   0.005446
     8  C    0.364057   5.104825  -0.037348   0.003585  -0.000169  -0.000000
     9  C    0.384825  -0.037348   5.030116   0.321286   0.003769  -0.033805
    10  C   -0.025920   0.003585   0.321286   5.387872   0.009265  -0.001118
    11  H    0.006493  -0.000169   0.003769   0.009265   0.591008  -0.000636
    12  H    0.005446  -0.000000  -0.033805  -0.001118  -0.000636   0.582811
    13  H   -0.004226   0.001029  -0.030217   0.004260  -0.000894  -0.033814
    14  H   -0.045430  -0.008986   0.000140  -0.000333  -0.004993  -0.000045
    15  H   -0.004233   0.000515   0.000119   0.000007  -0.000067   0.000003
    16  H   -0.005335  -0.000040  -0.000151  -0.000260  -0.000169   0.000001
    17  H    0.004434  -0.000150  -0.000186   0.000059   0.002206  -0.000001
    18  H    0.375709  -0.045060  -0.048603  -0.006493  -0.000150  -0.000176
    19  H   -0.033593   0.372359  -0.006146   0.000096  -0.000028  -0.000128
    20  H   -0.029285   0.369796   0.004432  -0.000135   0.000001   0.000004
    21  H   -0.028781   0.369097  -0.003884   0.000044   0.000004  -0.000006
    22  H   -0.040481  -0.002919   0.366254  -0.030991  -0.000137  -0.000769
    23  H   -0.006604   0.000090  -0.029626   0.351419  -0.000107  -0.000047
    24  H    0.004309  -0.000167  -0.031059   0.348018  -0.000252   0.002964
              13         14         15         16         17         18
     1  O   -0.000060  -0.000079   0.000028   0.002123   0.000136  -0.000024
     2  C    0.004006   0.003927   0.000253   0.007252  -0.000554  -0.000252
     3  C   -0.028327  -0.041715   0.004510  -0.007659  -0.002851   0.002005
     4  C    0.367335  -0.001944  -0.000202   0.000316  -0.000017   0.006801
     5  C   -0.005427   0.371104  -0.029200  -0.032081  -0.028942  -0.047522
     6  C    0.000052  -0.045022   0.367970   0.372454   0.370445  -0.005335
     7  C   -0.004226  -0.045430  -0.004233  -0.005335   0.004434   0.375709
     8  C    0.001029  -0.008986   0.000515  -0.000040  -0.000150  -0.045060
     9  C   -0.030217   0.000140   0.000119  -0.000151  -0.000186  -0.048603
    10  C    0.004260  -0.000333   0.000007  -0.000260   0.000059  -0.006493
    11  H   -0.000894  -0.004993  -0.000067  -0.000169   0.002206  -0.000150
    12  H   -0.033814  -0.000045   0.000003   0.000001  -0.000001  -0.000176
    13  H    0.576885   0.004310  -0.000009   0.000001  -0.000002   0.000050
    14  H    0.004310   0.624923  -0.003052   0.005523  -0.003403   0.005078
    15  H   -0.000009  -0.003052   0.579143  -0.030604  -0.031062   0.000848
    16  H    0.000001   0.005523  -0.030604   0.556226  -0.029290   0.003625
    17  H   -0.000002  -0.003403  -0.031062  -0.029290   0.568421   0.000175
    18  H    0.000050   0.005078   0.000848   0.003625   0.000175   0.626222
    19  H    0.003610   0.003677   0.000002  -0.000001   0.000006   0.005520
    20  H   -0.000156   0.001735   0.001117   0.000016  -0.000061  -0.002634
    21  H    0.000084   0.000283  -0.000063   0.000008   0.000003  -0.003522
    22  H   -0.001635  -0.000277   0.000000  -0.000014   0.000004   0.000741
    23  H   -0.000161   0.000037  -0.000026   0.000404   0.000001   0.006294
    24  H    0.000054   0.000017   0.000001   0.000027  -0.000001   0.000242
              19         20         21         22         23         24
     1  O    0.000000  -0.000000  -0.000000  -0.000058   0.000333  -0.000498
     2  C   -0.000002  -0.000016  -0.000003   0.003710  -0.021177  -0.019656
     3  C    0.000153   0.000186  -0.000155   0.004217   0.004870   0.003308
     4  C    0.002468  -0.000114  -0.000041  -0.033701   0.005816  -0.000970
     5  C   -0.006348  -0.004571   0.004442   0.006384  -0.000447   0.000208
     6  C    0.000049   0.000495  -0.000152  -0.000112  -0.000011  -0.000022
     7  C   -0.033593  -0.029285  -0.028781  -0.040481  -0.006604   0.004309
     8  C    0.372359   0.369796   0.369097  -0.002919   0.000090  -0.000167
     9  C   -0.006146   0.004432  -0.003884   0.366254  -0.029626  -0.031059
    10  C    0.000096  -0.000135   0.000044  -0.030991   0.351419   0.348018
    11  H   -0.000028   0.000001   0.000004  -0.000137  -0.000107  -0.000252
    12  H   -0.000128   0.000004  -0.000006  -0.000769  -0.000047   0.002964
    13  H    0.003610  -0.000156   0.000084  -0.001635  -0.000161   0.000054
    14  H    0.003677   0.001735   0.000283  -0.000277   0.000037   0.000017
    15  H    0.000002   0.001117  -0.000063   0.000000  -0.000026   0.000001
    16  H   -0.000001   0.000016   0.000008  -0.000014   0.000404   0.000027
    17  H    0.000006  -0.000061   0.000003   0.000004   0.000001  -0.000001
    18  H    0.005520  -0.002634  -0.003522   0.000741   0.006294   0.000242
    19  H    0.577542  -0.031502  -0.030909   0.000087   0.000006   0.000004
    20  H   -0.031502   0.574661  -0.030781   0.000009  -0.000008   0.000002
    21  H   -0.030909  -0.030781   0.576565   0.002866   0.000014  -0.000002
    22  H    0.000087   0.000009   0.002866   0.606526   0.000400  -0.003505
    23  H    0.000006  -0.000008   0.000014   0.000400   0.548488  -0.024165
    24  H    0.000004   0.000002  -0.000002  -0.003505  -0.024165   0.553541
 Mulliken charges:
               1
     1  O   -0.462508
     2  C    0.461122
     3  C   -0.173654
     4  C   -0.291895
     5  C   -0.092124
     6  C   -0.457886
     7  C   -0.075900
     8  C   -0.459701
     9  C   -0.117267
    10  C   -0.356544
    11  H    0.136291
    12  H    0.143588
    13  H    0.143250
    14  H    0.134527
    15  H    0.144001
    16  H    0.157628
    17  H    0.150630
    18  H    0.126462
    19  H    0.143075
    20  H    0.146805
    21  H    0.144889
    22  H    0.123401
    23  H    0.164206
    24  H    0.167602
 Sum of Mulliken charges =  -0.00000
 Mulliken charges with hydrogens summed into heavy atoms:
               1
     1  O   -0.462508
     2  C    0.461122
     3  C   -0.037363
     4  C   -0.005056
     5  C    0.042403
     6  C   -0.005628
     7  C    0.050563
     8  C   -0.024932
     9  C    0.006134
    10  C   -0.024736
 APT charges:
               1
     1  O   -0.658471
     2  C    0.745324
     3  C   -0.101000
     4  C    0.064238
     5  C    0.130209
     6  C    0.062001
     7  C    0.081189
     8  C    0.081860
     9  C    0.086281
    10  C   -0.061404
    11  H   -0.031364
    12  H   -0.036095
    13  H   -0.024717
    14  H   -0.064950
    15  H   -0.026422
    16  H   -0.008015
    17  H   -0.023370
    18  H   -0.063924
    19  H   -0.020646
    20  H   -0.028995
    21  H   -0.031938
    22  H   -0.050796
    23  H   -0.007461
    24  H   -0.011533
 Sum of APT charges =   0.00000
 APT charges with hydrogens summed into heavy atoms:
               1
     1  O   -0.658471
     2  C    0.745324
     3  C   -0.132364
     4  C    0.003426
     5  C    0.065258
     6  C    0.004194
     7  C    0.017265
     8  C    0.000280
     9  C    0.035485
    10  C   -0.080398
 Electronic spatial extent (au):  <R**2>=           1344.3242
 Charge=             -0.0000 electrons
 Dipole moment (field-independent basis, Debye):
    X=              2.8324    Y=             -1.0163    Z=              0.4171  Tot=              3.0380
 Quadrupole moment (field-independent basis, Debye-Ang):
   XX=            -71.0301   YY=            -59.7002   ZZ=            -59.7686
   XY=              3.0024   XZ=             -1.3121   YZ=              0.6010
 Traceless Quadrupole moment (field-independent basis, Debye-Ang):
   XX=             -7.5305   YY=              3.7994   ZZ=              3.7311
   XY=              3.0024   XZ=             -1.3121   YZ=              0.6010
 Octapole moment (field-independent basis, Debye-Ang**2):
  XXX=             21.2183  YYY=             -1.0306  ZZZ=             -1.3585  XYY=             -4.3006
  XXY=             -6.7662  XXZ=              3.9507  XZZ=             -3.6718  YZZ=              0.6067
  YYZ=             -0.1574  XYZ=             -0.8366
 Hexadecapole moment (field-independent basis, Debye-Ang**3):
 XXXX=           -995.1691 YYYY=           -589.6414 ZZZZ=           -284.4821 XXXY=             17.7118
 XXXZ=            -11.4283 YYYX=              2.1280 YYYZ=              3.7936 ZZZX=              4.1455
 ZZZY=              1.8745 XXYY=           -241.6302 XXZZ=           -194.7416 YYZZ=           -146.1905
 XXYZ=              1.4301 YYXZ=             -1.4042 ZZXY=             -2.9139
 N-N= 5.675613445187D+02 E-N=-2.124785216469D+03  KE= 4.225503258589D+02
  Exact polarizability:  96.524  -1.129  89.361   0.636   1.281  80.449
 Approx polarizability: 137.131  -5.304 124.552   3.738   1.163 122.051
 Calling FoFJK, ICntrl=    100127 FMM=F ISym2X=0 I1Cent= 0 IOpClX= 0 NMat=1 NMatS=1 NMatT=0.
 Full mass-weighted force constant matrix:
 Low frequencies ---   -7.9406   -4.6303   -0.0007   -0.0006    0.0008    1.5404
 Low frequencies ---   86.0936  133.1924  223.2714
 Diagonal vibrational polarizability:
        5.6829080       7.4616899       7.8306732
 Harmonic frequencies (cm**-1), IR intensities (KM/Mole), Raman scattering
 activities (A**4/AMU), depolarization ratios for plane and unpolarized
 incident light, reduced masses (AMU), force constants (mDyne/A),
 and normal coordinates:
                      1                      2                      3
                      A                      A                      A
 Frequencies --     86.0924               133.1918               223.2713
 Red. masses --      3.6930                 4.5249                 1.1216
 Frc consts  --      0.0161                 0.0473                 0.0329
 IR Inten    --      2.5218                 2.6777                 0.2203
  Atom  AN      X      Y      Z        X      Y      Z        X      Y      Z
     1   8    -0.11  -0.10   0.21     0.19   0.28  -0.04     0.01   0.02   0.00
     2   6    -0.02   0.03   0.04     0.05   0.03   0.05    -0.00  -0.01   0.01
     3   6     0.04   0.02  -0.02     0.05  -0.11   0.08    -0.00  -0.02   0.01
     4   6     0.01  -0.01  -0.08     0.09  -0.09  -0.02     0.01  -0.02  -0.01
     5   6     0.02   0.03  -0.06    -0.06  -0.02  -0.02    -0.01  -0.01  -0.01
     6   6    -0.04  -0.05  -0.17    -0.28  -0.12  -0.10     0.03  -0.01  -0.02
     7   6     0.08   0.00   0.01    -0.00  -0.01  -0.00    -0.01  -0.01  -0.01
     8   6     0.04  -0.09   0.21    -0.01   0.01   0.08    -0.02   0.06   0.05
     9   6    -0.00   0.05  -0.09     0.01  -0.02  -0.04    -0.00  -0.01  -0.02
    10   6     0.01   0.15  -0.09    -0.03  -0.00   0.03    -0.01  -0.00  -0.00
    11   1     0.09   0.00   0.02     0.09  -0.14   0.11     0.00  -0.03   0.01
    12   1    -0.02   0.00  -0.11     0.12  -0.12  -0.01     0.01  -0.02  -0.01
    13   1     0.01  -0.07  -0.08     0.13  -0.10  -0.06     0.01  -0.03  -0.02
    14   1    -0.00   0.13  -0.07    -0.04   0.12  -0.07     0.00  -0.02  -0.02
    15   1    -0.06  -0.00  -0.15    -0.36   0.02  -0.09    -0.00  -0.30  -0.50
    16   1     0.02  -0.16  -0.20    -0.23  -0.29  -0.11    -0.38   0.06   0.31
    17   1    -0.14  -0.03  -0.25    -0.43  -0.18  -0.15     0.54   0.23   0.09
    18   1     0.24   0.02  -0.00     0.05  -0.00  -0.01     0.00  -0.01  -0.01
    19   1    -0.11  -0.10   0.24    -0.06   0.03   0.10    -0.05   0.03   0.05
    20   1     0.12  -0.12   0.27    -0.02   0.02   0.09    -0.07   0.09   0.11
    21   1     0.10  -0.12   0.28     0.04   0.01   0.12     0.06   0.12   0.05
    22   1    -0.06   0.03  -0.13     0.00  -0.01  -0.11    -0.01  -0.01  -0.03
    23   1     0.04   0.31  -0.05    -0.09  -0.02   0.03    -0.02   0.00  -0.00
    24   1    -0.00   0.15  -0.26    -0.03   0.00   0.09    -0.01  -0.01  -0.00
                      4                      5                      6
                      A                      A                      A
 Frequencies --    236.4173               236.7834               260.3314
 Red. masses --      1.8873                 1.1803                 2.1283
 Frc consts  --      0.0622                 0.0390                 0.0850
 IR Inten    --      0.0549                 0.0753                 0.1771
  Atom  AN      X      Y      Z        X      Y      Z        X      Y      Z
     1   8    -0.01   0.03   0.03    -0.00   0.01   0.01     0.00   0.03   0.03
     2   6    -0.02   0.01   0.02     0.00   0.01   0.00    -0.03  -0.04   0.02
     3   6    -0.03  -0.03   0.03    -0.01  -0.01   0.01     0.01  -0.03  -0.03
     4   6    -0.06  -0.05   0.01    -0.04  -0.03   0.01     0.07  -0.01  -0.06
     5   6    -0.01  -0.05   0.04     0.00  -0.02   0.01    -0.02  -0.01  -0.06
     6   6     0.10  -0.09  -0.10     0.01  -0.03  -0.01     0.12   0.06   0.01
     7   6    -0.01  -0.03   0.04     0.01  -0.02   0.02    -0.03  -0.00  -0.07
     8   6     0.02   0.16  -0.04     0.02   0.06  -0.03    -0.06   0.09   0.14
     9   6    -0.01  -0.03   0.02    -0.00  -0.02   0.02    -0.01  -0.02  -0.07
    10   6     0.00   0.04  -0.01     0.02   0.04  -0.03    -0.09  -0.10   0.04
    11   1    -0.02  -0.03   0.03    -0.01  -0.01   0.01     0.05  -0.04  -0.01
    12   1    -0.08  -0.04  -0.02    -0.07  -0.02  -0.03     0.12  -0.03   0.00
    13   1    -0.07  -0.08   0.04    -0.06  -0.07   0.03     0.11   0.03  -0.11
    14   1    -0.03  -0.04   0.05    -0.00  -0.02   0.01    -0.00  -0.07  -0.06
    15   1     0.19  -0.12   0.07     0.01  -0.06  -0.03     0.23   0.10   0.29
    16   1     0.31  -0.16  -0.27    -0.00  -0.05   0.00     0.32   0.18  -0.18
    17   1    -0.08  -0.04  -0.27     0.02  -0.01  -0.02    -0.04  -0.02  -0.02
    18   1    -0.07  -0.01   0.05    -0.02  -0.04   0.02     0.04  -0.01  -0.08
    19   1     0.14  -0.08  -0.15     0.11   0.60   0.15    -0.19   0.31   0.24
    20   1    -0.19   0.30   0.22     0.03   0.01  -0.59    -0.10   0.10   0.03
    21   1     0.15   0.47  -0.25    -0.05  -0.32   0.29     0.09  -0.02   0.35
    22   1    -0.04  -0.04   0.01    -0.02  -0.03   0.01    -0.01  -0.00  -0.10
    23   1     0.04   0.09   0.00     0.07   0.10  -0.01    -0.23  -0.22   0.00
    24   1    -0.02   0.05  -0.08    -0.00   0.05  -0.10    -0.04  -0.12   0.22
                      7                      8                      9
                      A                      A                      A
 Frequencies --    334.8177               398.5676               417.4144
 Red. masses --      2.3326                 2.3121                 2.9200
 Frc consts  --      0.1541                 0.2164                 0.2998
 IR Inten    --      0.2305                 0.4166                 2.2969
  Atom  AN      X      Y      Z        X      Y      Z        X      Y      Z
     1   8     0.01  -0.01  -0.05    -0.08   0.01  -0.02    -0.12   0.01  -0.14
     2   6    -0.03  -0.05   0.03    -0.06   0.04  -0.02    -0.14   0.01   0.05
     3   6    -0.05  -0.07   0.08    -0.01   0.02  -0.04    -0.06  -0.03   0.04
     4   6     0.09  -0.02  -0.02    -0.07  -0.02  -0.08     0.17   0.08   0.04
     5   6    -0.07   0.05   0.13     0.07   0.00   0.07    -0.02  -0.09  -0.04
     6   6     0.09  -0.01  -0.10    -0.02  -0.06   0.01     0.01  -0.08   0.05
     7   6    -0.05   0.13   0.08     0.12   0.05   0.05     0.07  -0.07  -0.03
     8   6    -0.06  -0.09  -0.03     0.17   0.01  -0.01     0.10   0.00   0.00
     9   6     0.02   0.09  -0.04     0.02   0.06  -0.06    -0.02   0.01  -0.00
    10   6     0.00   0.00   0.01    -0.10  -0.08   0.09    -0.05   0.12   0.04
    11   1    -0.09  -0.17   0.12     0.02   0.01  -0.01     0.09   0.01   0.10
    12   1     0.20  -0.11  -0.01    -0.13  -0.02  -0.21     0.44  -0.04   0.31
    13   1     0.13   0.04  -0.08    -0.13  -0.10   0.01     0.32   0.39  -0.15
    14   1    -0.12   0.09   0.16     0.01   0.03   0.11    -0.05  -0.13  -0.01
    15   1     0.21  -0.22  -0.12    -0.09  -0.03  -0.11     0.00  -0.05   0.07
    16   1     0.18  -0.10  -0.16    -0.08  -0.19   0.08    -0.02  -0.00   0.06
    17   1     0.10   0.22  -0.31    -0.02  -0.03  -0.02     0.04  -0.13   0.12
    18   1    -0.06   0.24   0.11     0.13   0.13   0.07     0.11  -0.08  -0.03
    19   1    -0.03  -0.06  -0.03     0.24   0.03  -0.02     0.14   0.04   0.01
    20   1     0.15  -0.21  -0.17     0.17   0.01  -0.07     0.03   0.04  -0.01
    21   1    -0.29  -0.25  -0.03     0.11   0.00  -0.04     0.16   0.03   0.01
    22   1     0.09   0.16  -0.12    -0.00   0.06  -0.08    -0.14  -0.06  -0.04
    23   1    -0.07   0.01   0.01    -0.36  -0.40  -0.01    -0.02   0.25   0.08
    24   1     0.08  -0.04   0.04     0.01  -0.12   0.50    -0.04   0.11  -0.11
                     10                     11                     12
                      A                      A                      A
 Frequencies --    458.4704               488.3112               555.9937
 Red. masses --      4.0566                 2.9002                 3.0855
 Frc consts  --      0.5024                 0.4075                 0.5620
 IR Inten    --      4.1432                 3.3944                 1.5878
  Atom  AN      X      Y      Z        X      Y      Z        X      Y      Z
     1   8    -0.01   0.19   0.20     0.00  -0.02  -0.10     0.04  -0.05  -0.02
     2   6    -0.09  -0.11  -0.06    -0.06  -0.06   0.15     0.04  -0.03  -0.04
     3   6    -0.16  -0.10  -0.12    -0.00  -0.06   0.10     0.08   0.01   0.00
     4   6     0.00   0.04   0.03    -0.07  -0.14  -0.00     0.05  -0.03  -0.01
     5   6    -0.15  -0.00  -0.06    -0.07   0.05  -0.13     0.02   0.13   0.09
     6   6    -0.01   0.09  -0.01    -0.01   0.18  -0.06    -0.03   0.16  -0.04
     7   6     0.09  -0.00   0.06     0.06  -0.01  -0.03     0.01  -0.08   0.17
     8   6     0.15  -0.04  -0.03     0.09  -0.02  -0.02     0.09   0.01   0.01
     9   6     0.07  -0.01   0.05     0.04   0.00   0.02    -0.16  -0.13  -0.03
    10   6     0.05  -0.11  -0.09     0.01   0.06   0.10    -0.15  -0.04  -0.08
    11   1    -0.26  -0.07  -0.19     0.15  -0.05   0.18    -0.03  -0.10   0.00
    12   1     0.13  -0.04   0.10    -0.25  -0.11  -0.27     0.09   0.06   0.29
    13   1    -0.01   0.26   0.03    -0.20  -0.39   0.16     0.25   0.01  -0.25
    14   1    -0.29  -0.01   0.06    -0.06   0.09  -0.15    -0.01   0.24   0.08
    15   1     0.08  -0.02   0.05     0.08   0.14   0.07    -0.05   0.17  -0.07
    16   1    -0.03   0.28  -0.03     0.01   0.40  -0.10    -0.03   0.09  -0.03
    17   1     0.11   0.11   0.05     0.06   0.14   0.04    -0.05   0.18  -0.08
    18   1     0.12  -0.06   0.03     0.09  -0.13  -0.07     0.05  -0.04   0.17
    19   1     0.26  -0.09  -0.07     0.10  -0.07  -0.04     0.39   0.05  -0.04
    20   1     0.19  -0.07  -0.07     0.11  -0.03   0.01    -0.10   0.10  -0.11
    21   1     0.02  -0.04  -0.12     0.07   0.00  -0.06     0.06   0.11  -0.11
    22   1     0.10  -0.02   0.12    -0.01  -0.01  -0.04    -0.17  -0.13  -0.06
    23   1     0.17  -0.10  -0.09    -0.06   0.23   0.15    -0.09   0.08  -0.05
    24   1     0.18  -0.20  -0.19     0.07   0.01  -0.04    -0.27   0.03  -0.20
                     13                     14                     15
                      A                      A                      A
 Frequencies --    600.7634               664.3635               754.0419
 Red. masses --      2.6356                 4.2333                 3.8750
 Frc consts  --      0.5605                 1.1009                 1.2981
 IR Inten    --      2.7554                 0.6577                 2.4984
  Atom  AN      X      Y      Z        X      Y      Z        X      Y      Z
     1   8    -0.07  -0.04   0.03     0.23  -0.12   0.03    -0.00  -0.02   0.01
     2   6     0.09   0.23  -0.12     0.20  -0.05   0.07     0.03  -0.01  -0.14
     3   6    -0.04  -0.06   0.01    -0.14   0.02   0.04     0.01  -0.15   0.05
     4   6     0.06  -0.09  -0.02    -0.10   0.15  -0.02    -0.01  -0.12   0.29
     5   6    -0.10  -0.01  -0.02    -0.18  -0.08  -0.03     0.07   0.01  -0.02
     6   6    -0.02   0.06  -0.03    -0.01  -0.06   0.02     0.01   0.02  -0.02
     7   6    -0.02  -0.07   0.03     0.03  -0.02  -0.04     0.04   0.15  -0.16
     8   6    -0.02  -0.01  -0.00     0.11  -0.01   0.00     0.10   0.03  -0.02
     9   6     0.05  -0.06   0.03    -0.09   0.07  -0.10    -0.11   0.09   0.07
    10   6     0.08   0.10   0.05    -0.08   0.10   0.01    -0.12   0.03  -0.10
    11   1    -0.04  -0.14   0.05    -0.25   0.09  -0.07    -0.16  -0.00  -0.12
    12   1     0.15  -0.14   0.04    -0.02   0.10   0.05     0.04  -0.17   0.29
    13   1     0.07   0.04  -0.03    -0.05   0.22  -0.09     0.04  -0.09   0.23
    14   1    -0.09   0.03  -0.04    -0.22  -0.10   0.00     0.13  -0.01  -0.07
    15   1     0.06  -0.03   0.05     0.14  -0.23   0.14    -0.00   0.02  -0.05
    16   1    -0.00   0.21  -0.07     0.03   0.16  -0.05     0.03  -0.04  -0.02
    17   1     0.05   0.09  -0.00     0.09  -0.00   0.04    -0.02   0.06  -0.07
    18   1    -0.02  -0.13   0.01     0.13   0.05  -0.04    -0.06   0.12  -0.16
    19   1     0.05  -0.02  -0.02     0.15  -0.00  -0.00    -0.30  -0.02   0.04
    20   1    -0.05  -0.00  -0.03     0.09  -0.00  -0.03     0.33  -0.07   0.18
    21   1    -0.04   0.01  -0.04     0.09  -0.00  -0.01     0.18  -0.09   0.15
    22   1     0.00  -0.07  -0.05    -0.18  -0.02  -0.01    -0.13   0.11  -0.04
    23   1     0.05  -0.46  -0.11    -0.39   0.02  -0.02    -0.03  -0.18  -0.15
    24   1    -0.14   0.26   0.59    -0.15   0.16   0.30    -0.21   0.09   0.05
                     16                     17                     18
                      A                      A                      A
 Frequencies --    785.3949               820.5576               833.0439
 Red. masses --      2.8363                 2.4454                 2.2425
 Frc consts  --      1.0308                 0.9701                 0.9169
 IR Inten    --      2.0889                 1.4057                 1.3532
  Atom  AN      X      Y      Z        X      Y      Z        X      Y      Z
     1   8     0.03  -0.01  -0.00    -0.03   0.01  -0.01     0.04   0.00   0.02
     2   6     0.01  -0.05  -0.03    -0.03   0.01  -0.00    -0.01  -0.09   0.00
     3   6     0.08  -0.02  -0.18     0.08   0.02   0.20    -0.13  -0.07   0.02
     4   6     0.05  -0.09   0.06    -0.02   0.05   0.04    -0.03  -0.01   0.00
     5   6     0.01  -0.06  -0.15    -0.03  -0.04  -0.08     0.16   0.03  -0.01
     6   6     0.02  -0.07  -0.01    -0.00  -0.05  -0.01     0.04   0.08  -0.04
     7   6    -0.02   0.08   0.19    -0.02  -0.02   0.06     0.01  -0.12   0.02
     8   6    -0.08   0.02   0.03    -0.01  -0.01   0.02    -0.07  -0.04  -0.01
     9   6    -0.01   0.08   0.04    -0.06   0.11  -0.03    -0.02   0.13  -0.00
    10   6    -0.07   0.09   0.06     0.06  -0.07  -0.18     0.05   0.08  -0.00
    11   1     0.10   0.21  -0.30     0.22   0.06   0.25    -0.25  -0.08  -0.05
    12   1    -0.02  -0.04   0.04    -0.06   0.09   0.04     0.17  -0.19  -0.03
    13   1     0.02  -0.07   0.10     0.11  -0.17  -0.12     0.01   0.12  -0.06
    14   1    -0.13   0.04  -0.05     0.09   0.12  -0.22     0.14  -0.08   0.04
    15   1     0.01   0.03   0.10     0.08  -0.07   0.15    -0.21   0.38  -0.20
    16   1    -0.07   0.19   0.02    -0.02   0.25  -0.05    -0.07  -0.16   0.09
    17   1     0.11  -0.27   0.24     0.12  -0.15   0.16    -0.12  -0.08   0.01
    18   1     0.08   0.01   0.16     0.12  -0.04   0.04     0.04  -0.15   0.01
    19   1     0.25  -0.06  -0.06     0.24   0.00  -0.02     0.07   0.09   0.01
    20   1    -0.03  -0.02  -0.13    -0.11   0.03  -0.10    -0.38   0.12  -0.06
    21   1    -0.40   0.03  -0.19    -0.10   0.06  -0.10     0.11   0.10  -0.01
    22   1     0.01   0.18  -0.24     0.03   0.13   0.09    -0.09   0.10  -0.06
    23   1    -0.13   0.11   0.07    -0.03  -0.37  -0.27    -0.14  -0.12  -0.06
    24   1    -0.01   0.04   0.05     0.23  -0.16   0.14     0.26  -0.04   0.25
                     19                     20                     21
                      A                      A                      A
 Frequencies --    905.2301               919.3929               934.3412
 Red. masses --      2.1400                 2.6841                 2.1755
 Frc consts  --      1.0332                 1.3368                 1.1190
 IR Inten    --      6.3860                 1.8248                 1.4689
  Atom  AN      X      Y      Z        X      Y      Z        X      Y      Z
     1   8     0.01  -0.01  -0.00     0.02  -0.01   0.01     0.00  -0.00   0.01
     2   6     0.02   0.05   0.07     0.02  -0.01  -0.07     0.03   0.05   0.01
     3   6    -0.10  -0.04   0.06     0.03  -0.06  -0.01    -0.11   0.19   0.04
     4   6    -0.09  -0.00  -0.08     0.04   0.01  -0.18     0.03  -0.16   0.03
     5   6     0.10  -0.02  -0.10    -0.01   0.02  -0.02    -0.01  -0.00  -0.01
     6   6     0.05  -0.01  -0.05    -0.00  -0.04   0.01     0.00  -0.02   0.00
     7   6     0.00   0.13   0.05    -0.03   0.02  -0.02    -0.04   0.00  -0.02
     8   6     0.00   0.07   0.01     0.05  -0.01  -0.00     0.05  -0.01   0.01
     9   6    -0.02  -0.11   0.01    -0.17   0.14   0.21    -0.06   0.02  -0.06
    10   6     0.02  -0.04  -0.01    -0.01  -0.02   0.09     0.06  -0.09   0.05
    11   1     0.01  -0.09   0.15    -0.01  -0.21   0.04    -0.26   0.53  -0.22
    12   1     0.17  -0.10   0.20     0.10  -0.10  -0.34     0.22  -0.32   0.03
    13   1     0.04   0.29  -0.26     0.16  -0.18  -0.33     0.20  -0.17  -0.18
    14   1     0.05  -0.01  -0.05     0.02   0.06  -0.06     0.02   0.01  -0.04
    15   1    -0.14   0.30  -0.06     0.05  -0.10   0.06    -0.01   0.01   0.02
    16   1    -0.10   0.03   0.07     0.02   0.04  -0.02    -0.01   0.01   0.01
    17   1     0.01  -0.30   0.20     0.04  -0.03   0.03     0.01  -0.06   0.04
    18   1    -0.05   0.12   0.06    -0.08  -0.13  -0.05     0.00   0.05  -0.01
    19   1    -0.08  -0.11  -0.03     0.00   0.02   0.02     0.07   0.02   0.02
    20   1     0.35  -0.11   0.04     0.03   0.01   0.04    -0.00   0.01   0.00
    21   1    -0.30  -0.08  -0.04     0.12   0.00   0.04     0.10   0.01   0.02
    22   1     0.08  -0.11   0.20    -0.24   0.04   0.42    -0.01   0.11  -0.24
    23   1     0.05  -0.02  -0.01     0.40  -0.00   0.11     0.25   0.07   0.10
    24   1    -0.17   0.07  -0.01    -0.01  -0.03  -0.12     0.11  -0.13  -0.19
                     22                     23                     24
                      A                      A                      A
 Frequencies --    951.2417               992.9587              1012.1748
 Red. masses --      1.8434                 1.7449                 1.2541
 Frc consts  --      0.9828                 1.0136                 0.7570
 IR Inten    --      0.7122                 2.8623                 0.5554
  Atom  AN      X      Y      Z        X      Y      Z        X      Y      Z
     1   8    -0.00   0.02  -0.00    -0.01  -0.01   0.01    -0.00   0.01   0.00
     2   6    -0.05  -0.07   0.04     0.04   0.08  -0.04    -0.01  -0.03  -0.01
     3   6     0.07  -0.01  -0.08     0.02  -0.10  -0.00    -0.01   0.02   0.00
     4   6    -0.08  -0.03  -0.00    -0.07   0.04   0.03     0.01   0.00  -0.00
     5   6    -0.02  -0.00   0.02     0.03  -0.01  -0.00     0.02   0.05   0.03
     6   6    -0.02   0.02   0.02    -0.02  -0.01  -0.02    -0.00  -0.07  -0.06
     7   6     0.00   0.03  -0.00    -0.00   0.02  -0.02    -0.00  -0.02   0.04
     8   6     0.02   0.02  -0.02    -0.00  -0.04   0.02     0.01  -0.02  -0.07
     9   6    -0.12  -0.04  -0.03    -0.04   0.04  -0.09     0.02  -0.02  -0.01
    10   6     0.15   0.07   0.04     0.02  -0.08   0.12     0.00   0.03   0.00
    11   1     0.21   0.04  -0.03     0.05  -0.31   0.12    -0.14  -0.09  -0.02
    12   1    -0.08   0.16   0.43    -0.04   0.07   0.17    -0.03   0.04   0.01
    13   1     0.15   0.06  -0.30    -0.16   0.34   0.12    -0.00  -0.02   0.01
    14   1    -0.08  -0.05   0.08     0.06   0.11  -0.06    -0.07   0.40   0.02
    15   1     0.03  -0.09  -0.01     0.04  -0.03   0.07     0.05   0.03   0.19
    16   1     0.04  -0.06  -0.02    -0.02   0.15  -0.05    -0.10   0.36  -0.04
    17   1    -0.02   0.12  -0.09     0.06  -0.03   0.05     0.17  -0.29   0.28
    18   1    -0.10   0.03   0.01     0.14   0.18   0.01    -0.27   0.10   0.11
    19   1    -0.14  -0.02  -0.00     0.18   0.07   0.02    -0.34   0.08   0.04
    20   1     0.16  -0.04   0.07    -0.24   0.07  -0.08    -0.02   0.02   0.16
    21   1     0.01  -0.05   0.05     0.10   0.08  -0.04     0.33  -0.05   0.17
    22   1    -0.31  -0.11  -0.20    -0.01   0.14  -0.35    -0.01  -0.02  -0.07
    23   1     0.08  -0.19  -0.03     0.33   0.15   0.19    -0.09   0.02  -0.00
    24   1     0.39  -0.07   0.26     0.03  -0.10  -0.26     0.05  -0.00   0.04
                     25                     26                     27
                      A                      A                      A
 Frequencies --   1020.0324              1047.3542              1066.0578
 Red. masses --      1.5254                 1.7078                 1.6236
 Frc consts  --      0.9351                 1.1038                 1.0872
 IR Inten    --     10.6115                 4.2303                 1.0694
  Atom  AN      X      Y      Z        X      Y      Z        X      Y      Z
     1   8     0.00  -0.01  -0.01    -0.01   0.01   0.00    -0.00   0.01   0.00
     2   6     0.02   0.05   0.05    -0.01  -0.03  -0.03    -0.01  -0.03  -0.02
     3   6     0.04  -0.01  -0.05    -0.01   0.01   0.02    -0.01   0.03   0.00
     4   6    -0.10  -0.07  -0.03    -0.03  -0.02   0.01    -0.03  -0.03  -0.02
     5   6     0.02  -0.02   0.01     0.05   0.07   0.02    -0.00   0.14  -0.04
     6   6    -0.06   0.02   0.01    -0.05  -0.05   0.02     0.02  -0.07   0.06
     7   6     0.01  -0.02   0.02     0.16   0.01  -0.06    -0.11  -0.03  -0.02
     8   6    -0.01  -0.03  -0.03    -0.12   0.03   0.01     0.06   0.02   0.04
     9   6     0.05   0.07   0.05     0.01  -0.04  -0.00     0.04  -0.01   0.02
    10   6    -0.04  -0.03  -0.05     0.00   0.01   0.03    -0.00   0.03   0.00
    11   1     0.26   0.16  -0.02    -0.23   0.04  -0.11    -0.23  -0.32   0.07
    12   1     0.26  -0.27   0.22     0.12  -0.15   0.01    -0.04   0.07   0.20
    13   1     0.02   0.38  -0.20     0.06  -0.00  -0.11    -0.01   0.12  -0.05
    14   1    -0.01   0.03   0.02     0.13   0.33  -0.10     0.28   0.14  -0.28
    15   1     0.10  -0.20   0.07     0.16  -0.29   0.18     0.06  -0.16   0.05
    16   1     0.06   0.08  -0.09     0.06   0.17  -0.10     0.08  -0.16   0.03
    17   1     0.03   0.20  -0.10     0.12   0.10  -0.00     0.00  -0.01  -0.01
    18   1    -0.11  -0.11   0.01     0.39   0.01  -0.09    -0.09  -0.44  -0.14
    19   1    -0.12   0.06   0.03     0.04  -0.04  -0.05     0.16  -0.08  -0.02
    20   1    -0.11   0.04   0.05    -0.08  -0.00  -0.11     0.19  -0.05  -0.02
    21   1     0.18   0.00   0.07    -0.31   0.04  -0.13    -0.10  -0.01  -0.04
    22   1     0.30   0.17   0.22    -0.23  -0.25   0.20     0.21   0.17  -0.25
    23   1    -0.24   0.13  -0.01    -0.10   0.06   0.04    -0.16   0.07   0.01
    24   1     0.03  -0.06  -0.04     0.07  -0.03   0.00     0.07  -0.02   0.03
                     28                     29                     30
                      A                      A                      A
 Frequencies --   1088.1193              1121.3394              1126.9160
 Red. masses --      1.7985                 1.2601                 1.9519
 Frc consts  --      1.2546                 0.9335                 1.4605
 IR Inten    --     11.3871                 0.3462                 8.7013
  Atom  AN      X      Y      Z        X      Y      Z        X      Y      Z
     1   8     0.01   0.00  -0.01     0.02  -0.00  -0.01     0.01  -0.03  -0.01
     2   6    -0.02  -0.02   0.10    -0.02  -0.03   0.06     0.04   0.10   0.06
     3   6    -0.03  -0.01  -0.05    -0.02   0.02  -0.02    -0.02   0.01  -0.03
     4   6     0.01  -0.04   0.01     0.03   0.01  -0.01     0.03  -0.05   0.01
     5   6    -0.02   0.13  -0.05     0.07   0.01  -0.01    -0.08   0.09  -0.02
     6   6     0.04  -0.07   0.05    -0.05  -0.00   0.02     0.06  -0.03   0.03
     7   6     0.01   0.09  -0.04    -0.04  -0.02   0.02     0.13  -0.07   0.01
     8   6    -0.01  -0.10   0.00     0.02   0.02   0.01    -0.06   0.05  -0.05
     9   6    -0.03  -0.04   0.02    -0.04  -0.02   0.00    -0.04   0.06   0.02
    10   6     0.04   0.01  -0.04    -0.01   0.01  -0.04    -0.05  -0.06  -0.05
    11   1     0.10   0.02   0.01     0.15   0.10   0.03     0.16  -0.17   0.17
    12   1    -0.05   0.04   0.07     0.18  -0.24  -0.32    -0.03   0.02   0.04
    13   1     0.00  -0.03   0.01    -0.28   0.32   0.36    -0.10   0.12   0.17
    14   1    -0.22   0.14   0.10     0.11   0.09  -0.06    -0.36   0.09   0.21
    15   1     0.00  -0.05  -0.00     0.10  -0.19   0.09    -0.08   0.11  -0.08
    16   1     0.03  -0.18   0.08     0.06   0.08  -0.09    -0.02  -0.20   0.13
    17   1     0.00  -0.08   0.03     0.05   0.14  -0.05    -0.05  -0.14   0.05
    18   1     0.19   0.16  -0.05    -0.10   0.02   0.04     0.12  -0.35  -0.08
    19   1     0.20   0.16   0.05    -0.01  -0.04  -0.01    -0.30  -0.06  -0.04
    20   1    -0.43   0.11  -0.08     0.11  -0.02   0.01     0.12  -0.03   0.07
    21   1     0.28   0.13  -0.03    -0.05  -0.03   0.01    -0.12  -0.07   0.03
    22   1     0.19   0.06   0.11    -0.20  -0.04  -0.25    -0.20   0.02  -0.20
    23   1     0.18  -0.22  -0.10     0.30  -0.27  -0.11     0.08  -0.05  -0.05
    24   1    -0.34   0.25   0.14    -0.08   0.06   0.05     0.22  -0.22  -0.12
                     31                     32                     33
                      A                      A                      A
 Frequencies --   1165.3748              1173.1254              1190.7360
 Red. masses --      1.7125                 2.1886                 1.7362
 Frc consts  --      1.3703                 1.7746                 1.4503
 IR Inten    --      8.7255                17.0344                 5.1106
  Atom  AN      X      Y      Z        X      Y      Z        X      Y      Z
     1   8    -0.01  -0.01  -0.02     0.03   0.01   0.02     0.00  -0.00  -0.02
     2   6     0.02   0.08   0.08    -0.03  -0.12  -0.12    -0.02   0.01   0.12
     3   6     0.05  -0.03  -0.08     0.05   0.11   0.03    -0.00   0.03  -0.06
     4   6     0.02  -0.02   0.04    -0.07  -0.06  -0.03     0.02  -0.03  -0.01
     5   6    -0.02   0.04   0.06    -0.10  -0.01   0.11     0.05  -0.06   0.11
     6   6     0.03  -0.02  -0.04     0.06  -0.00  -0.07    -0.05   0.01  -0.08
     7   6    -0.11  -0.01  -0.08     0.00   0.01  -0.10     0.02  -0.05  -0.08
     8   6     0.04  -0.00   0.07    -0.00  -0.01   0.04    -0.01   0.04   0.04
     9   6    -0.03  -0.00  -0.02     0.06   0.01   0.06    -0.02   0.05   0.03
    10   6     0.03   0.00  -0.04    -0.03   0.04   0.02    -0.01  -0.01  -0.03
    11   1    -0.09  -0.08  -0.13     0.44  -0.00   0.31    -0.27  -0.19  -0.09
    12   1     0.11  -0.18  -0.16     0.20  -0.24   0.08    -0.17   0.23   0.20
    13   1    -0.09   0.10   0.18    -0.09   0.32  -0.00     0.07  -0.09  -0.08
    14   1    -0.03   0.06   0.06    -0.02   0.02   0.04    -0.02  -0.09   0.18
    15   1    -0.04   0.14   0.03    -0.10   0.30  -0.03     0.03   0.04   0.12
    16   1    -0.08   0.07   0.04    -0.15   0.07   0.10    -0.08   0.32  -0.10
    17   1     0.03  -0.18   0.12    -0.01  -0.27   0.14     0.11  -0.05   0.09
    18   1    -0.08   0.19  -0.03     0.11   0.03  -0.10     0.07  -0.16  -0.12
    19   1     0.30  -0.05  -0.00     0.17  -0.03  -0.01     0.09  -0.09  -0.03
    20   1     0.05  -0.02  -0.10    -0.03  -0.00  -0.10     0.12  -0.04  -0.07
    21   1    -0.08   0.04  -0.07    -0.08   0.04  -0.07    -0.21  -0.00  -0.06
    22   1    -0.19  -0.23   0.42    -0.12  -0.04  -0.14     0.30   0.28  -0.08
    23   1    -0.29   0.10  -0.02     0.09  -0.07  -0.01     0.27  -0.18  -0.07
    24   1     0.37  -0.20   0.02    -0.15   0.11   0.02    -0.21   0.13   0.04
                     34                     35                     36
                      A                      A                      A
 Frequencies --   1213.9721              1245.4021              1264.3884
 Red. masses --      1.8548                 1.5306                 1.6025
 Frc consts  --      1.6105                 1.3987                 1.5094
 IR Inten    --      0.8781                 1.6744                 0.4804
  Atom  AN      X      Y      Z        X      Y      Z        X      Y      Z
     1   8     0.02  -0.01   0.00     0.01  -0.00   0.02     0.00  -0.01  -0.01
     2   6     0.02   0.03   0.01     0.02   0.01  -0.06     0.01   0.02   0.01
     3   6    -0.06   0.11  -0.01    -0.13  -0.03  -0.01     0.02  -0.10   0.08
     4   6     0.07  -0.07  -0.05     0.04   0.03   0.01    -0.01   0.02  -0.08
     5   6     0.02  -0.08  -0.02     0.10   0.03   0.02    -0.00   0.01   0.03
     6   6    -0.04   0.02  -0.01    -0.04  -0.02  -0.01     0.01  -0.00  -0.01
     7   6     0.03   0.11   0.00    -0.03   0.02  -0.05    -0.02   0.06  -0.03
     8   6    -0.01  -0.06  -0.00     0.01  -0.00   0.04    -0.00  -0.03   0.02
     9   6    -0.00  -0.05   0.12    -0.03  -0.03   0.03     0.07  -0.04   0.04
    10   6    -0.05   0.02  -0.05     0.04  -0.02  -0.00    -0.10   0.05  -0.00
    11   1    -0.11  -0.38   0.23     0.53   0.20   0.23    -0.10   0.56  -0.34
    12   1    -0.14   0.21   0.18    -0.08   0.10  -0.05    -0.11   0.19   0.11
    13   1    -0.09   0.09   0.15     0.06  -0.20  -0.01    -0.04   0.09  -0.05
    14   1     0.20  -0.23  -0.13    -0.27   0.06   0.31    -0.04   0.07   0.05
    15   1     0.03  -0.07   0.02     0.05  -0.08   0.09    -0.02   0.06   0.00
    16   1     0.02   0.08  -0.07     0.01   0.15  -0.08    -0.03   0.02   0.02
    17   1     0.01   0.08  -0.04     0.09   0.05   0.02     0.01  -0.04   0.03
    18   1     0.05   0.20   0.03    -0.07  -0.22  -0.12    -0.10  -0.25  -0.11
    19   1     0.05   0.11   0.04     0.14  -0.02  -0.00     0.12   0.03   0.02
    20   1    -0.22   0.05  -0.03     0.02  -0.01  -0.05    -0.08   0.01  -0.04
    21   1     0.15   0.07  -0.02    -0.05   0.04  -0.04     0.04   0.06  -0.03
    22   1    -0.16  -0.07  -0.15     0.03   0.07  -0.18    -0.07  -0.07  -0.18
    23   1    -0.18  -0.00  -0.06    -0.32   0.20   0.05     0.26  -0.20  -0.06
    24   1     0.39  -0.25  -0.02     0.05  -0.03   0.01     0.31  -0.21  -0.09
                     37                     38                     39
                      A                      A                      A
 Frequencies --   1295.3288              1313.9960              1329.4653
 Red. masses --      1.5640                 1.4627                 1.4472
 Frc consts  --      1.5461                 1.4880                 1.5071
 IR Inten    --      1.5951                 0.4365                 4.6526
  Atom  AN      X      Y      Z        X      Y      Z        X      Y      Z
     1   8     0.02  -0.01   0.01     0.01   0.00   0.01    -0.00   0.00   0.00
     2   6     0.01   0.00  -0.01    -0.00  -0.02  -0.03    -0.00  -0.02  -0.04
     3   6    -0.04   0.03  -0.02    -0.07  -0.02   0.00     0.03   0.00   0.04
     4   6    -0.04   0.00   0.04     0.08  -0.10  -0.05     0.02   0.01  -0.03
     5   6     0.04   0.02  -0.06    -0.00   0.02   0.02    -0.01  -0.04  -0.00
     6   6    -0.01  -0.00   0.04     0.00  -0.01   0.01     0.02   0.01   0.01
     7   6    -0.03  -0.09  -0.04    -0.01  -0.05   0.01     0.01  -0.03  -0.02
     8   6     0.01   0.02   0.03     0.01   0.02  -0.00    -0.01   0.02  -0.02
     9   6     0.08   0.01  -0.01    -0.02   0.07  -0.07    -0.13  -0.09   0.03
    10   6    -0.11   0.06   0.02    -0.00   0.01   0.02     0.00   0.06   0.02
    11   1     0.13  -0.17   0.18     0.24   0.24   0.04    -0.07   0.09  -0.06
    12   1     0.01  -0.02   0.08    -0.29   0.37   0.33     0.04  -0.05  -0.14
    13   1     0.16  -0.21  -0.20    -0.18   0.19   0.25    -0.14   0.16   0.16
    14   1    -0.22   0.14   0.12     0.21   0.11  -0.18    -0.13   0.23   0.03
    15   1     0.01  -0.08  -0.02    -0.00   0.01   0.01    -0.03   0.05  -0.06
    16   1     0.06  -0.06  -0.02     0.00   0.00   0.01     0.00  -0.04   0.03
    17   1    -0.01   0.08  -0.05    -0.00   0.02  -0.02    -0.05   0.02  -0.04
    18   1    -0.16   0.52   0.16     0.03   0.10   0.05     0.34   0.18  -0.00
    19   1     0.07  -0.07  -0.02    -0.05  -0.04  -0.02    -0.07  -0.02  -0.02
    20   1     0.06  -0.02  -0.05     0.05  -0.00   0.01     0.09  -0.02   0.01
    21   1    -0.10  -0.01  -0.01    -0.04  -0.04   0.02     0.00  -0.02   0.02
    22   1     0.12  -0.01   0.11     0.03  -0.07   0.50     0.60   0.36   0.00
    23   1     0.34  -0.21  -0.04     0.09   0.03   0.04    -0.09   0.03   0.01
    24   1     0.26  -0.17  -0.09    -0.04   0.04   0.03     0.29  -0.12   0.06
                     40                     41                     42
                      A                      A                      A
 Frequencies --   1331.6792              1359.7194              1380.7429
 Red. masses --      1.4487                 1.4771                 1.4633
 Frc consts  --      1.5137                 1.6090                 1.6436
 IR Inten    --      1.1041                 3.4238                 1.6036
  Atom  AN      X      Y      Z        X      Y      Z        X      Y      Z
     1   8    -0.02   0.01  -0.00     0.01  -0.01  -0.01     0.01  -0.01  -0.00
     2   6    -0.00  -0.00   0.00     0.01   0.04   0.05    -0.00   0.01   0.02
     3   6     0.03  -0.01   0.05    -0.06  -0.07  -0.07    -0.05   0.01  -0.07
     4   6     0.01  -0.03  -0.06    -0.01   0.04   0.01     0.00   0.02   0.04
     5   6     0.01  -0.05  -0.05    -0.06   0.03   0.06    -0.02  -0.12   0.04
     6   6     0.02   0.02   0.04     0.03  -0.01  -0.01     0.04   0.03   0.03
     7   6     0.04  -0.05  -0.06     0.00  -0.06  -0.01     0.05   0.06  -0.00
     8   6     0.00   0.01   0.05    -0.01   0.02  -0.02    -0.00  -0.02   0.02
     9   6     0.01   0.04   0.08     0.02  -0.00   0.09    -0.02  -0.02  -0.05
    10   6     0.06  -0.05  -0.03     0.01  -0.03  -0.03    -0.01   0.02   0.01
    11   1    -0.21   0.07  -0.13     0.24   0.20  -0.05     0.13  -0.11   0.09
    12   1    -0.09   0.13   0.09    -0.04   0.04  -0.07     0.02  -0.05  -0.10
    13   1    -0.07   0.16   0.03     0.14  -0.16  -0.19     0.08  -0.13  -0.04
    14   1    -0.24   0.40   0.04     0.47   0.07  -0.39     0.14   0.65  -0.29
    15   1    -0.04   0.01  -0.10    -0.02   0.08   0.02    -0.07   0.09  -0.13
    16   1     0.05  -0.10   0.03    -0.06   0.00   0.06     0.01  -0.04   0.06
    17   1    -0.08   0.08  -0.08    -0.02  -0.03  -0.01    -0.12   0.05  -0.09
    18   1    -0.39   0.32   0.12     0.25   0.39   0.10    -0.33  -0.33  -0.07
    19   1     0.09  -0.06  -0.00    -0.02  -0.05  -0.04     0.04   0.05   0.04
    20   1    -0.03   0.00  -0.10     0.08  -0.02   0.02    -0.07   0.01  -0.04
    21   1    -0.13   0.02  -0.06     0.03  -0.04   0.06    -0.02   0.07  -0.07
    22   1    -0.19   0.02  -0.25    -0.04   0.09  -0.33     0.10   0.01   0.10
    23   1    -0.23   0.15   0.02    -0.07   0.06  -0.01     0.08  -0.09  -0.02
    24   1    -0.23   0.12   0.04    -0.02  -0.01   0.03     0.06  -0.03  -0.04
                     43                     44                     45
                      A                      A                      A
 Frequencies --   1407.1657              1439.0828              1446.1542
 Red. masses --      1.4890                 1.2389                 1.2336
 Frc consts  --      1.7371                 1.5117                 1.5200
 IR Inten    --      2.3717                 3.2432                 2.5574
  Atom  AN      X      Y      Z        X      Y      Z        X      Y      Z
     1   8     0.00  -0.00  -0.00    -0.00   0.00   0.00     0.00   0.00  -0.00
     2   6    -0.00   0.00   0.01     0.00  -0.00  -0.00    -0.00  -0.00   0.00
     3   6    -0.00   0.01  -0.01    -0.00   0.01   0.00     0.01   0.00   0.00
     4   6    -0.00  -0.01  -0.00     0.00  -0.01   0.00    -0.00  -0.00   0.00
     5   6     0.05  -0.09   0.00     0.00  -0.01  -0.00    -0.00   0.02  -0.01
     6   6     0.00   0.03   0.02    -0.01   0.04  -0.01     0.03  -0.12   0.05
     7   6    -0.15   0.01   0.02     0.02  -0.00   0.00    -0.00   0.00   0.01
     8   6     0.03   0.01  -0.05    -0.14   0.01  -0.02    -0.04   0.00  -0.01
     9   6     0.07   0.03   0.02     0.00   0.01  -0.01     0.01   0.00  -0.00
    10   6    -0.00  -0.01  -0.01     0.00  -0.00   0.00    -0.00  -0.00  -0.00
    11   1    -0.06  -0.07   0.01    -0.01  -0.01   0.01    -0.03  -0.02  -0.00
    12   1    -0.05   0.06   0.06    -0.03   0.02  -0.02     0.01  -0.01  -0.00
    13   1     0.04   0.00  -0.06     0.00   0.04  -0.00    -0.00   0.02   0.00
    14   1    -0.22   0.45   0.08    -0.02   0.03  -0.00    -0.03  -0.05   0.02
    15   1    -0.02  -0.00  -0.08     0.10  -0.13   0.01    -0.34   0.41  -0.12
    16   1     0.06  -0.06  -0.01    -0.00  -0.15   0.02     0.02   0.53  -0.07
    17   1    -0.03   0.04  -0.02    -0.03  -0.10   0.10     0.01   0.38  -0.40
    18   1     0.71  -0.08  -0.13    -0.05  -0.01   0.01     0.01  -0.01   0.00
    19   1    -0.08   0.03  -0.01     0.53   0.05  -0.12     0.15   0.01  -0.04
    20   1     0.07   0.01   0.12     0.47  -0.27   0.10     0.12  -0.07   0.05
    21   1     0.08  -0.07   0.07     0.47   0.14   0.23     0.14   0.02   0.08
    22   1    -0.26  -0.16  -0.01    -0.02  -0.01   0.02    -0.03  -0.02   0.01
    23   1     0.02   0.03  -0.00    -0.00  -0.01  -0.00     0.01   0.01   0.00
    24   1    -0.06   0.02   0.03    -0.02   0.01  -0.02    -0.01   0.01   0.01
                     46                     47                     48
                      A                      A                      A
 Frequencies --   1481.9190              1524.8421              1526.4050
 Red. masses --      1.0903                 1.0485                 1.0515
 Frc consts  --      1.4108                 1.4363                 1.4435
 IR Inten    --      9.0444                 1.7186                 1.6806
  Atom  AN      X      Y      Z        X      Y      Z        X      Y      Z
     1   8    -0.00   0.00  -0.00     0.00  -0.00   0.00    -0.00   0.00   0.00
     2   6    -0.00  -0.00  -0.01    -0.00   0.00   0.00    -0.00  -0.00  -0.00
     3   6     0.00   0.00  -0.00     0.00  -0.00  -0.00    -0.00   0.00   0.00
     4   6    -0.01   0.01  -0.01    -0.00  -0.00   0.00     0.00  -0.02   0.03
     5   6     0.00  -0.00   0.00    -0.02   0.00   0.02    -0.00   0.01   0.00
     6   6     0.00   0.00  -0.00    -0.03   0.01   0.03    -0.00   0.00   0.00
     7   6     0.01   0.01  -0.00     0.01   0.01  -0.00     0.01  -0.00  -0.02
     8   6    -0.00  -0.01   0.00    -0.00   0.02   0.01     0.01  -0.00  -0.05
     9   6     0.00  -0.01  -0.01    -0.00  -0.00   0.00    -0.00  -0.01   0.00
    10   6    -0.04  -0.03  -0.06    -0.00  -0.00  -0.00    -0.00  -0.00  -0.00
    11   1    -0.01  -0.01   0.00     0.01   0.01  -0.01     0.00   0.00   0.01
    12   1     0.08  -0.04   0.07    -0.01  -0.00  -0.02    -0.16   0.04  -0.19
    13   1    -0.04  -0.09   0.05     0.01   0.02  -0.01     0.10   0.20  -0.12
    14   1    -0.00   0.00   0.00     0.03  -0.01  -0.02     0.01  -0.02   0.01
    15   1     0.01  -0.02  -0.00    -0.22   0.02  -0.42    -0.02  -0.03  -0.07
    16   1    -0.01   0.00   0.01     0.49  -0.01  -0.41     0.06   0.02  -0.05
    17   1    -0.02  -0.02  -0.00     0.25  -0.12   0.31     0.00  -0.04   0.04
    18   1    -0.04  -0.02  -0.01    -0.02  -0.02  -0.01    -0.08   0.01  -0.01
    19   1     0.01   0.02   0.01     0.02  -0.29  -0.11     0.33   0.26   0.01
    20   1     0.01  -0.01  -0.02    -0.11   0.05  -0.17    -0.15   0.14   0.62
    21   1     0.01   0.04  -0.02     0.09  -0.11   0.18    -0.32  -0.36   0.11
    22   1     0.01  -0.01  -0.00     0.01   0.00  -0.00     0.02   0.01  -0.00
    23   1     0.39   0.56   0.14     0.01   0.02   0.00     0.03   0.04   0.01
    24   1     0.09  -0.05   0.68     0.01  -0.00   0.02     0.01  -0.01   0.05
                     49                     50                     51
                      A                      A                      A
 Frequencies --   1528.2283              1529.1627              1538.4166
 Red. masses --      1.0464                 1.0493                 1.0905
 Frc consts  --      1.4399                 1.4456                 1.5206
 IR Inten    --      4.6318                 4.7012                 7.8881
  Atom  AN      X      Y      Z        X      Y      Z        X      Y      Z
     1   8    -0.00   0.00   0.00     0.00  -0.00   0.00    -0.00   0.00   0.00
     2   6     0.00   0.00  -0.00    -0.00   0.00   0.00     0.00  -0.01  -0.00
     3   6     0.00   0.00   0.00     0.00  -0.00  -0.00    -0.00   0.01   0.01
     4   6     0.00  -0.01   0.01    -0.00   0.00  -0.00     0.01  -0.05   0.06
     5   6    -0.01  -0.02  -0.01    -0.01   0.00   0.01     0.01   0.01  -0.00
     6   6    -0.03  -0.02  -0.03    -0.03  -0.01   0.00     0.00  -0.00   0.00
     7   6     0.01   0.01   0.00    -0.00  -0.02  -0.00    -0.00   0.00   0.01
     8   6    -0.00   0.01  -0.00    -0.00  -0.05   0.00     0.00  -0.01   0.02
     9   6    -0.00  -0.00  -0.00    -0.00   0.01   0.00     0.01  -0.01  -0.00
    10   6    -0.00  -0.00  -0.00     0.00  -0.00   0.00    -0.01  -0.00  -0.01
    11   1    -0.01  -0.02   0.01     0.01   0.01  -0.01    -0.00  -0.00   0.02
    12   1    -0.06   0.01  -0.08     0.02  -0.00   0.03    -0.41   0.11  -0.47
    13   1     0.04   0.07  -0.05    -0.02  -0.03   0.02     0.27   0.48  -0.31
    14   1    -0.02   0.06  -0.03     0.02   0.00  -0.02    -0.00  -0.04   0.02
    15   1    -0.02   0.37   0.47    -0.13   0.16  -0.03     0.01  -0.05  -0.03
    16   1    -0.03  -0.41   0.06     0.24  -0.15  -0.18    -0.02   0.06   0.01
    17   1     0.49   0.32   0.01     0.31   0.07   0.16    -0.06  -0.03  -0.02
    18   1    -0.03  -0.02  -0.00     0.02   0.04   0.02     0.01  -0.01   0.00
    19   1     0.06  -0.17  -0.08    -0.12   0.51   0.23    -0.19  -0.03   0.04
    20   1    -0.09   0.05  -0.04     0.26  -0.15   0.15     0.07  -0.06  -0.24
    21   1     0.04  -0.12   0.15    -0.10   0.32  -0.40     0.09   0.19  -0.12
    22   1     0.00  -0.00   0.01     0.00   0.02  -0.01     0.00  -0.02   0.01
    23   1     0.02   0.03   0.01    -0.01  -0.01  -0.00     0.05   0.06   0.02
    24   1     0.01  -0.01   0.04    -0.01   0.00  -0.01     0.01  -0.01   0.08
                     52                     53                     54
                      A                      A                      A
 Frequencies --   1846.2901              3023.2098              3032.0087
 Red. masses --     12.2422                 1.0833                 1.0843
 Frc consts  --     24.5873                 5.8338                 5.8728
 IR Inten    --    227.6366                 6.1192                25.5665
  Atom  AN      X      Y      Z        X      Y      Z        X      Y      Z
     1   8    -0.47   0.22  -0.09    -0.00  -0.00  -0.00     0.00  -0.00   0.00
     2   6     0.72  -0.33   0.13     0.00   0.00   0.00     0.00   0.00  -0.00
     3   6    -0.04   0.02  -0.01    -0.00   0.00   0.00    -0.00   0.00   0.00
     4   6    -0.02   0.01  -0.01     0.00  -0.00   0.00     0.00   0.00   0.00
     5   6    -0.01  -0.01   0.01    -0.05  -0.01  -0.06    -0.02  -0.01  -0.03
     6   6     0.00  -0.00   0.00     0.00   0.01   0.00     0.00  -0.00   0.01
     7   6     0.00   0.00  -0.00     0.00  -0.01   0.03    -0.01   0.02  -0.07
     8   6     0.00   0.00  -0.00     0.01   0.00  -0.00     0.00  -0.00   0.01
     9   6    -0.02   0.01   0.00     0.00  -0.00  -0.00    -0.00   0.00  -0.00
    10   6    -0.04   0.02  -0.01    -0.00  -0.00  -0.00    -0.00  -0.00   0.00
    11   1     0.18  -0.02   0.09     0.01  -0.02  -0.03     0.00  -0.01  -0.01
    12   1     0.03  -0.02   0.01     0.01   0.01  -0.00    -0.01  -0.01   0.00
    13   1    -0.02  -0.02  -0.01    -0.03  -0.00  -0.02    -0.00  -0.00  -0.00
    14   1     0.03   0.04  -0.05     0.55   0.17   0.67     0.25   0.08   0.31
    15   1    -0.03   0.03  -0.04    -0.07  -0.04   0.03     0.04   0.02  -0.02
    16   1     0.04   0.01  -0.03    -0.02  -0.00  -0.02    -0.06  -0.02  -0.08
    17   1     0.01   0.00   0.01     0.03  -0.04  -0.05    -0.00   0.01   0.01
    18   1     0.00  -0.01  -0.00    -0.06   0.12  -0.40     0.11  -0.25   0.84
    19   1    -0.00   0.00  -0.00    -0.00   0.01  -0.04    -0.03   0.06  -0.16
    20   1     0.01  -0.00   0.00    -0.04  -0.08   0.01    -0.01  -0.02   0.01
    21   1     0.00   0.00   0.00    -0.02   0.04   0.04     0.00  -0.01  -0.00
    22   1    -0.03   0.02   0.00    -0.01   0.01   0.00     0.01  -0.01  -0.00
    23   1     0.08  -0.09  -0.03    -0.00  -0.01   0.02     0.01   0.02  -0.05
    24   1     0.05  -0.04  -0.04     0.00   0.01  -0.00    -0.00  -0.01   0.00
                     55                     56                     57
                      A                      A                      A
 Frequencies --   3039.3572              3046.3794              3051.8343
 Red. masses --      1.0366                 1.0364                 1.0637
 Frc consts  --      5.6417                 5.6671                 5.8371
 IR Inten    --     32.5259                28.0216                14.7837
  Atom  AN      X      Y      Z        X      Y      Z        X      Y      Z
     1   8    -0.00   0.00   0.00    -0.00   0.00  -0.00     0.00   0.00  -0.00
     2   6     0.00   0.00  -0.00     0.00  -0.00   0.00    -0.00  -0.00   0.00
     3   6    -0.00   0.00   0.00    -0.00   0.00   0.00     0.00  -0.00  -0.00
     4   6     0.00  -0.00   0.00    -0.00  -0.00   0.00     0.00   0.01  -0.01
     5   6    -0.01  -0.00  -0.01    -0.00   0.00  -0.00     0.00  -0.00   0.00
     6   6     0.00   0.00   0.00     0.01  -0.05   0.02    -0.00   0.00  -0.00
     7   6     0.00   0.00  -0.01     0.00  -0.00   0.01    -0.00   0.00  -0.00
     8   6    -0.05   0.00  -0.01    -0.00   0.00  -0.00     0.00  -0.00   0.00
[...]
 059107,0.00064191,0.00069108,0.00040673,-0.00072394,0.00009608,-0.0000
 9203,-0.00019745,-0.01522824,-0.01719626,0.00082585,-0.15451821,-0.128
 40034,0.00577142,0.00087236,-0.00181878,0.00021608,-0.00005536,0.00011
 436,-0.00035247,0.00000472,0.00012403,-0.00010921,-0.00015593,0.000086
 02,0.00004546,0.00002340,0.00004442,0.00002959,0.00002508,0.00011790,0
 .00003013,0.00013269,0.00002691,-0.00009519,-0.00225528,0.00098248,0.0
 0379343,-0.00988861,-0.01176460,0.00088417,0.16679779,0.00096089,-0.00
 041049,-0.00112063,-0.00149562,-0.00001543,-0.00028796,-0.00021526,0.0
 0022229,0.00033912,0.00008831,0.00017006,0.00010232,0.00332073,0.00346
 943,0.00061194,-0.12828428,-0.20785301,0.00719531,0.00034823,0.0011240
 8,0.00016091,0.00019839,0.00012376,-0.00011589,-0.00010143,0.00008948,
 0.00001477,0.00004106,0.00005811,-0.00012015,-0.00002527,-0.00001079,-
 0.00003111,-0.00006745,0.00001641,0.00005138,0.00005569,-0.00004878,-0
 .00002862,0.00095021,0.00116837,-0.00074730,0.00038597,-0.00092016,-0.
 00036679,0.14196875,0.22326493,-0.00150859,-0.00024384,0.00039489,0.00
 199713,-0.00022805,-0.00202398,-0.00046295,0.00068836,0.00123211,0.000
 10613,-0.00021020,0.00010606,0.01704683,0.02115158,-0.00086421,0.00487
 242,0.00569922,-0.04971082,-0.00113554,0.00071426,0.00041490,-0.000076
 93,-0.00008722,-0.00006300,0.00008749,0.00016774,0.00002903,0.00004422
 ,-0.00007673,-0.00001875,-0.00001283,-0.00002766,-0.00004017,-0.000111
 70,-0.00006083,-0.00004297,-0.00025254,-0.00002995,0.00006299,0.003873
 91,-0.00079011,-0.00376233,-0.01787071,-0.02390503,0.00222900,-0.00912
 568,-0.00600921,0.05253784,0.00014454,0.00007819,-0.00010703,-0.000144
 76,-0.00001719,0.00040737,0.00080488,-0.00018083,-0.00055543,-0.000142
 07,-0.00002513,-0.00017525,-0.01247401,0.01886208,-0.00361195,-0.12419
 795,0.11651804,-0.01821926,-0.00097675,-0.00106811,0.00405304,0.000169
 82,0.00050925,0.00006742,-0.00096177,0.00069287,-0.00034022,-0.0001538
 1,-0.00016426,0.00004461,0.00025379,-0.00007156,0.00054260,0.00005870,
 -0.00008307,0.00004247,-0.00003842,0.00001134,-0.00003467,0.00034506,-
 0.00032403,-0.00068526,-0.00874449,0.01307778,-0.00167747,0.01299047,-
 0.01797539,0.00289236,0.13286091,-0.00049865,0.00038305,0.00004436,0.0
 0058215,-0.00047378,0.00019276,0.00002265,-0.00005934,0.00027505,0.000
 06706,-0.00000139,-0.00025260,0.00053823,-0.00214473,0.00015521,0.1166
 8421,-0.23354342,0.02803266,0.00026172,0.00100273,0.00009196,0.0000903
 0,-0.00023015,-0.00034714,0.00016402,0.00023945,0.00014578,-0.00011190
 ,0.00011285,-0.00003127,-0.00009953,0.00008702,-0.00049983,-0.00001530
 ,0.00001160,-0.00005291,-0.00002861,0.00000416,0.00002756,0.00018773,0
 .00076464,-0.00039100,-0.00241273,0.00291377,0.00019426,0.01428619,-0.
 02066876,0.00374747,-0.12982277,0.25079265,-0.00023022,0.00021625,0.00
 009076,0.00018087,-0.00031925,-0.00000692,-0.00022445,-0.00046315,0.00
 124695,0.00020110,0.00010324,0.00038187,0.01404129,-0.02336890,0.00342
 602,-0.01856905,0.02854402,-0.05369265,0.00268838,0.00121849,-0.003445
 40,0.00014134,-0.00080763,-0.00028966,0.00071577,-0.00078428,0.0002360
 1,0.00006069,0.00015226,-0.00004903,-0.00016087,0.00028098,-0.00032802
 ,-0.00009682,0.00008774,0.00000247,-0.00001210,-0.00000538,0.00003267,
 -0.00075852,0.00043723,0.00090833,-0.01480823,0.02562326,-0.00289765,-
 0.00042911,0.00012798,-0.00095036,0.01714304,-0.03094944,0.05547566,-0
 .00008689,-0.00017425,0.00007286,0.00019831,0.00038124,-0.00029921,-0.
 00055428,0.00097949,-0.00047002,-0.00050087,0.00053876,-0.00093966,0.0
 0606826,0.01227811,-0.01095731,0.00133557,0.00080210,-0.00037147,-0.08
 602329,-0.06163573,0.06678367,-0.01638429,-0.02136202,0.02184110,0.000
 01802,-0.00010887,-0.00121021,0.00039609,0.00014648,-0.00227539,-0.000
 25442,-0.00016003,-0.00041829,0.00014258,0.00018879,-0.00019761,-0.000
 01098,0.00013380,-0.00009180,-0.00116836,0.00198755,-0.00057583,0.0000
 5804,-0.00014260,0.00004198,-0.00015153,-0.00025647,-0.00014048,0.0001
 4453,-0.00007101,-0.00016145,0.10010647,0.00034674,0.00025858,-0.00018
 113,-0.00057987,-0.00076858,0.00048849,0.00064808,-0.00130088,0.000344
 36,-0.00011322,-0.00111395,-0.00267912,-0.00954517,-0.01855374,0.01533
 101,-0.00153014,0.00152933,0.00103564,-0.06095818,-0.14834056,0.107231
 08,-0.00345660,-0.00409003,0.00471710,0.00441705,0.00892360,-0.0105474
 6,0.00037773,0.00128371,-0.00095938,0.00026893,0.00019880,0.00062708,-
 0.00018696,0.00081797,-0.00029157,0.00013861,-0.00000590,-0.00010602,0
 .00256552,-0.00316803,0.00101643,-0.00004111,-0.00036704,-0.00057880,0
 .00102678,0.00030000,-0.00036558,-0.00015139,0.00056648,-0.00006953,0.
 06715786,0.16192183,-0.00030373,-0.00032311,0.00006097,-0.00001573,0.0
 0127653,-0.00021153,0.00034002,-0.00029645,-0.00044116,-0.00056697,-0.
 00344815,-0.00535001,0.00034986,-0.00083339,-0.00003392,0.00063593,-0.
 00090398,0.00052909,0.06523531,0.10704397,-0.16148658,-0.00467298,-0.0
 0600329,0.00693791,0.00825654,0.01779405,-0.02161312,0.00207328,0.0015
 4702,0.00087268,-0.00020749,0.00001952,-0.00001878,-0.00045059,0.00171
 003,-0.00094919,0.00012477,-0.00009645,0.00024791,-0.00004760,-0.00082
 198,0.00000428,-0.00022231,0.00005103,0.00028844,-0.00051808,0.0000805
 4,0.00027978,-0.00008925,-0.00026938,0.00003620,-0.06832012,-0.1140869
 5,0.17885107,0.00015651,0.00015175,-0.00004222,0.00006533,-0.00045030,
 0.00012933,0.00015254,0.00036391,0.00006239,-0.00072486,-0.00056940,-0
 .00019605,0.00131788,-0.00219423,0.00057729,0.00004569,0.00025310,0.00
 010598,-0.01562987,-0.01889576,0.02266692,-0.10053639,-0.06597646,0.07
 877000,0.00134311,0.00037015,0.00097832,0.00002383,0.00003348,0.000022
 82,0.00001877,0.00000238,-0.00007553,0.00035404,0.00028600,-0.00005711
 ,0.00012752,0.00066192,-0.00072182,0.00014549,0.00116620,-0.00002549,0
 .00002467,-0.00007048,-0.00007813,0.00022868,0.00009027,-0.00011403,-0
 .00001120,0.00011351,0.00001331,-0.00604395,-0.00112554,-0.00235232,0.
 11025269,0.00004598,0.00002833,0.00000766,0.00019781,-0.00008864,-0.00
 002646,-0.00001516,0.00035532,0.00005847,-0.00021980,-0.00016147,-0.00
 004837,0.00061158,0.00036147,-0.00078430,0.00015635,0.00012812,-0.0001
 5947,-0.00360099,-0.00533745,0.00443073,-0.06644387,-0.13710794,0.1024
 0821,-0.00003636,0.00026259,0.00094059,0.00001644,-0.00019028,-0.00009
 421,-0.00000838,-0.00002028,-0.00010753,0.00007999,0.00009782,-0.00006
 719,0.00024336,0.00053254,0.00000554,0.00004652,0.00029941,-0.00014058
 ,-0.00000676,-0.00001355,0.00005434,0.00012377,-0.00010202,0.00000463,
 -0.00000737,0.00004185,0.00003545,-0.00153914,0.00085106,-0.00082177,0
 .07527175,0.14537084,0.00006283,-0.00008790,0.00001787,-0.00015028,0.0
 0019149,-0.00006242,-0.00018619,-0.00029621,-0.00002196,-0.00034800,0.
 00025530,0.00000151,0.00046919,0.00005761,0.00031693,-0.00013170,-0.00
 023280,-0.00012593,-0.00447408,-0.00574429,0.00720297,0.07939581,0.102
 45264,-0.16985782,0.00043970,-0.00026205,0.00045183,0.00000363,-0.0000
 3202,0.00019882,0.00003998,-0.00000611,0.00003751,0.00010788,-0.000107
 84,0.00007760,-0.00061574,-0.00003858,-0.00050629,0.00028372,-0.000436
 72,0.00000975,-0.00003004,0.00007076,0.00011033,-0.00003082,0.00004116
 ,0.00008994,0.00007619,0.00001084,0.00002571,-0.00230425,-0.00076420,0
 .00052212,-0.08571069,-0.11379252,0.18262774,-0.00017726,0.00028253,0.
 00002747,0.00037454,-0.00077314,0.00005918,0.00046169,0.00008174,0.000
 14283,0.00001180,-0.00051806,0.00012886,0.00145992,-0.00060562,-0.0000
 6708,-0.00010810,-0.00012374,-0.00029104,-0.00056339,-0.01523612,-0.03
 068451,-0.04834402,-0.00047495,-0.00181910,-0.00643403,-0.00075185,0.0
 0064120,0.00021155,-0.00038730,-0.00195998,-0.00002446,0.00006109,0.00
 006046,-0.00002629,0.00019100,-0.00010274,0.00002795,0.00021460,-0.000
 06342,0.00031557,0.00054765,0.00015609,-0.00017393,0.00010719,0.000397
 30,0.00008270,-0.00000423,0.00003503,0.00009197,0.00000658,0.00012267,
 0.00134787,0.00017639,0.00073904,-0.00031680,0.00821712,0.01258417,0.0
 5229474,-0.00018766,0.00007349,0.00005648,0.00013305,-0.00014417,-0.00
 008521,-0.00008589,0.00005801,-0.00008270,-0.00016571,-0.00019898,-0.0
 0001139,0.00022524,0.00039176,0.00062897,-0.00008311,0.00016416,-0.000
 18079,0.00019375,-0.00378341,-0.00576820,-0.00076109,-0.10939491,-0.10
 952316,-0.00129737,0.00026204,0.00058952,0.00009012,0.00024328,-0.0004
 0476,-0.00001447,0.00003165,-0.00000119,-0.00001175,0.00010549,-0.0000
 7542,0.00001357,0.00018984,-0.00015606,-0.00014495,0.00009673,0.000106
 33,-0.00003722,0.00009226,0.00011040,-0.00002251,-0.00003223,0.0000324
 3,-0.00004688,0.00000034,0.00009967,0.00013016,-0.00013255,0.00004032,
 0.00093241,0.01039283,0.01813497,0.00218336,0.11440402,-0.00024685,0.0
 0018851,-0.00000441,0.00018727,-0.00047362,0.00015866,0.00021892,0.000
 24492,-0.00001233,0.00021819,-0.00011980,0.00029216,0.00037865,-0.0006
 7048,0.00040010,-0.00019253,0.00029924,-0.00010760,-0.00023523,-0.0029
 7711,-0.00750929,-0.00189091,-0.10928838,-0.25026969,-0.00205832,-0.00
 053389,0.00148615,0.00022922,0.00010006,-0.00075561,-0.00005985,0.0000
 4863,0.00001847,-0.00007492,-0.00001626,-0.00000732,-0.00000762,-0.000
 16565,0.00012230,-0.00004646,0.00067308,-0.00022335,-0.00016040,0.0000
 0465,0.00024658,0.00010963,0.00000996,0.00003235,-0.00006973,0.0000164
 5,0.00006318,-0.00035766,-0.00002592,0.00065592,-0.00021563,-0.0110812
 8,-0.01929650,0.00368249,0.12149871,0.27040486,-0.00010844,-0.00027923
 ,0.00002712,0.00035994,0.00079346,0.00000601,-0.00103896,0.00102527,0.
 00029948,0.00002148,-0.00008149,0.00018479,-0.00458032,-0.00333470,-0.
 00198080,-0.00023451,0.00065332,-0.00066895,-0.01686995,0.02747914,-0.
 00285693,-0.12115274,0.11561885,-0.01271863,0.00076208,0.00079358,0.00
 120677,0.00012816,-0.00029004,0.00016393,-0.00016336,-0.00010844,-0.00
 053902,0.00009566,-0.00002028,-0.00004525,0.00009036,0.00004833,-0.000
 01246,0.00015146,-0.00025606,0.00002648,0.00008124,-0.00003038,0.00009
 540,-0.00004173,-0.00004020,-0.00000263,-0.00022166,0.00010581,0.00030
 955,0.00114592,-0.00011857,0.00069534,0.00873343,-0.01321600,0.0002426
 1,0.00000252,-0.00086486,0.00079970,0.13244540,0.00011995,0.00010405,-
 0.00002802,-0.00014812,-0.00025333,0.00013397,0.00006440,0.00067820,-0
 .00023001,-0.00028362,-0.00010722,0.00015709,-0.00149405,-0.00019799,-
 0.00070471,0.00003581,0.00023023,0.00009202,-0.00510798,0.00721062,-0.
 00096451,0.11627936,-0.23651986,0.02139073,0.00022606,0.00032841,0.000
 06383,-0.00006999,0.00027064,0.00020130,-0.00009259,0.00000232,-0.0001
 1489,0.00010254,0.00007114,0.00001845,0.00013689,0.00008696,-0.0000912
 7,0.00010101,0.00064075,-0.00008161,-0.00006219,-0.00002114,0.00005980
 ,0.00008434,0.00000748,-0.00004906,-0.00001486,0.00000381,0.00002863,0
 .00069286,0.00081014,0.00001698,0.00948973,-0.01548903,0.00051595,0.00
 719776,-0.01294255,0.00212356,-0.12733978,0.25488920,0.00002774,-0.000
 09649,-0.00001166,0.00011350,0.00022171,0.00003511,-0.00007352,0.00012
 499,0.00006283,0.00023773,0.00027531,-0.00032145,-0.00141954,-0.000437
 09,0.00072881,-0.00042761,0.00021518,-0.00034759,-0.00413717,0.0075614
 1,-0.00193777,-0.01252257,0.02127419,-0.05261630,-0.00025383,0.0011996
 9,0.00071399,0.00006216,-0.00022176,0.00008961,-0.00005269,-0.00001378
 ,-0.00008313,-0.00013706,-0.00006104,-0.00001624,-0.00015482,-0.000210
 65,0.00007446,-0.00006334,-0.00024145,-0.00003409,-0.00009519,-0.00001
 040,0.00009877,-0.00001814,0.00001024,0.00009064,-0.00010551,0.0000301
 4,0.00011233,0.00042496,-0.00039883,0.00032195,-0.01315702,0.01940207,
 -0.00181831,0.01618114,-0.02532867,0.00414745,0.01540855,-0.02294121,0
 .05104121,-0.00202804,0.00243467,0.00007064,-0.00334819,-0.00554158,-0
 .00028071,0.00096282,0.00000705,-0.00004108,0.00045344,-0.00090458,-0.
 00052212,0.00057860,-0.00080236,-0.00129971,0.00008119,-0.00030223,0.0
 0011481,0.00306870,-0.00320201,-0.00125557,0.00060313,-0.00029894,-0.0
 0033872,-0.20049988,0.12298434,0.04910848,-0.01770023,0.01795174,0.005
 31205,0.00020111,-0.00006833,0.00011144,-0.00007941,0.00028354,-0.0002
 4569,0.00033820,0.00038840,-0.00038681,0.00008466,-0.00001219,0.000170
 41,-0.00000093,0.00003382,0.00006845,0.00003022,0.00004430,-0.00005558
 ,0.00009993,-0.00000380,-0.00007187,-0.00005313,0.00015867,0.00024061,
 0.00010951,0.00001442,0.00017782,0.00014407,-0.00005452,0.00009371,0.0
 0040966,0.00000789,0.00013077,0.21531159,-0.00125119,0.00206099,0.0000
 9188,-0.00289276,-0.00418649,-0.00029230,0.00080798,-0.00436158,0.0025
 7705,0.01665863,-0.01097245,-0.00866371,0.00072595,-0.00040635,-0.0012
 1546,0.00010287,-0.00069397,0.00016177,0.00683453,-0.00623335,-0.00095
 690,0.00061768,0.00048464,0.00055750,0.12242169,-0.14820705,-0.0388109
 7,-0.01280548,0.01247916,0.00362461,0.00126223,0.00001365,-0.00087544,
 -0.00014030,0.00066920,0.00035251,-0.00051314,0.00049394,-0.00052375,0
 .00008500,-0.00028486,-0.00006856,0.00001074,0.00001824,-0.00008572,0.
 00002753,0.00006584,-0.00003500,0.00012514,0.00003797,-0.00022102,-0.0
 0000450,-0.00008761,-0.00034044,-0.00015453,-0.00031043,0.00000087,-0.
 00017555,0.00018891,0.00021245,-0.00050836,0.00021054,-0.00037249,-0.1
 3287716,0.15843727,-0.00020306,-0.00003419,0.00006100,-0.00149739,0.00
 092056,0.00025027,-0.00077238,0.00373953,-0.00301179,-0.01620578,0.009
 93444,0.00661582,-0.00075992,-0.00102209,-0.00484111,0.00047607,-0.001
 22817,0.00054289,0.02096624,-0.01757062,-0.00413193,0.00118374,0.00026
 506,0.00200589,0.04957456,-0.04028545,-0.06579194,-0.00151748,0.001579
 72,0.00012195,-0.00091421,0.00027882,0.00112034,0.00007333,-0.00087569
 ,0.00031273,0.00060851,-0.00072288,0.00048942,0.00043159,-0.00081789,0
 .00000664,-0.00006948,0.00003057,0.00009088,-0.00004377,0.00006024,-0.
 00001241,0.00043395,-0.00010932,-0.00036470,0.00011346,0.00030974,-0.0
 0052606,-0.00037500,-0.00009320,0.00004690,0.00011744,0.00039244,0.000
 17200,-0.00068603,0.00037087,-0.00033361,-0.05107927,0.04447285,0.0667
 7400,-0.00056786,-0.00104876,0.00281093,0.00677453,0.00962726,-0.01889
 965,-0.00098874,0.00215736,0.00219816,-0.00677578,-0.00273410,-0.00089
 520,0.00068936,0.00077619,-0.00027667,0.00008433,0.00000295,-0.0001004
 0,0.00120209,0.00081823,0.00242456,0.00001897,0.00028872,0.00006378,-0
 .00261935,-0.01778946,0.02151943,-0.06356477,-0.03813448,0.04349841,0.
 00036082,0.00032711,0.00005925,-0.00009239,0.00024472,-0.00004875,0.00
 054925,-0.00186098,0.00099469,0.00008118,0.00005121,0.00031908,0.00001
 197,-0.00002768,-0.00000606,-0.00003633,-0.00000073,0.00001089,-0.0000
 0481,-0.00003386,-0.00001250,0.00039710,0.00022740,-0.00114495,0.00017
 773,0.00010967,0.00001663,0.00006149,0.00000436,-0.00003071,-0.0000521
 9,-0.00001189,0.00000030,-0.00016293,0.00041700,0.00012016,0.06347435,
 -0.00041502,0.00258253,-0.00240993,-0.00751090,-0.01616210,0.01873992,
 0.00085147,-0.00282119,-0.00129615,-0.00155420,-0.00127444,-0.00067885
 ,-0.00026685,-0.00081416,0.00041910,-0.00038605,-0.00020903,-0.0000039
 5,0.00012083,-0.00012642,0.00158701,0.00006647,0.00029059,-0.00035876,
 -0.00033820,-0.00597379,0.00545941,-0.03960694,-0.14779923,0.12723835,
 -0.00039562,-0.00067580,-0.00027974,0.00014932,0.00012365,0.00018847,0
 .00035424,-0.00041529,0.00051899,-0.00008137,0.00018664,-0.00034292,0.
 00006727,0.00004606,-0.00007239,0.00028286,0.00000774,-0.00011044,0.00
 006029,0.00014337,0.00001593,-0.00008426,0.00020717,-0.00117021,0.0002
 1931,0.00009584,0.00002217,-0.00001229,-0.00001836,-0.00000142,-0.0000
 1010,-0.00001354,0.00001183,-0.00021939,0.00003714,-0.00007972,0.04484
 202,0.16097861,-0.00109800,0.00008995,0.00068788,0.00076974,-0.0027848
 5,0.00067905,-0.00005313,-0.00082102,-0.00077294,-0.00001865,-0.000691
 18,0.00029378,0.00013659,-0.00008700,0.00008042,-0.00003416,-0.0000668
 1,0.00001198,-0.00088349,-0.00107654,0.00107792,0.00002310,-0.00003931
 ,0.00020793,-0.00055984,-0.00306740,0.00206960,0.04627817,0.12538868,-
 0.19411513,-0.00000418,-0.00003178,-0.00003463,-0.00004227,-0.00026676
 ,0.00037033,-0.00018168,-0.00011740,0.00039788,-0.00001590,-0.00002031
 ,0.00010529,0.00000646,0.00002496,0.00000459,-0.00001369,0.00001410,-0
 .00000937,-0.00002964,0.00000025,-0.00000384,-0.00008093,0.00010342,0.
 00037251,-0.00004458,-0.00005784,-0.00003265,0.00005190,-0.00001182,0.
 00002148,0.00004052,-0.00000614,0.00000318,0.00036557,0.00027058,-0.00
 004464,-0.05078211,-0.13480999,0.20940856,-0.00088234,-0.00045130,-0.0
 0363002,0.00290819,0.00845427,0.02191795,-0.00088055,0.00158237,-0.001
 97470,0.00105546,0.00180872,-0.00083142,-0.00105314,0.00013136,-0.0003
 9528,0.00005283,-0.00021774,0.00018699,-0.00601508,-0.00274203,0.00095
 316,0.00061452,-0.00110886,-0.00177057,-0.00191757,-0.01640915,-0.0280
 2315,-0.04698258,-0.01272062,-0.01782384,0.00051154,0.00037580,-0.0001
 4642,0.00031092,-0.00021431,0.00050880,0.00014710,0.00025500,0.0000895
 7,-0.00002303,0.00002524,-0.00002808,-0.00002134,0.00004416,0.00008047
 ,0.00005511,0.00001355,-0.00009620,0.00010711,-0.00001199,-0.00008279,
 -0.00012677,0.00029702,0.00022141,-0.00001436,-0.00004093,0.00008161,-
 0.00072009,-0.00012802,-0.00027097,0.00003654,0.00008648,0.00003119,0.
 00139592,0.00122598,0.00002474,0.00098199,0.00386711,0.00617021,0.0504
 5963,0.00021389,0.00180142,0.00259563,-0.00408883,-0.01447479,-0.02329
 448,0.00282801,-0.00234276,0.00393706,-0.00048385,0.00019476,-0.001391
 90,0.00059040,0.00154809,0.00036757,-0.00001042,-0.00001062,-0.0000341
 9,-0.00178022,0.00012750,0.00093536,0.00033385,-0.00009582,-0.00062818
 ,-0.00054864,-0.00533400,-0.00794768,-0.01369560,-0.10839117,-0.115879
 95,-0.00074928,-0.00078065,0.00014446,-0.00020391,-0.00040316,0.000741
 77,-0.00001425,0.00024147,0.00032505,0.00005254,0.00002539,0.00027872,
 -0.00001779,-0.00001584,-0.00000354,0.00002334,-0.00002631,0.00002324,
 0.00001783,0.00001583,0.00001744,0.00012167,0.00026020,-0.00016444,0.0
 0003085,0.00000307,0.00004746,-0.00020414,-0.00004766,-0.00006643,-0.0
 0001928,0.00000018,0.00000711,-0.00002176,0.00054666,0.00048436,0.0017
 4773,0.01160401,0.01806422,0.01587789,0.11555418,0.00009455,-0.0001608
 3,0.00099726,0.00032511,0.00065430,0.00042910,0.00000659,-0.00016118,-
 0.00093966,0.00073481,0.00044560,0.00033092,-0.00005962,0.00018627,-0.
 00005076,0.00006776,0.00002282,0.00002181,-0.00154609,0.00034264,0.000
 11339,0.00036454,-0.00045196,0.00001903,-0.00017300,0.00014511,-0.0021
 2481,-0.02214048,-0.10952085,-0.24015035,0.00001303,0.00002140,-0.0000
 1692,0.00017350,-0.00001028,0.00041684,0.00001114,-0.00010068,0.000288
 56,0.00002232,-0.00011733,0.00000573,0.00000072,0.00001030,0.00000062,
 -0.00007093,0.00000766,-0.00000114,-0.00000239,-0.00006186,-0.00000993
 ,-0.00010633,-0.00014987,0.00064952,-0.00016075,-0.00007294,-0.0000157
 0,-0.00013941,-0.00006088,-0.00003556,0.00000445,0.00003825,-0.0000002
 0,-0.00038764,0.00013967,0.00044748,-0.00183925,-0.01258672,-0.0207791
 7,0.02480733,0.12144134,0.26040394\\-0.00000125,-0.00003345,0.00003839
 ,0.00000814,0.00003546,-0.00002613,-0.00000177,-0.00002370,-0.00000482
 ,0.00001076,-0.00002781,-0.00001320,0.00002426,-0.00000555,0.00003050,
 0.00001822,0.00000162,-0.00000971,0.00000877,0.00002060,-0.00000695,-0
 .00000944,-0.00001409,0.00001467,0.00005200,0.00002345,0.00000891,-0.0
 0004414,-0.00001263,0.00001216,-0.00001262,0.00000265,0.00001022,-0.00
 000024,0.00001012,-0.00001081,-0.00001432,0.00000602,-0.00001673,0.000
 01177,0.00001052,-0.00000052,-0.00000361,0.00000100,-0.00000051,-0.000
 01221,-0.00001157,-0.00001227,-0.00000070,0.00000689,-0.00000647,-0.00
 001700,-0.00001363,-0.00000038,0.00000184,0.00001538,0.00000368,-0.000
 00312,0.00000442,0.00000894,-0.00000452,-0.00000278,-0.00000074,-0.000
 00872,0.00000030,0.00001557,-0.00000654,-0.00000419,-0.00002285,0.0000
 0444,0.00001097,-0.00001094\\\@


 IF I HAVE SEEN FARTHER, IT IS BY STANDING ON THE
 SHOULDERS OF GIANTS. -- SIR ISAAC NEWTON
 Job cpu time:       0 days  0 hours  2 minutes  0.7 seconds.
 Elapsed time:       0 days  0 hours  2 minutes  3.2 seconds.
 File lengths (MBytes):  RWF=     95 Int=      0 D2E=      0 Chk=      5 Scr=      1
 Normal termination of Gaussian 16 at Wed Feb 21 19:15:49 2024.
