 Entering Gaussian System, Link 0=g16
 Input=/Volumes/SSD-PMU3/b3lyp_6-31gd_freq/QINYKZKJEXZXCY-ZVHHJAQSSA-N_calculating/gaussianinput1.gjf
 Output=/Volumes/SSD-PMU3/b3lyp_6-31gd_freq/QINYKZKJEXZXCY-ZVHHJAQSSA-N_calculating/gaussianinput1.log
 Initial command:
 /Applications/g16/l1.exe "/Users/macmini_m1_2022/PycharmProjects/sphere_model/sphere_model_lib/Gau-67010.inp" -scrdir="/Users/macmini_m1_2022/PycharmProjects/sphere_model/sphere_model_lib/"
 Entering Link 1 = /Applications/g16/l1.exe PID=     67011.
  
 Copyright (c) 1988,1990,1992,1993,1995,1998,2003,2009,2016,
            Gaussian, Inc.  All Rights Reserved.
  
 This is part of the Gaussian(R) 16 program.  It is based on
 the Gaussian(R) 09 system (copyright 2009, Gaussian, Inc.),
 the Gaussian(R) 03 system (copyright 2003, Gaussian, Inc.),
 the Gaussian(R) 98 system (copyright 1998, Gaussian, Inc.),
 the Gaussian(R) 94 system (copyright 1995, Gaussian, Inc.),
 the Gaussian 92(TM) system (copyright 1992, Gaussian, Inc.),
 the Gaussian 90(TM) system (copyright 1990, Gaussian, Inc.),
 the Gaussian 88(TM) system (copyright 1988, Gaussian, Inc.),
 the Gaussian 86(TM) system (copyright 1986, Carnegie Mellon
 University), and the Gaussian 82(TM) system (copyright 1983,
 Carnegie Mellon University). Gaussian is a federally registered
 trademark of Gaussian, Inc.
  
 This software contains proprietary and confidential information,
 including trade secrets, belonging to Gaussian, Inc.
  
 This software is provided under written license and may be
 used, copied, transmitted, or stored only in accord with that
 written license.
  
 The following legend is applicable only to US Government
 contracts under FAR:
  
                    RESTRICTED RIGHTS LEGEND
  
 Use, reproduction and disclosure by the US Government is
 subject to restrictions as set forth in subparagraphs (a)
 and (c) of the Commercial Computer Software - Restricted
 Rights clause in FAR 52.227-19.
  
 Gaussian, Inc.
 340 Quinnipiac St., Bldg. 40, Wallingford CT 06492
  
  
 ---------------------------------------------------------------
 Warning -- This program may not be used in any manner that
 competes with the business of Gaussian, Inc. or will provide
 assistance to any competitor of Gaussian, Inc.  The licensee
 of this program is prohibited from giving any competitor of
 Gaussian, Inc. access to this program.  By using this program,
 the user acknowledges that Gaussian, Inc. is engaged in the
 business of creating and licensing software in the field of
 computational chemistry and represents and warrants to the
 licensee that it is not a competitor of Gaussian, Inc. and that
 it will not use this program in any manner prohibited above.
 ---------------------------------------------------------------
  

 Cite this work as:
 Gaussian 16, Revision A.03,
 M. J. Frisch, G. W. Trucks, H. B. Schlegel, G. E. Scuseria, 
 M. A. Robb, J. R. Cheeseman, G. Scalmani, V. Barone, 
 G. A. Petersson, H. Nakatsuji, X. Li, M. Caricato, A. V. Marenich, 
 J. Bloino, B. G. Janesko, R. Gomperts, B. Mennucci, H. P. Hratchian, 
 J. V. Ortiz, A. F. Izmaylov, J. L. Sonnenberg, D. Williams-Young, 
 F. Ding, F. Lipparini, F. Egidi, J. Goings, B. Peng, A. Petrone, 
 T. Henderson, D. Ranasinghe, V. G. Zakrzewski, J. Gao, N. Rega, 
 G. Zheng, W. Liang, M. Hada, M. Ehara, K. Toyota, R. Fukuda, 
 J. Hasegawa, M. Ishida, T. Nakajima, Y. Honda, O. Kitao, H. Nakai, 
 T. Vreven, K. Throssell, J. A. Montgomery, Jr., J. E. Peralta, 
 F. Ogliaro, M. J. Bearpark, J. J. Heyd, E. N. Brothers, K. N. Kudin, 
 V. N. Staroverov, T. A. Keith, R. Kobayashi, J. Normand, 
 K. Raghavachari, A. P. Rendell, J. C. Burant, S. S. Iyengar, 
 J. Tomasi, M. Cossi, J. M. Millam, M. Klene, C. Adamo, R. Cammi, 
 J. W. Ochterski, R. L. Martin, K. Morokuma, O. Farkas, 
 J. B. Foresman, and D. J. Fox, Gaussian, Inc., Wallingford CT, 2016.
 
 ******************************************
 Gaussian 16:  EM64M-G16RevA.03 25-Dec-2016
                23-Feb-2024 
 ******************************************
 %nprocshared=10
 Will use up to   10 processors via shared memory.
 %mem=12GB
 %chk= 1.chk
 ---------------------
 # freq b3lyp/6-31g(d)
 ---------------------
 1/10=4,30=1,38=1/1,3;
 2/12=2,17=6,18=5,40=1/2;
 3/5=1,6=6,7=1,11=2,25=1,30=1,71=2,74=-5,140=1/1,2,3;
 4//1;
 5/5=2,38=5,98=1/2;
 8/6=4,10=90,11=11/1;
 11/6=1,8=1,9=11,15=111,16=1/1,2,10;
 10/6=1/2;
 6/7=2,8=2,9=2,10=2,28=1/1;
 7/8=1,10=1,25=1/1,2,3,16;
 1/10=4,30=1/3;
 99//99;
 ---------
 good luck
 ---------
 Symbolic Z-matrix:
 Charge =  0 Multiplicity = 1
 C                    -5.12981  -8.28348  -3.26442 
 C                    -5.65779  -7.18786  -2.32048 
 C                    -6.82322  -7.75833  -1.49049 
 C                    -4.60466  -6.52129  -1.38962 
 C                    -3.48296  -7.43667  -0.80828 
 C                    -2.2873   -6.49369  -0.46656 
 C                    -2.83229  -5.07846  -0.73887 
 C                    -1.86199  -3.90399  -0.92317 
 C                    -0.87163  -3.78516   0.24824 
 C                     0.02314  -2.54667   0.13682 
 C                    -0.82728  -1.28261  -0.00236 
 C                    -1.80057  -1.31517  -1.23606 
 C                    -1.00232  -1.32094  -2.56079 
 C                    -2.69467  -2.59574  -1.09374 
 C                    -3.76584  -2.73962  -2.20265 
 C                    -4.65876  -3.98847  -2.03879 
 C                    -3.82592  -5.27557  -1.91499 
 C                    -3.11625  -5.57463  -3.25343 
 C                     0.        0.        0. 
 O                     1.21792   0.        0. 
 C                    -0.81778   1.28361  -0.00236 
 C                    -1.86746   1.27255  -1.13205 
 C                    -2.67606  -0.03476  -1.16573 
 H                    -5.92155  -8.59088  -3.95832 
 H                    -4.82476  -9.17741  -2.70737 
 H                    -4.27537  -7.95666  -3.86311 
 H                    -6.07595  -6.38769  -2.95011 
 H                    -6.47214  -8.53937  -0.80363 
 H                    -7.58785  -8.20711  -2.1361 
 H                    -7.30708  -6.97943  -0.88942 
 H                    -5.17492  -6.14048  -0.52904 
 H                    -3.17232  -8.1946   -1.5334 
 H                    -3.83596  -7.98106   0.07423 
 H                    -1.94713  -6.61362   0.56704 
 H                    -1.42385  -6.71107  -1.10781 
 H                    -3.45774  -4.81736   0.1321 
 H                    -1.27335  -4.0749   -1.83593 
 H                    -0.25395  -4.69003   0.30535 
 H                    -1.43883  -3.73848   1.1915 
 H                     0.70235  -2.63643  -0.7192 
 H                     0.66808  -2.45571   1.01807 
 H                    -1.48116  -1.21419   0.88469 
 H                    -0.24893  -0.5268   -2.58489 
 H                    -1.66654  -1.1673   -3.41825 
 H                    -0.47042  -2.26269  -2.72049 
 H                    -3.24375  -2.46729  -0.14441 
 H                    -3.2817   -2.76706  -3.18624 
 H                    -4.41159  -1.85423  -2.2103 
 H                    -5.35892  -4.04515  -2.88383 
 H                    -5.272    -3.87406  -1.13252 
 H                    -2.51217  -6.48629  -3.20993 
 H                    -2.45038  -4.76331  -3.56064 
 H                    -3.85319  -5.70372  -4.05417 
 H                    -0.13846   2.13761  -0.07979 
 H                    -1.33436   1.35133   0.96709 
 H                    -2.54762   2.12425  -1.01031 
 H                    -1.36118   1.42236  -2.09341 
 H                    -3.35909   0.00017  -2.02191 
 H                    -3.3074   -0.09085  -0.266 
 

 GradGradGradGradGradGradGradGradGradGradGradGradGradGradGradGradGradGrad
 Berny optimization.
 Initialization pass.
 Trust Radius=3.00D-01 FncErr=1.00D-07 GrdErr=1.00D-07 EigMax=2.50D+02 EigMin=1.00D-04
 Number of steps in this run=      2 maximum allowed number of steps=      2.
 GradGradGradGradGradGradGradGradGradGradGradGradGradGradGradGradGradGrad

 Stoichiometry    C22H36O
 Framework group  C1[X(C22H36O)]
 Deg. of freedom   171
 Full point group                 C1      NOp   1
 Largest Abelian subgroup         C1      NOp   1
 Largest concise Abelian subgroup C1      NOp   1
                         Standard orientation:                         
 ---------------------------------------------------------------------
 Center     Atomic      Atomic             Coordinates (Angstroms)
 Number     Number       Type             X           Y           Z
 ---------------------------------------------------------------------
      1          6           0       -5.604695   -0.283073    1.053989
      2          6           0       -4.777827   -0.775551   -0.147640
      3          6           0       -5.701555   -0.907483   -1.373142
      4          6           0       -3.520700    0.068288   -0.504690
      5          6           0       -3.628998    1.616238   -0.342820
      6          6           0       -2.169504    2.135754   -0.154288
      7          6           0       -1.293868    0.883879   -0.354595
      8          6           0        0.155940    0.872121    0.148131
      9          6           0        0.960124    2.071271   -0.383345
     10          6           0        2.438875    2.007565    0.011777
     11          6           0        3.056227    0.681663   -0.436865
     12          6           0        2.322729   -0.580027    0.146653
     13          6           0        2.487371   -0.644838    1.683151
     14          6           0        0.814122   -0.479202   -0.269846
     15          6           0       -0.040972   -1.692674    0.170710
     16          6           0       -1.518371   -1.597221   -0.267431
     17          6           0       -2.166757   -0.279129    0.188421
     18          6           0       -2.297275   -0.260710    1.726964
     19          6           0        4.558294    0.601598   -0.178259
     20          8           0        5.171146    1.463916    0.425184
     21          6           0        5.232589   -0.645986   -0.730782
     22          6           0        4.497070   -1.923238   -0.277153
     23          6           0        2.978014   -1.832078   -0.496666
     24          1           0       -6.384820   -1.015375    1.294782
     25          1           0       -6.110037    0.663909    0.829654
     26          1           0       -5.003103   -0.134123    1.954660
     27          1           0       -4.421463   -1.788544    0.094046
     28          1           0       -6.065457    0.075417   -1.699551
     29          1           0       -6.579216   -1.523998   -1.144040
     30          1           0       -5.180576   -1.367867   -2.220917
     31          1           0       -3.334602   -0.122273   -1.572339
     32          1           0       -4.241139    1.883798    0.523474
     33          1           0       -4.112648    2.071060   -1.214028
     34          1           0       -1.918688    2.932856   -0.861498
     35          1           0       -2.031338    2.553726    0.850809
     36          1           0       -1.235010    0.721455   -1.444600
     37          1           0        0.147571    0.941620    1.245373
     38          1           0        0.515234    3.006407   -0.021158
     39          1           0        0.879517    2.096122   -1.481755
     40          1           0        2.554685    2.126108    1.095616
     41          1           0        2.994815    2.837994   -0.437826
     42          1           0        2.940546    0.606978   -1.532373
     43          1           0        3.534267   -0.535868    1.984766
     44          1           0        2.132891   -1.604737    2.074265
     45          1           0        1.930115    0.145137    2.193749
     46          1           0        0.812877   -0.481138   -1.374022
     47          1           0        0.007060   -1.805614    1.260454
     48          1           0        0.381979   -2.613917   -0.245688
     49          1           0       -2.066740   -2.467267    0.119657
     50          1           0       -1.571319   -1.657860   -1.364698
     51          1           0       -2.757141    0.661827    2.094917
     52          1           0       -1.329493   -0.357911    2.226922
     53          1           0       -2.917668   -1.097975    2.066134
     54          1           0        6.283521   -0.646065   -0.426931
     55          1           0        5.199844   -0.583717   -1.829111
     56          1           0        4.896868   -2.789502   -0.818051
     57          1           0        4.710124   -2.102044    0.783795
     58          1           0        2.513832   -2.742949   -0.102158
     59          1           0        2.770533   -1.819992   -1.577436
 ---------------------------------------------------------------------
 Rotational constants (GHZ):           0.6772341           0.1277176           0.1176288
 Standard basis: 6-31G(d) (6D, 7F)
 There are   417 symmetry adapted cartesian basis functions of A   symmetry.
 There are   417 symmetry adapted basis functions of A   symmetry.
   417 basis functions,   788 primitive gaussians,   417 cartesian basis functions
    88 alpha electrons       88 beta electrons
       nuclear repulsion energy      2148.0717065744 Hartrees.
 NAtoms=   59 NActive=   59 NUniq=   59 SFac= 1.00D+00 NAtFMM=   60 NAOKFM=F Big=F
 Integral buffers will be    131072 words long.
 Raffenetti 2 integral format.
 Two-electron integral symmetry is turned on.
 One-electron integrals computed using PRISM.
 NBasis=   417 RedAO= T EigKep=  1.60D-03  NBF=   417
 NBsUse=   417 1.00D-06 EigRej= -1.00D+00 NBFU=   417
 ExpMin= 1.61D-01 ExpMax= 5.48D+03 ExpMxC= 8.25D+02 IAcc=3 IRadAn=         5 AccDes= 0.00D+00
 Harris functional with IExCor=  402 and IRadAn=       5 diagonalized for initial guess.
 HarFok:  IExCor=  402 AccDes= 0.00D+00 IRadAn=         5 IDoV= 1 UseB2=F ITyADJ=14
 ICtDFT=  3500011 ScaDFX=  1.000000  1.000000  1.000000  1.000000
 FoFCou: FMM=F IPFlag=           0 FMFlag=      100000 FMFlg1=           0
         NFxFlg=           0 DoJE=T BraDBF=F KetDBF=T FulRan=T
         wScrn=  0.000000 ICntrl=       500 IOpCl=  0 I1Cent=   200000004 NGrid=           0
         NMat0=    1 NMatS0=      1 NMatT0=    0 NMatD0=    1 NMtDS0=    0 NMtDT0=    0
 Petite list used in FoFCou.
 Requested convergence on RMS density matrix=1.00D-08 within 128 cycles.
 Requested convergence on MAX density matrix=1.00D-06.
 Requested convergence on             energy=1.00D-06.
 No special actions if energy rises.
 Integral accuracy reduced to 1.0D-05 until final iterations.
 Initial convergence to 1.0D-05 achieved.  Increase integral accuracy.
 SCF Done:  E(RB3LYP) =  -935.270784846     A.U. after   14 cycles
            NFock= 14  Conv=0.35D-08     -V/T= 2.0099
 DoSCS=F DFT=T ScalE2(SS,OS)=  1.000000  1.000000
 Range of M.O.s used for correlation:     1   417
 NBasis=   417 NAE=    88 NBE=    88 NFC=     0 NFV=     0
 NROrb=    417 NOA=    88 NOB=    88 NVA=   329 NVB=   329
 Symmetrizing basis deriv contribution to polar:
 IMax=3 JMax=2 DiffMx= 0.00D+00
 G2DrvN: will do    60 centers at a time, making    1 passes.
 Calling FoFCou, ICntrl=  3107 FMM=F I1Cent=   0 AccDes= 0.00D+00.
 End of G2Drv F.D. properties file   721 does not exist.
 End of G2Drv F.D. properties file   722 does not exist.
 End of G2Drv F.D. properties file   788 does not exist.
          IDoAtm=11111111111111111111111111111111111111111111111111
          IDoAtm=111111111
          Differentiating once with respect to electric field.
                with respect to dipole field.
          Differentiating once with respect to nuclear coordinates.
 CalDSu exits because no D1Ps are significant.
          There are   180 degrees of freedom in the 1st order CPHF.  IDoFFX=6 NUNeed=     3.
    177 vectors produced by pass  0 Test12= 2.90D-14 1.00D-09 XBig12= 1.49D+02 2.08D+00.
 AX will form   177 AO Fock derivatives at one time.
    177 vectors produced by pass  1 Test12= 2.90D-14 1.00D-09 XBig12= 1.13D+01 6.32D-01.
    177 vectors produced by pass  2 Test12= 2.90D-14 1.00D-09 XBig12= 8.07D-02 1.71D-02.
    177 vectors produced by pass  3 Test12= 2.90D-14 1.00D-09 XBig12= 1.69D-04 7.45D-04.
    177 vectors produced by pass  4 Test12= 2.90D-14 1.00D-09 XBig12= 1.41D-07 3.34D-05.
     74 vectors produced by pass  5 Test12= 2.90D-14 1.00D-09 XBig12= 8.50D-11 6.57D-07.
      3 vectors produced by pass  6 Test12= 2.90D-14 1.00D-09 XBig12= 5.58D-14 1.82D-08.
 InvSVY:  IOpt=1 It=  1 EMax= 7.11D-15
 Solved reduced A of dimension   962 with   180 vectors.
 Isotropic polarizability for W=    0.000000      220.64 Bohr**3.
 End of Minotr F.D. properties file   721 does not exist.
 End of Minotr F.D. properties file   722 does not exist.
 End of Minotr F.D. properties file   788 does not exist.

 **********************************************************************

            Population analysis using the SCF density.

 **********************************************************************

 Orbital symmetries:
       Occupied  (A) (A) (A) (A) (A) (A) (A) (A) (A) (A) (A) (A)
                 (A) (A) (A) (A) (A) (A) (A) (A) (A) (A) (A) (A)
                 (A) (A) (A) (A) (A) (A) (A) (A) (A) (A) (A) (A)
                 (A) (A) (A) (A) (A) (A) (A) (A) (A) (A) (A) (A)
                 (A) (A) (A) (A) (A) (A) (A) (A) (A) (A) (A) (A)
                 (A) (A) (A) (A) (A) (A) (A) (A) (A) (A) (A) (A)
                 (A) (A) (A) (A) (A) (A) (A) (A) (A) (A) (A) (A)
                 (A) (A) (A) (A)
       Virtual   (A) (A) (A) (A) (A) (A) (A) (A) (A) (A) (A) (A)
                 (A) (A) (A) (A) (A) (A) (A) (A) (A) (A) (A) (A)
                 (A) (A) (A) (A) (A) (A) (A) (A) (A) (A) (A) (A)
                 (A) (A) (A) (A) (A) (A) (A) (A) (A) (A) (A) (A)
                 (A) (A) (A) (A) (A) (A) (A) (A) (A) (A) (A) (A)
                 (A) (A) (A) (A) (A) (A) (A) (A) (A) (A) (A) (A)
                 (A) (A) (A) (A) (A) (A) (A) (A) (A) (A) (A) (A)
                 (A) (A) (A) (A) (A) (A) (A) (A) (A) (A) (A) (A)
                 (A) (A) (A) (A) (A) (A) (A) (A) (A) (A) (A) (A)
                 (A) (A) (A) (A) (A) (A) (A) (A) (A) (A) (A) (A)
                 (A) (A) (A) (A) (A) (A) (A) (A) (A) (A) (A) (A)
                 (A) (A) (A) (A) (A) (A) (A) (A) (A) (A) (A) (A)
                 (A) (A) (A) (A) (A) (A) (A) (A) (A) (A) (A) (A)
                 (A) (A) (A) (A) (A) (A) (A) (A) (A) (A) (A) (A)
                 (A) (A) (A) (A) (A) (A) (A) (A) (A) (A) (A) (A)
                 (A) (A) (A) (A) (A) (A) (A) (A) (A) (A) (A) (A)
                 (A) (A) (A) (A) (A) (A) (A) (A) (A) (A) (A) (A)
                 (A) (A) (A) (A) (A) (A) (A) (A) (A) (A) (A) (A)
                 (A) (A) (A) (A) (A) (A) (A) (A) (A) (A) (A) (A)
                 (A) (A) (A) (A) (A) (A) (A) (A) (A) (A) (A) (A)
                 (A) (A) (A) (A) (A) (A) (A) (A) (A) (A) (A) (A)
                 (A) (A) (A) (A) (A) (A) (A) (A) (A) (A) (A) (A)
                 (A) (A) (A) (A) (A) (A) (A) (A) (A) (A) (A) (A)
                 (A) (A) (A) (A) (A) (A) (A) (A) (A) (A) (A) (A)
                 (A) (A) (A) (A) (A) (A) (A) (A) (A) (A) (A) (A)
                 (A) (A) (A) (A) (A) (A) (A) (A) (A) (A) (A) (A)
                 (A) (A) (A) (A) (A) (A) (A) (A) (A) (A) (A) (A)
                 (A) (A) (A) (A) (A)
 The electronic state is 1-A.
 Alpha  occ. eigenvalues --  -19.13071 -10.26343 -10.20364 -10.19175 -10.18830
 Alpha  occ. eigenvalues --  -10.18764 -10.18660 -10.18515 -10.18504 -10.18475
 Alpha  occ. eigenvalues --  -10.18084 -10.17858 -10.17767 -10.17644 -10.17553
 Alpha  occ. eigenvalues --  -10.17524 -10.17476 -10.17412 -10.17356 -10.17316
 Alpha  occ. eigenvalues --  -10.16980 -10.16974 -10.16862  -1.02901  -0.86406
 Alpha  occ. eigenvalues --   -0.84490  -0.80535  -0.78640  -0.77808  -0.75424
 Alpha  occ. eigenvalues --   -0.74851  -0.71591  -0.70148  -0.68505  -0.68045
 Alpha  occ. eigenvalues --   -0.67723  -0.66673  -0.62101  -0.60672  -0.59734
 Alpha  occ. eigenvalues --   -0.58672  -0.56386  -0.53727  -0.53083  -0.51947
 Alpha  occ. eigenvalues --   -0.51398  -0.47562  -0.47176  -0.46875  -0.46226
 Alpha  occ. eigenvalues --   -0.45498  -0.45273  -0.44374  -0.43772  -0.43395
 Alpha  occ. eigenvalues --   -0.42530  -0.41358  -0.41047  -0.40942  -0.40353
 Alpha  occ. eigenvalues --   -0.40254  -0.38713  -0.38500  -0.38178  -0.38114
 Alpha  occ. eigenvalues --   -0.37893  -0.37440  -0.36377  -0.36116  -0.35717
 Alpha  occ. eigenvalues --   -0.34841  -0.34734  -0.34396  -0.33820  -0.33647
 Alpha  occ. eigenvalues --   -0.33389  -0.33094  -0.32340  -0.31894  -0.31148
 Alpha  occ. eigenvalues --   -0.30663  -0.30435  -0.30153  -0.29871  -0.29169
 Alpha  occ. eigenvalues --   -0.27780  -0.26673  -0.23048
 Alpha virt. eigenvalues --   -0.00901   0.07230   0.07891   0.08247   0.09657
 Alpha virt. eigenvalues --    0.10093   0.10375   0.10728   0.11560   0.12309
 Alpha virt. eigenvalues --    0.12846   0.13226   0.13428   0.14427   0.14585
 Alpha virt. eigenvalues --    0.14982   0.15116   0.15389   0.15875   0.16267
 Alpha virt. eigenvalues --    0.16414   0.16953   0.17463   0.17610   0.18211
 Alpha virt. eigenvalues --    0.18342   0.18718   0.19135   0.19505   0.19557
 Alpha virt. eigenvalues --    0.20191   0.20586   0.20896   0.21510   0.21993
 Alpha virt. eigenvalues --    0.22182   0.22691   0.22879   0.23006   0.23654
 Alpha virt. eigenvalues --    0.24326   0.24486   0.24764   0.25147   0.25631
 Alpha virt. eigenvalues --    0.25810   0.25989   0.26893   0.27247   0.27642
 Alpha virt. eigenvalues --    0.28386   0.28671   0.29389   0.29635   0.30312
 Alpha virt. eigenvalues --    0.30874   0.32397   0.32922   0.33780   0.35399
 Alpha virt. eigenvalues --    0.37026   0.37911   0.39052   0.49619   0.49913
 Alpha virt. eigenvalues --    0.50274   0.50753   0.51355   0.51741   0.52309
 Alpha virt. eigenvalues --    0.53467   0.54233   0.54782   0.55619   0.56135
 Alpha virt. eigenvalues --    0.57209   0.57636   0.59194   0.59738   0.60293
 Alpha virt. eigenvalues --    0.60664   0.61262   0.62669   0.63266   0.63643
 Alpha virt. eigenvalues --    0.64646   0.65346   0.66282   0.66553   0.66975
 Alpha virt. eigenvalues --    0.67373   0.68299   0.68494   0.69483   0.70471
 Alpha virt. eigenvalues --    0.70817   0.72489   0.73203   0.73544   0.73957
 Alpha virt. eigenvalues --    0.75793   0.76282   0.76549   0.77340   0.78436
 Alpha virt. eigenvalues --    0.79848   0.80809   0.81584   0.82363   0.82682
 Alpha virt. eigenvalues --    0.83697   0.84016   0.84467   0.84903   0.85456
 Alpha virt. eigenvalues --    0.86083   0.86485   0.86694   0.87136   0.87384
 Alpha virt. eigenvalues --    0.88193   0.88552   0.88789   0.89087   0.89385
 Alpha virt. eigenvalues --    0.89616   0.90405   0.90521   0.91321   0.91696
 Alpha virt. eigenvalues --    0.91857   0.92485   0.92985   0.93122   0.93780
 Alpha virt. eigenvalues --    0.94615   0.95259   0.95615   0.95700   0.95934
 Alpha virt. eigenvalues --    0.96580   0.97543   0.97956   0.98707   0.98922
 Alpha virt. eigenvalues --    0.99432   1.00424   1.00997   1.01503   1.01840
 Alpha virt. eigenvalues --    1.02316   1.02501   1.03634   1.04722   1.05002
 Alpha virt. eigenvalues --    1.06915   1.07302   1.07896   1.08690   1.10983
 Alpha virt. eigenvalues --    1.13778   1.13960   1.17178   1.17979   1.19390
 Alpha virt. eigenvalues --    1.20926   1.21719   1.23229   1.26671   1.27868
 Alpha virt. eigenvalues --    1.29735   1.32972   1.33518   1.34696   1.35897
 Alpha virt. eigenvalues --    1.38678   1.39638   1.40993   1.46757   1.47567
 Alpha virt. eigenvalues --    1.49027   1.51075   1.52804   1.54775   1.55860
 Alpha virt. eigenvalues --    1.57677   1.58564   1.60247   1.60338   1.62974
 Alpha virt. eigenvalues --    1.63856   1.64761   1.66488   1.69254   1.69707
 Alpha virt. eigenvalues --    1.70845   1.72391   1.73588   1.74566   1.75412
 Alpha virt. eigenvalues --    1.76651   1.77921   1.78308   1.79863   1.80677
 Alpha virt. eigenvalues --    1.81185   1.81892   1.82729   1.83142   1.83587
 Alpha virt. eigenvalues --    1.86034   1.86320   1.87104   1.88623   1.89621
 Alpha virt. eigenvalues --    1.90517   1.91049   1.92455   1.93102   1.93290
 Alpha virt. eigenvalues --    1.94411   1.94852   1.96121   1.96591   1.96949
 Alpha virt. eigenvalues --    1.98033   1.99546   1.99871   2.00872   2.01891
 Alpha virt. eigenvalues --    2.02642   2.03015   2.03637   2.04393   2.05284
 Alpha virt. eigenvalues --    2.06276   2.06750   2.08398   2.09243   2.10420
 Alpha virt. eigenvalues --    2.10802   2.12003   2.12037   2.12784   2.14009
 Alpha virt. eigenvalues --    2.15835   2.16987   2.17805   2.19158   2.20195
 Alpha virt. eigenvalues --    2.21789   2.22922   2.24245   2.25831   2.26206
 Alpha virt. eigenvalues --    2.27994   2.29029   2.29979   2.30678   2.31525
 Alpha virt. eigenvalues --    2.32315   2.33362   2.35307   2.35891   2.37231
 Alpha virt. eigenvalues --    2.38949   2.39966   2.40561   2.41329   2.42271
 Alpha virt. eigenvalues --    2.43408   2.44539   2.45858   2.47927   2.49249
 Alpha virt. eigenvalues --    2.50261   2.52044   2.52869   2.54845   2.56683
 Alpha virt. eigenvalues --    2.58638   2.59834   2.60196   2.61789   2.62690
 Alpha virt. eigenvalues --    2.65080   2.65403   2.66369   2.67945   2.69848
 Alpha virt. eigenvalues --    2.72947   2.74311   2.75755   2.76550   2.77983
 Alpha virt. eigenvalues --    2.81475   2.83087   2.85384   2.87739   2.90553
 Alpha virt. eigenvalues --    2.90934   2.91966   2.96491   2.99714   3.03220
 Alpha virt. eigenvalues --    3.06653   4.05198   4.11215   4.14740   4.20636
 Alpha virt. eigenvalues --    4.23374   4.24517   4.26310   4.28908   4.30889
 Alpha virt. eigenvalues --    4.32741   4.36971   4.41112   4.44223   4.46211
 Alpha virt. eigenvalues --    4.54141   4.57400   4.59361   4.64541   4.66598
 Alpha virt. eigenvalues --    4.71746   4.76196   4.80258   4.83176
          Condensed to atoms (all electrons):
 Mulliken charges:
               1
     1  C   -0.453965
     2  C   -0.077065
     3  C   -0.450355
     4  C   -0.079872
     5  C   -0.294941
     6  C   -0.290879
     7  C   -0.087888
     8  C   -0.100863
     9  C   -0.276029
    10  C   -0.262335
    11  C   -0.183582
    12  C    0.092534
    13  C   -0.485310
    14  C   -0.089438
    15  C   -0.291330
    16  C   -0.275712
    17  C    0.084366
    18  C   -0.478636
    19  C    0.448685
    20  O   -0.458861
    21  C   -0.339126
    22  C   -0.281015
    23  C   -0.279891
    24  H    0.137422
    25  H    0.142352
    26  H    0.146686
    27  H    0.123450
    28  H    0.141654
    29  H    0.137976
    30  H    0.139048
    31  H    0.111837
    32  H    0.139656
    33  H    0.133688
    34  H    0.134867
    35  H    0.132912
    36  H    0.107904
    37  H    0.118700
    38  H    0.137099
    39  H    0.120267
    40  H    0.145493
    41  H    0.143804
    42  H    0.128445
    43  H    0.156422
    44  H    0.146236
    45  H    0.154613
    46  H    0.104992
    47  H    0.137840
    48  H    0.133584
    49  H    0.126002
    50  H    0.121920
    51  H    0.146838
    52  H    0.145639
    53  H    0.145783
    54  H    0.159963
    55  H    0.151306
    56  H    0.141798
    57  H    0.149194
    58  H    0.139865
    59  H    0.126256
 Sum of Mulliken charges =  -0.00000
 Mulliken charges with hydrogens summed into heavy atoms:
               1
     1  C   -0.027505
     2  C    0.046385
     3  C   -0.031678
     4  C    0.031965
     5  C   -0.021597
     6  C   -0.023101
     7  C    0.020016
     8  C    0.017837
     9  C   -0.018664
    10  C    0.026961
    11  C   -0.055138
    12  C    0.092534
    13  C   -0.028040
    14  C    0.015554
    15  C   -0.019906
    16  C   -0.027790
    17  C    0.084366
    18  C   -0.040375
    19  C    0.448685
    20  O   -0.458861
    21  C   -0.027858
    22  C    0.009978
    23  C   -0.013770
 APT charges:
               1
     1  C    0.043587
     2  C    0.135996
     3  C    0.073290
     4  C    0.075719
     5  C    0.062807
     6  C    0.080011
     7  C    0.073974
     8  C    0.048380
     9  C    0.107470
    10  C    0.094591
    11  C   -0.116871
    12  C    0.126365
    13  C   -0.008479
    14  C    0.067867
    15  C    0.069951
    16  C    0.104844
    17  C    0.043697
    18  C    0.019500
    19  C    0.740989
    20  O   -0.650967
    21  C   -0.065474
    22  C    0.148262
    23  C    0.052890
    24  H   -0.038946
    25  H   -0.018710
    26  H   -0.011455
    27  H   -0.071462
    28  H   -0.021771
    29  H   -0.046458
    30  H   -0.028672
    31  H   -0.066910
    32  H   -0.035917
    33  H   -0.050937
    34  H   -0.047521
    35  H   -0.042796
    36  H   -0.061528
    37  H   -0.043641
    38  H   -0.051764
    39  H   -0.045852
    40  H   -0.022018
    41  H   -0.046855
    42  H   -0.032479
    43  H   -0.011350
    44  H   -0.007463
    45  H   -0.001526
    46  H   -0.060798
    47  H   -0.027142
    48  H   -0.052439
    49  H   -0.066480
    50  H   -0.046112
    51  H   -0.009872
    52  H   -0.021272
    53  H   -0.020167
    54  H   -0.032062
    55  H   -0.010296
    56  H   -0.061369
    57  H   -0.034617
    58  H   -0.035822
    59  H   -0.043921
 Sum of APT charges =   0.00000
 APT charges with hydrogens summed into heavy atoms:
               1
     1  C   -0.025524
     2  C    0.064534
     3  C   -0.023612
     4  C    0.008809
     5  C   -0.024047
     6  C   -0.010306
     7  C    0.012446
     8  C    0.004739
     9  C    0.009855
    10  C    0.025719
    11  C   -0.149350
    12  C    0.126365
    13  C   -0.028819
    14  C    0.007069
    15  C   -0.009629
    16  C   -0.007748
    17  C    0.043697
    18  C   -0.031810
    19  C    0.740989
    20  O   -0.650967
    21  C   -0.107833
    22  C    0.052277
    23  C   -0.026853
 Electronic spatial extent (au):  <R**2>=           9541.1893
 Charge=             -0.0000 electrons
 Dipole moment (field-independent basis, Debye):
    X=             -1.7033    Y=             -2.1073    Z=             -1.0894  Tot=              2.9204
 Quadrupole moment (field-independent basis, Debye-Ang):
   XX=           -159.3797   YY=           -146.4251   ZZ=           -143.1240
   XY=            -11.8334   XZ=             -6.4904   YZ=             -1.6450
 Traceless Quadrupole moment (field-independent basis, Debye-Ang):
   XX=             -9.7368   YY=              3.2178   ZZ=              6.5189
   XY=            -11.8334   XZ=             -6.4904   YZ=             -1.6450
 Octapole moment (field-independent basis, Debye-Ang**2):
  XXX=            -59.3262  YYY=             -1.4819  ZZZ=             -1.4492  XYY=             -7.4649
  XXY=            -64.3857  XXZ=            -30.2131  XZZ=             14.0093  YZZ=              2.8202
  YYZ=             -1.0857  XYZ=             -6.2665
 Hexadecapole moment (field-independent basis, Debye-Ang**3):
 XXXX=         -11033.8771 YYYY=          -1731.5515 ZZZZ=           -816.9484 XXXY=           -322.6119
 XXXZ=           -171.8276 YYYX=             -0.4385 YYYZ=             -3.9793 ZZZX=              1.5287
 ZZZY=              4.3757 XXYY=          -2101.6976 XXZZ=          -1877.0950 YYZZ=           -419.1685
 XXYZ=            -49.7846 YYXZ=            -15.2590 ZZXY=              0.6696
 N-N= 2.148071706574D+03 E-N=-6.461361266391D+03  KE= 9.261114166936D+02
  Exact polarizability: 273.021   0.830 207.280  -0.162   1.447 181.612
 Approx polarizability: 316.569   6.913 313.245   4.101   7.025 307.743
 Calling FoFJK, ICntrl=    100127 FMM=F ISym2X=0 I1Cent= 0 IOpClX= 0 NMat=1 NMatS=1 NMatT=0.
 Full mass-weighted force constant matrix:
 Low frequencies ---   -5.2285   -2.7166   -0.0008    0.0006    0.0008    0.8677
 Low frequencies ---   39.6030   48.0305   64.8544
 Diagonal vibrational polarizability:
       11.9449485       7.5380302      17.3662962
 Harmonic frequencies (cm**-1), IR intensities (KM/Mole), Raman scattering
 activities (A**4/AMU), depolarization ratios for plane and unpolarized
 incident light, reduced masses (AMU), force constants (mDyne/A),
 and normal coordinates:
                      1                      2                      3
                      A                      A                      A
 Frequencies --     39.5988                48.0266                64.8542
 Red. masses --      3.9676                 2.9130                 3.1260
 Frc consts  --      0.0037                 0.0040                 0.0077
 IR Inten    --      0.2788                 0.4428                 0.4227
  Atom  AN      X      Y      Z        X      Y      Z        X      Y      Z
     1   6     0.08  -0.02   0.16     0.04  -0.18   0.02     0.06  -0.04   0.05
     2   6    -0.01   0.01   0.08    -0.01  -0.01  -0.09    -0.03   0.00  -0.02
     3   6    -0.10   0.06   0.15    -0.05   0.22  -0.08    -0.10   0.18   0.01
     4   6    -0.02   0.00   0.01     0.01  -0.00  -0.00     0.01  -0.05  -0.03
     5   6    -0.01   0.00   0.03    -0.01  -0.01   0.06     0.01  -0.04  -0.15
     6   6    -0.00  -0.00  -0.04    -0.01  -0.01   0.06     0.00  -0.03  -0.12
     7   6    -0.01  -0.00  -0.08    -0.00  -0.00   0.02     0.01  -0.05  -0.03
     8   6    -0.00  -0.00  -0.11     0.00  -0.00   0.01    -0.00  -0.02  -0.00
     9   6     0.00  -0.01  -0.12    -0.01  -0.01  -0.02    -0.01  -0.01   0.00
    10   6    -0.01   0.01  -0.06     0.00   0.00  -0.06    -0.02  -0.00   0.04
    11   6     0.02   0.00  -0.01    -0.00  -0.02  -0.02    -0.01   0.02   0.02
    12   6    -0.01   0.00  -0.04     0.00   0.01   0.03     0.02  -0.01  -0.01
    13   6    -0.08   0.01  -0.03    -0.00   0.08   0.04     0.05  -0.06  -0.01
    14   6     0.01  -0.00  -0.10     0.00  -0.00   0.02     0.00  -0.03   0.03
    15   6     0.00  -0.02  -0.15     0.00  -0.01   0.01     0.01  -0.00   0.12
    16   6    -0.01   0.00  -0.12     0.01  -0.01  -0.01     0.01  -0.04   0.12
    17   6     0.01  -0.01  -0.06     0.00  -0.02   0.00    -0.00  -0.02   0.03
    18   6     0.09  -0.04  -0.06     0.00  -0.04   0.01    -0.02   0.08   0.02
    19   6     0.00   0.00   0.10     0.00  -0.00  -0.05    -0.01   0.02   0.03
    20   8    -0.05   0.00   0.16     0.02   0.04  -0.13    -0.03  -0.02   0.11
    21   6     0.04   0.01   0.15    -0.01  -0.03   0.01     0.01   0.07  -0.05
    22   6     0.01   0.00   0.09     0.00  -0.01   0.09     0.03   0.03  -0.11
    23   6     0.03   0.00  -0.00    -0.00  -0.02   0.10     0.02   0.02  -0.07
    24   1     0.09  -0.02   0.19     0.02  -0.18  -0.09     0.02  -0.01   0.02
    25   1     0.08  -0.00   0.22     0.08  -0.12   0.19     0.11   0.01   0.15
    26   1     0.15  -0.05   0.12     0.07  -0.36   0.03     0.10  -0.15   0.05
    27   1    -0.00  -0.00   0.03    -0.03  -0.06  -0.26    -0.08  -0.04  -0.12
    28   1    -0.12   0.07   0.21    -0.03   0.29   0.10    -0.05   0.23   0.13
    29   1    -0.09   0.06   0.20    -0.06   0.21  -0.15    -0.13   0.21   0.00
    30   1    -0.17   0.08   0.09    -0.10   0.35  -0.17    -0.18   0.22  -0.06
    31   1    -0.09   0.01   0.00     0.03   0.05  -0.01     0.04  -0.14  -0.01
    32   1     0.03  -0.00   0.06     0.01  -0.05   0.08    -0.03   0.03  -0.20
    33   1    -0.05   0.01   0.06    -0.02   0.02   0.09     0.05  -0.11  -0.20
    34   1    -0.03  -0.00  -0.05    -0.02   0.01   0.07     0.03  -0.07  -0.15
    35   1     0.05  -0.01  -0.05     0.00  -0.03   0.06    -0.03   0.02  -0.14
    36   1    -0.04   0.01  -0.09    -0.01   0.02   0.02     0.03  -0.11  -0.02
    37   1     0.01   0.01  -0.11     0.01   0.02   0.01    -0.02  -0.00  -0.00
    38   1    -0.01  -0.00  -0.16     0.00  -0.00  -0.03    -0.03  -0.02  -0.01
    39   1     0.04  -0.04  -0.12    -0.03  -0.03  -0.02     0.01  -0.02   0.00
    40   1    -0.06   0.03  -0.06     0.03   0.04  -0.07    -0.05  -0.03   0.05
    41   1     0.00  -0.00  -0.06    -0.01  -0.02  -0.10    -0.02   0.01   0.07
    42   1     0.09  -0.01  -0.01    -0.02  -0.06  -0.02    -0.00   0.04   0.02
    43   1    -0.09   0.01   0.02     0.00   0.06   0.03     0.05  -0.02  -0.03
    44   1    -0.10   0.01  -0.04    -0.03   0.11   0.08     0.11  -0.09  -0.04
    45   1    -0.10   0.01  -0.05     0.02   0.12   0.00     0.02  -0.11   0.02
    46   1     0.05   0.01  -0.10     0.01  -0.01   0.02    -0.03  -0.07   0.03
    47   1     0.02  -0.08  -0.16    -0.01  -0.02   0.01     0.02   0.08   0.13
    48   1    -0.00   0.00  -0.21     0.01  -0.00   0.00     0.02  -0.03   0.19
    49   1     0.00  -0.01  -0.14     0.00  -0.01  -0.03     0.02  -0.02   0.18
    50   1    -0.03   0.04  -0.12     0.02   0.01  -0.01     0.01  -0.12   0.12
    51   1     0.11  -0.04  -0.02    -0.05  -0.07   0.02    -0.06   0.08  -0.04
    52   1     0.12  -0.04  -0.11     0.01   0.01  -0.00    -0.02   0.14   0.04
    53   1     0.11  -0.05  -0.04     0.06  -0.08  -0.00     0.01   0.08   0.07
    54   1     0.02   0.01   0.22    -0.00  -0.02  -0.00     0.01   0.06  -0.06
    55   1     0.12   0.01   0.15    -0.02  -0.10   0.01    -0.00   0.12  -0.04
    56   1     0.05   0.01   0.11    -0.00  -0.04   0.14     0.03   0.07  -0.16
    57   1    -0.05  -0.01   0.10     0.01   0.05   0.10     0.05  -0.02  -0.12
    58   1     0.00   0.00  -0.03     0.00  -0.00   0.15     0.04  -0.00  -0.11
    59   1     0.09   0.00  -0.01    -0.01  -0.08   0.10     0.00   0.07  -0.07
                      4                      5                      6
                      A                      A                      A
 Frequencies --     80.2102               101.4292               106.6339
 Red. masses --      4.2288                 3.4056                 3.2946
 Frc consts  --      0.0160                 0.0206                 0.0221
 IR Inten    --      1.1756                 0.6484                 0.9533
  Atom  AN      X      Y      Z        X      Y      Z        X      Y      Z
     1   6    -0.01  -0.18  -0.04    -0.11   0.09  -0.07    -0.05   0.15  -0.04
     2   6     0.05  -0.06  -0.04    -0.04   0.04  -0.01    -0.05   0.05   0.01
     3   6     0.10  -0.06  -0.08     0.04   0.07  -0.08    -0.02   0.06  -0.02
     4   6     0.01   0.03   0.05    -0.01   0.01   0.06     0.00  -0.02   0.00
     5   6    -0.03   0.01   0.13     0.02   0.01   0.12     0.03  -0.01   0.00
     6   6    -0.03   0.05   0.02     0.04  -0.02   0.05     0.03  -0.05   0.09
     7   6    -0.01   0.05   0.01    -0.00  -0.05   0.03     0.00  -0.05   0.04
     8   6     0.01   0.06  -0.04     0.01  -0.05  -0.03     0.01  -0.04   0.02
     9   6     0.01   0.02  -0.13    -0.02  -0.06  -0.09    -0.04  -0.03  -0.04
    10   6     0.02   0.03  -0.14    -0.03  -0.02  -0.08    -0.02   0.01  -0.11
    11   6     0.01  -0.00  -0.07     0.00  -0.02  -0.04    -0.01   0.00  -0.06
    12   6    -0.01   0.03  -0.03     0.02  -0.04  -0.06     0.02   0.01   0.02
    13   6     0.01   0.05  -0.04     0.03  -0.08  -0.07     0.03   0.12   0.03
    14   6    -0.01   0.04  -0.00     0.00  -0.06  -0.03     0.02  -0.03   0.01
    15   6    -0.00   0.06   0.07    -0.00  -0.03   0.04     0.02  -0.04  -0.02
    16   6    -0.00   0.04   0.08    -0.02  -0.04   0.08     0.02  -0.04  -0.03
    17   6     0.01   0.05   0.05    -0.01  -0.02   0.06    -0.00  -0.06   0.01
    18   6     0.02   0.10   0.05    -0.02  -0.00   0.06    -0.02  -0.12   0.00
    19   6    -0.01  -0.05   0.04    -0.00   0.05   0.04    -0.02   0.01  -0.03
    20   8    -0.04  -0.16   0.22    -0.06   0.14  -0.03    -0.06  -0.08   0.15
    21   6    -0.02  -0.03  -0.03     0.08   0.04   0.16    -0.01   0.07  -0.14
    22   6    -0.04  -0.03  -0.06     0.04   0.00   0.01     0.07   0.07  -0.01
    23   6    -0.04   0.01  -0.03     0.05   0.01  -0.11     0.05  -0.01   0.10
    24   1    -0.00  -0.22  -0.12    -0.15   0.12  -0.11    -0.08   0.19  -0.01
    25   1    -0.03  -0.18   0.02    -0.06   0.10  -0.11    -0.02   0.15  -0.11
    26   1    -0.05  -0.23  -0.00    -0.16   0.07  -0.03    -0.07   0.19  -0.04
    27   1     0.10  -0.05  -0.08    -0.09   0.04   0.02    -0.11   0.04   0.06
    28   1     0.05  -0.06  -0.04     0.11   0.08  -0.12     0.07   0.08  -0.07
    29   1     0.14  -0.13  -0.15    -0.01   0.11  -0.13    -0.08   0.15  -0.01
    30   1     0.17   0.03  -0.09     0.08   0.03  -0.03    -0.03  -0.02   0.02
    31   1     0.04   0.10   0.04     0.01   0.05   0.06    -0.01  -0.03   0.01
    32   1     0.04  -0.06   0.21     0.08  -0.02   0.17    -0.01   0.01  -0.04
    33   1    -0.14   0.05   0.21    -0.03   0.05   0.17     0.10  -0.00  -0.03
    34   1    -0.08   0.02  -0.03     0.03  -0.04   0.02     0.06  -0.00   0.15
    35   1     0.03   0.09  -0.01     0.09  -0.00   0.03     0.00  -0.12   0.12
    36   1    -0.04   0.04   0.01    -0.04  -0.06   0.03    -0.01  -0.01   0.04
    37   1     0.05   0.11  -0.04     0.06  -0.03  -0.03     0.03  -0.03   0.01
    38   1     0.03   0.05  -0.19    -0.04  -0.05  -0.13    -0.04  -0.04  -0.04
    39   1     0.00  -0.06  -0.13    -0.02  -0.12  -0.09    -0.09  -0.06  -0.04
    40   1     0.02   0.08  -0.14    -0.05   0.01  -0.08     0.04   0.09  -0.13
    41   1     0.02  -0.00  -0.18    -0.04  -0.02  -0.09    -0.06  -0.00  -0.20
    42   1     0.05  -0.04  -0.07     0.06  -0.03  -0.04    -0.02  -0.06  -0.05
    43   1     0.02   0.02  -0.05     0.02  -0.01  -0.06     0.05   0.03   0.00
    44   1    -0.02   0.07  -0.01     0.10  -0.12  -0.10    -0.07   0.18   0.10
    45   1     0.05   0.08  -0.05    -0.03  -0.13  -0.04     0.12   0.21  -0.03
    46   1    -0.04  -0.01  -0.00    -0.03  -0.08  -0.03     0.03  -0.02   0.01
    47   1     0.01   0.11   0.07     0.03   0.01   0.04     0.02  -0.07  -0.02
    48   1    -0.01   0.04   0.11    -0.02  -0.06   0.06     0.03  -0.03  -0.04
    49   1    -0.00   0.06   0.11    -0.01  -0.03   0.13     0.03  -0.06  -0.06
    50   1    -0.01   0.01   0.08    -0.06  -0.07   0.08     0.03  -0.01  -0.03
    51   1    -0.03   0.08   0.02     0.02   0.02   0.05     0.00  -0.12   0.04
    52   1     0.03   0.17   0.04    -0.02  -0.04   0.07    -0.03  -0.17   0.01
    53   1     0.07   0.07   0.08    -0.05   0.03   0.07    -0.05  -0.11  -0.04
    54   1    -0.02  -0.06  -0.02     0.04   0.05   0.32     0.02   0.10  -0.26
    55   1    -0.02   0.01  -0.03     0.26   0.06   0.16    -0.15   0.05  -0.14
    56   1    -0.06  -0.02  -0.08     0.09   0.04  -0.02     0.07   0.05   0.02
    57   1    -0.03  -0.06  -0.06    -0.05  -0.07   0.02     0.16   0.15  -0.01
    58   1    -0.05   0.02  -0.02     0.03  -0.02  -0.20     0.11   0.00   0.22
    59   1    -0.06   0.00  -0.03     0.13   0.08  -0.12    -0.03  -0.13   0.11
                      7                      8                      9
                      A                      A                      A
 Frequencies --    132.4345               176.0812               182.1187
 Red. masses --      2.2222                 2.7696                 1.8135
 Frc consts  --      0.0230                 0.0506                 0.0354
 IR Inten    --      0.0881                 0.3769                 0.1832
  Atom  AN      X      Y      Z        X      Y      Z        X      Y      Z
     1   6     0.03   0.00   0.01    -0.07   0.03  -0.02    -0.04   0.02  -0.00
     2   6     0.01  -0.01  -0.00    -0.05  -0.02   0.02    -0.04  -0.00   0.00
     3   6    -0.03  -0.02   0.02    -0.01   0.05  -0.02    -0.06  -0.00   0.01
     4   6     0.01  -0.03  -0.04    -0.01  -0.07   0.04    -0.03  -0.01  -0.01
     5   6    -0.00  -0.01  -0.15    -0.03  -0.08   0.01    -0.03  -0.02   0.05
     6   6    -0.04  -0.01   0.15    -0.04  -0.03  -0.10    -0.02  -0.00  -0.07
     7   6    -0.01   0.04   0.07    -0.01  -0.03   0.01    -0.01  -0.01  -0.01
     8   6     0.01   0.03   0.04    -0.01   0.02   0.03    -0.01   0.02   0.02
     9   6     0.00   0.02  -0.01    -0.01   0.07   0.12     0.01  -0.00  -0.02
    10   6     0.02   0.02  -0.08     0.04   0.04   0.02     0.02   0.02  -0.03
    11   6     0.02   0.00  -0.05     0.03   0.05  -0.06     0.03   0.00   0.04
    12   6     0.00   0.02  -0.04     0.01   0.07  -0.07     0.02   0.02   0.05
    13   6     0.04   0.02  -0.04     0.02   0.11  -0.07     0.07   0.02   0.04
    14   6    -0.00   0.03   0.01     0.01   0.06  -0.05     0.01   0.02   0.06
    15   6     0.01   0.03   0.03     0.06   0.02  -0.07     0.00   0.02   0.03
    16   6     0.02   0.02  -0.00     0.02  -0.03   0.04     0.02   0.00  -0.04
    17   6    -0.00  -0.00   0.01     0.01  -0.04   0.05    -0.01  -0.02  -0.03
    18   6    -0.05  -0.05   0.01     0.03  -0.03   0.05    -0.03  -0.05  -0.03
    19   6     0.01  -0.02   0.02     0.03  -0.03  -0.02     0.04  -0.00   0.05
    20   8    -0.00  -0.00   0.01     0.06  -0.07   0.02     0.06   0.02  -0.01
    21   6     0.03  -0.05   0.10     0.00  -0.08   0.05     0.03  -0.01   0.04
    22   6    -0.04  -0.05  -0.00    -0.06  -0.04   0.06    -0.02  -0.04  -0.10
    23   6    -0.03   0.02  -0.06    -0.03   0.04  -0.04    -0.03   0.02  -0.00
    24   1     0.05  -0.01   0.04    -0.11   0.07  -0.03    -0.05   0.03  -0.00
    25   1     0.01  -0.01   0.01    -0.03   0.05  -0.06    -0.03   0.02  -0.02
    26   1     0.05   0.03  -0.01    -0.10   0.03  -0.00    -0.05   0.02   0.00
    27   1     0.01  -0.01  -0.00    -0.12  -0.04   0.03    -0.06  -0.01   0.01
    28   1    -0.04  -0.02   0.03     0.14   0.09  -0.07    -0.05   0.00   0.01
    29   1    -0.02  -0.02   0.05    -0.11   0.18  -0.05    -0.07   0.01   0.03
    30   1    -0.05  -0.02   0.01    -0.03  -0.04   0.02    -0.08  -0.02   0.01
    31   1     0.03  -0.10  -0.02     0.01  -0.09   0.05    -0.05   0.02  -0.02
    32   1    -0.21   0.07  -0.32     0.03  -0.08   0.05     0.06  -0.07   0.13
    33   1     0.23  -0.06  -0.31    -0.11  -0.11   0.03    -0.13   0.01   0.12
    34   1     0.04   0.13   0.33    -0.07  -0.11  -0.19    -0.06  -0.06  -0.15
    35   1    -0.19  -0.19   0.25    -0.02   0.08  -0.15     0.02   0.08  -0.11
    36   1    -0.03   0.10   0.06     0.01  -0.09   0.02     0.03  -0.03  -0.01
    37   1     0.05   0.03   0.04    -0.04  -0.05   0.03    -0.02   0.06   0.02
    38   1     0.03   0.03  -0.00     0.03   0.03   0.25     0.02   0.02  -0.07
    39   1    -0.05   0.00  -0.01    -0.07   0.19   0.13     0.01  -0.06  -0.02
    40   1     0.07   0.06  -0.09     0.12  -0.00   0.01     0.02   0.09  -0.03
    41   1     0.00   0.00  -0.14    -0.01   0.06   0.01     0.01   0.00  -0.08
    42   1     0.05  -0.02  -0.05     0.04   0.09  -0.06     0.06  -0.02   0.04
    43   1     0.05  -0.01  -0.07     0.01   0.27  -0.07     0.13  -0.39  -0.02
    44   1     0.02   0.03  -0.03     0.17   0.07  -0.04    -0.29   0.18   0.10
    45   1     0.08   0.04  -0.03    -0.09   0.03  -0.08     0.41   0.27   0.02
    46   1    -0.04   0.04   0.01    -0.00   0.11  -0.05     0.03   0.02   0.06
    47   1    -0.01   0.06   0.03     0.15  -0.04  -0.08    -0.05   0.01   0.03
    48   1     0.02   0.03   0.06     0.06   0.05  -0.15     0.03   0.02   0.05
    49   1     0.02   0.01  -0.04     0.08  -0.04   0.11     0.02  -0.02  -0.09
    50   1     0.06   0.04  -0.00    -0.06  -0.07   0.05     0.07   0.03  -0.04
    51   1    -0.15  -0.10   0.02     0.15   0.03   0.06    -0.03  -0.05  -0.02
    52   1    -0.06   0.03   0.03     0.02  -0.17   0.03    -0.04  -0.06  -0.02
    53   1     0.01  -0.11  -0.03    -0.08   0.04   0.05    -0.04  -0.05  -0.06
    54   1    -0.01  -0.07   0.21    -0.01  -0.09   0.09     0.01  -0.06   0.11
    55   1     0.15  -0.03   0.10     0.04  -0.13   0.04     0.11   0.07   0.05
    56   1    -0.05  -0.03  -0.03    -0.05  -0.07   0.12    -0.08   0.02  -0.25
    57   1    -0.10  -0.12  -0.00    -0.13   0.00   0.09     0.03  -0.20  -0.14
    58   1    -0.07   0.02  -0.10    -0.10   0.06  -0.07    -0.02   0.02   0.00
    59   1     0.00   0.06  -0.06     0.04   0.05  -0.05    -0.10   0.05   0.01
                     10                     11                     12
                      A                      A                      A
 Frequencies --    188.7742               202.5829               208.3041
 Red. masses --      2.6053                 2.5068                 2.0114
 Frc consts  --      0.0547                 0.0606                 0.0514
 IR Inten    --      0.7064                 0.8424                 0.0496
  Atom  AN      X      Y      Z        X      Y      Z        X      Y      Z
     1   6    -0.11  -0.01  -0.01     0.02  -0.03   0.01     0.08   0.06  -0.00
     2   6    -0.09  -0.01   0.01    -0.00   0.02  -0.03     0.04   0.01  -0.01
     3   6    -0.11  -0.02   0.02    -0.08  -0.06   0.04     0.01   0.02   0.01
     4   6    -0.07  -0.01  -0.01    -0.03   0.06  -0.05     0.03  -0.01  -0.04
     5   6    -0.06  -0.01   0.04     0.01   0.06   0.04     0.02  -0.02   0.07
     6   6    -0.06  -0.00   0.06     0.04   0.03  -0.05     0.02  -0.01  -0.01
     7   6    -0.03   0.02  -0.02     0.01  -0.00   0.00     0.02  -0.01  -0.02
     8   6     0.00   0.02  -0.06     0.00  -0.04   0.06    -0.00   0.02   0.01
     9   6     0.05  -0.01  -0.08    -0.02   0.00   0.14    -0.02   0.01  -0.03
    10   6     0.03  -0.01   0.04     0.03  -0.03  -0.04    -0.03   0.02  -0.01
    11   6     0.07   0.01   0.03    -0.00  -0.02  -0.09    -0.04   0.02  -0.00
    12   6     0.04   0.01  -0.00     0.03  -0.02  -0.04    -0.02   0.02   0.02
    13   6     0.02  -0.03   0.00     0.10   0.04  -0.05     0.05   0.01   0.02
    14   6     0.02   0.01  -0.01     0.01  -0.03   0.02    -0.01   0.01   0.07
    15   6     0.01   0.05   0.06    -0.02  -0.00   0.04     0.01   0.02   0.11
    16   6     0.02   0.02  -0.01    -0.02   0.01  -0.02     0.06  -0.02  -0.05
    17   6    -0.03  -0.00  -0.03    -0.03   0.02  -0.05     0.03  -0.03  -0.06
    18   6    -0.08  -0.00  -0.03    -0.11   0.02  -0.05     0.01  -0.09  -0.06
    19   6     0.09  -0.01  -0.00    -0.01  -0.01  -0.04    -0.05  -0.00  -0.00
    20   8     0.13  -0.05   0.01    -0.08  -0.01   0.03    -0.04  -0.01  -0.00
    21   6     0.05  -0.01  -0.05     0.06   0.00   0.03    -0.06  -0.02   0.02
    22   6     0.06   0.03   0.04     0.06   0.00   0.05    -0.08  -0.02  -0.01
    23   6     0.06   0.02  -0.00     0.06  -0.03  -0.01    -0.06   0.03  -0.03
    24   1    -0.14   0.01  -0.05     0.03  -0.05  -0.00     0.13   0.04   0.10
    25   1    -0.08   0.01  -0.00    -0.00  -0.03   0.05     0.03   0.02  -0.05
    26   1    -0.14  -0.04   0.02     0.02  -0.05   0.01     0.13   0.16  -0.05
    27   1    -0.09  -0.01   0.02     0.06   0.04  -0.04     0.02   0.00  -0.00
    28   1    -0.15  -0.03   0.04    -0.34  -0.12   0.17     0.11   0.03  -0.06
    29   1    -0.08  -0.05   0.04     0.08  -0.29   0.08    -0.05   0.12   0.06
    30   1    -0.12   0.00   0.00    -0.06   0.13  -0.05    -0.04  -0.09   0.03
    31   1    -0.10   0.01  -0.02    -0.05   0.11  -0.06     0.01   0.05  -0.05
    32   1    -0.06  -0.04   0.05     0.09   0.00   0.12     0.10  -0.10   0.15
    33   1    -0.06   0.02   0.06    -0.07   0.12   0.12    -0.08   0.04   0.16
    34   1    -0.08   0.05   0.12     0.03  -0.03  -0.12    -0.01  -0.03  -0.05
    35   1    -0.05  -0.08   0.09     0.08   0.11  -0.09     0.07   0.02  -0.03
    36   1    -0.07   0.05  -0.03     0.06  -0.00   0.00     0.04   0.01  -0.02
    37   1     0.02   0.06  -0.07    -0.04  -0.10   0.06    -0.02   0.07   0.01
    38   1     0.04   0.02  -0.17     0.03  -0.03   0.30    -0.03   0.02  -0.08
    39   1     0.15  -0.07  -0.09    -0.13   0.14   0.15    -0.00  -0.04  -0.04
    40   1    -0.07  -0.06   0.06     0.17  -0.04  -0.05    -0.05   0.01  -0.00
    41   1     0.06   0.02   0.13    -0.03  -0.02  -0.10    -0.02   0.02   0.01
    42   1     0.07   0.04   0.03    -0.02  -0.03  -0.09    -0.05   0.01  -0.00
    43   1    -0.03   0.29   0.05     0.11   0.12  -0.09     0.02   0.37   0.01
    44   1     0.31  -0.16  -0.07     0.18   0.04   0.00     0.40  -0.14  -0.02
    45   1    -0.26  -0.24   0.03     0.08   0.03  -0.05    -0.23  -0.22   0.07
    46   1     0.02  -0.04  -0.01    -0.03  -0.02   0.02    -0.03  -0.03   0.07
    47   1    -0.03   0.15   0.07    -0.06   0.05   0.05    -0.07   0.10   0.12
    48   1     0.02   0.01   0.16    -0.03  -0.03   0.09     0.06  -0.00   0.20
    49   1     0.02   0.00  -0.03    -0.04   0.02  -0.04     0.02  -0.03  -0.12
    50   1     0.07   0.01  -0.01     0.03   0.01  -0.02     0.18   0.01  -0.05
    51   1    -0.21  -0.06  -0.06    -0.11   0.03  -0.08    -0.03  -0.12  -0.03
    52   1    -0.09   0.12   0.00    -0.14  -0.00  -0.00     0.01  -0.06  -0.05
    53   1     0.01  -0.08  -0.05    -0.14   0.03  -0.09     0.05  -0.13  -0.10
    54   1     0.07  -0.01  -0.13     0.04   0.04   0.09    -0.06  -0.03   0.04
    55   1    -0.04  -0.04  -0.05     0.11  -0.05   0.02    -0.03  -0.02   0.02
    56   1     0.07  -0.02   0.12     0.09  -0.01   0.09    -0.08  -0.02  -0.02
    57   1     0.04   0.12   0.06     0.03   0.04   0.06    -0.10  -0.04  -0.01
    58   1     0.05   0.01  -0.03     0.06  -0.02  -0.00    -0.09   0.03  -0.06
    59   1     0.10   0.03  -0.01     0.09  -0.05  -0.01    -0.06   0.08  -0.03
                     13                     14                     15
                      A                      A                      A
 Frequencies --    233.7284               245.1860               249.3738
 Red. masses --      1.1518                 1.2619                 2.1034
 Frc consts  --      0.0371                 0.0447                 0.0771
 IR Inten    --      0.0693                 0.1342                 0.6475
  Atom  AN      X      Y      Z        X      Y      Z        X      Y      Z
     1   6     0.03  -0.02   0.00    -0.01   0.00   0.02    -0.06  -0.05   0.03
     2   6     0.01  -0.01  -0.02    -0.00  -0.01   0.03    -0.02  -0.01   0.05
     3   6    -0.02   0.02  -0.01     0.04   0.00   0.00     0.05   0.01  -0.00
     4   6    -0.01  -0.00  -0.02    -0.00  -0.01   0.00    -0.02   0.01   0.04
     5   6    -0.03  -0.01   0.02    -0.00  -0.01   0.02    -0.04   0.01  -0.07
     6   6    -0.03   0.01   0.02    -0.00  -0.01   0.01    -0.05   0.05  -0.08
     7   6    -0.01   0.01  -0.00     0.00   0.01  -0.03    -0.01   0.04   0.04
     8   6    -0.00  -0.00   0.00     0.00  -0.00  -0.02    -0.00   0.03   0.06
     9   6     0.00  -0.00   0.01     0.01   0.02   0.05     0.01  -0.00  -0.01
    10   6     0.01  -0.01  -0.00     0.01  -0.01   0.03     0.02  -0.03  -0.07
    11   6     0.01  -0.01  -0.01    -0.01  -0.00  -0.02    -0.00  -0.05  -0.01
    12   6     0.01  -0.01  -0.01    -0.00  -0.01  -0.03     0.02  -0.03   0.05
    13   6     0.00  -0.01  -0.01    -0.02   0.00  -0.03     0.09  -0.07   0.05
    14   6    -0.00  -0.01  -0.01    -0.00  -0.01  -0.02     0.00   0.02   0.06
    15   6    -0.01   0.00   0.01    -0.01   0.02   0.05    -0.02  -0.00  -0.06
    16   6    -0.01   0.00   0.01     0.02   0.00  -0.02    -0.01   0.07  -0.07
    17   6    -0.01   0.01  -0.01     0.01  -0.00  -0.03    -0.01   0.04   0.03
    18   6    -0.02   0.04  -0.01    -0.00   0.03  -0.03     0.01  -0.03   0.03
    19   6     0.01  -0.00  -0.01    -0.01  -0.00  -0.02    -0.01  -0.00  -0.01
    20   8     0.00  -0.00   0.00    -0.04  -0.00   0.00    -0.05   0.02   0.00
    21   6     0.02   0.01  -0.00     0.00  -0.00   0.00     0.03   0.02  -0.00
    22   6     0.03   0.01   0.01     0.01   0.00   0.03     0.04   0.00  -0.02
    23   6     0.03  -0.01   0.00     0.02  -0.01  -0.00     0.02  -0.03   0.03
    24   1     0.31  -0.23   0.29    -0.16   0.11  -0.13    -0.12  -0.03  -0.09
    25   1    -0.33  -0.25  -0.14     0.17   0.12   0.11     0.01  -0.00   0.09
    26   1     0.11   0.39  -0.12    -0.05  -0.23   0.09    -0.11  -0.17   0.09
    27   1     0.01  -0.01  -0.04    -0.02  -0.01   0.05    -0.01  -0.00   0.04
    28   1     0.25   0.07  -0.17     0.32   0.04  -0.20     0.27   0.04  -0.16
    29   1    -0.18   0.29   0.08    -0.14   0.27   0.05    -0.09   0.21  -0.00
    30   1    -0.12  -0.25   0.07    -0.02  -0.28   0.12     0.03  -0.19   0.10
    31   1    -0.00   0.02  -0.02    -0.04  -0.01  -0.00    -0.02  -0.04   0.05
    32   1    -0.03  -0.05   0.03     0.01  -0.02   0.03    -0.06   0.07  -0.10
    33   1    -0.05   0.01   0.04    -0.01  -0.00   0.03    -0.04  -0.06  -0.11
    34   1    -0.05   0.02   0.02    -0.02   0.02   0.04    -0.05  -0.01  -0.15
    35   1    -0.03   0.00   0.02     0.01  -0.04   0.02    -0.09   0.15  -0.12
    36   1    -0.01   0.03  -0.00    -0.00   0.03  -0.04     0.03   0.01   0.05
    37   1    -0.01  -0.01   0.00    -0.02  -0.04  -0.02     0.01   0.07   0.06
    38   1     0.02  -0.00   0.03     0.01  -0.00   0.12     0.05   0.02  -0.03
    39   1    -0.00   0.02   0.02    -0.00   0.11   0.05    -0.04  -0.05  -0.00
    40   1     0.02  -0.02  -0.00     0.02  -0.05   0.03     0.06   0.02  -0.08
    41   1     0.01  -0.01  -0.00     0.01  -0.00   0.05     0.02  -0.06  -0.13
    42   1     0.01  -0.01  -0.01    -0.02   0.02  -0.02    -0.01  -0.11  -0.00
    43   1     0.01  -0.07  -0.01    -0.00  -0.16  -0.03     0.07   0.18   0.02
    44   1    -0.06   0.01  -0.00    -0.17   0.07  -0.01     0.34  -0.18   0.00
    45   1     0.05   0.03  -0.02     0.11   0.11  -0.05    -0.10  -0.24   0.11
    46   1    -0.01  -0.01  -0.01    -0.02  -0.05  -0.02     0.03   0.07   0.06
    47   1    -0.00   0.01   0.01    -0.06   0.12   0.06    -0.03  -0.12  -0.07
    48   1    -0.01  -0.00   0.01     0.01  -0.02   0.15    -0.03   0.04  -0.15
    49   1    -0.01   0.01   0.03    -0.00   0.00  -0.05    -0.03   0.04  -0.18
    50   1    -0.02  -0.02   0.02     0.07   0.01  -0.03     0.02   0.19  -0.08
    51   1     0.08   0.09  -0.02    -0.28  -0.09  -0.09     0.04  -0.03   0.07
    52   1    -0.03  -0.06  -0.01     0.01   0.33  -0.01     0.02  -0.08   0.01
    53   1    -0.10   0.10  -0.00     0.23  -0.14  -0.01    -0.01  -0.03  -0.00
    54   1     0.02   0.02  -0.01     0.00   0.02   0.01     0.03   0.03   0.02
    55   1     0.02  -0.00  -0.00     0.01  -0.03   0.00     0.06   0.03  -0.00
    56   1     0.04   0.00   0.03     0.03  -0.01   0.05     0.03   0.02  -0.05
    57   1     0.03   0.02   0.01     0.00   0.03   0.03     0.07  -0.02  -0.03
    58   1     0.04  -0.01   0.01     0.01  -0.01  -0.00     0.06  -0.04   0.06
    59   1     0.03  -0.03   0.00     0.04  -0.03  -0.01    -0.02  -0.05   0.04
                     16                     17                     18
                      A                      A                      A
 Frequencies --    266.6841               274.3485               287.3769
 Red. masses --      2.4081                 2.1918                 2.0243
 Frc consts  --      0.1009                 0.0972                 0.0985
 IR Inten    --      0.3446                 0.2395                 0.2364
  Atom  AN      X      Y      Z        X      Y      Z        X      Y      Z
     1   6    -0.06   0.00  -0.02    -0.02   0.07  -0.05    -0.07  -0.04   0.03
     2   6    -0.04  -0.01  -0.01    -0.02  -0.02  -0.01     0.00   0.02   0.05
     3   6    -0.05  -0.01  -0.01    -0.04   0.02  -0.01     0.07   0.03  -0.00
     4   6    -0.02  -0.01   0.00     0.01  -0.06   0.02    -0.01   0.03   0.04
     5   6    -0.01  -0.01   0.01    -0.06  -0.07   0.01     0.01   0.04  -0.05
     6   6    -0.02  -0.02   0.09    -0.08   0.00  -0.01     0.02   0.02  -0.04
     7   6    -0.01   0.01  -0.06    -0.01   0.04   0.00    -0.01  -0.01  -0.01
     8   6    -0.01  -0.02  -0.04     0.01   0.06   0.01    -0.01  -0.01  -0.03
     9   6     0.01  -0.01   0.02     0.02   0.06   0.02    -0.01  -0.03  -0.06
    10   6    -0.02  -0.04   0.07     0.02  -0.01  -0.02    -0.06  -0.01   0.10
    11   6    -0.01  -0.01  -0.00    -0.02  -0.03  -0.02    -0.02   0.04  -0.01
    12   6     0.02  -0.00   0.02     0.00  -0.03  -0.00     0.01   0.01  -0.03
    13   6     0.13   0.11   0.02    -0.01  -0.12  -0.01     0.14   0.03  -0.05
    14   6     0.01  -0.02   0.00     0.01   0.03   0.02    -0.00  -0.02   0.01
    15   6     0.01  -0.04  -0.03     0.03   0.04   0.04    -0.02  -0.01   0.02
    16   6     0.00  -0.01  -0.01     0.06   0.03  -0.02    -0.00   0.02  -0.04
    17   6     0.02   0.01  -0.04     0.04  -0.00   0.01    -0.01   0.01   0.01
    18   6     0.14   0.13  -0.03     0.14   0.00   0.02     0.01  -0.07   0.01
    19   6    -0.03  -0.01   0.01    -0.03  -0.01  -0.04    -0.02   0.00  -0.02
    20   8    -0.06   0.02  -0.00    -0.08  -0.00  -0.00    -0.01  -0.02   0.00
    21   6    -0.00  -0.01   0.04    -0.00   0.00  -0.02    -0.04  -0.02   0.00
    22   6    -0.00  -0.05  -0.08     0.03   0.01   0.06    -0.02  -0.00   0.09
    23   6    -0.02  -0.04   0.05     0.03  -0.03   0.00     0.01   0.01  -0.03
    24   1    -0.05  -0.01  -0.01     0.03   0.05   0.08     0.08  -0.18   0.10
    25   1    -0.07  -0.01  -0.04    -0.10   0.00  -0.17    -0.25  -0.15  -0.03
    26   1    -0.06   0.03  -0.02    -0.00   0.24  -0.09    -0.08   0.14   0.01
    27   1    -0.05  -0.01  -0.00    -0.08  -0.04   0.00     0.02   0.03   0.04
    28   1    -0.07  -0.01   0.01    -0.26   0.01   0.21     0.01   0.03   0.05
    29   1    -0.03  -0.03  -0.01     0.10  -0.21  -0.09     0.10  -0.05  -0.10
    30   1    -0.04   0.02  -0.03     0.01   0.30  -0.13     0.15   0.14  -0.00
    31   1    -0.04  -0.01  -0.00     0.03  -0.06   0.02    -0.02  -0.01   0.05
    32   1    -0.07  -0.00  -0.03    -0.05  -0.10   0.02    -0.02   0.11  -0.09
    33   1     0.05  -0.00  -0.02    -0.10  -0.09   0.02     0.06  -0.01  -0.10
    34   1    -0.03   0.09   0.21    -0.13   0.01  -0.02     0.05  -0.00  -0.05
    35   1    -0.02  -0.17   0.15    -0.10   0.03  -0.02     0.02   0.03  -0.05
    36   1    -0.03   0.07  -0.07     0.00   0.05   0.00    -0.02  -0.04  -0.01
    37   1    -0.04  -0.02  -0.04     0.01   0.06   0.01     0.01   0.01  -0.03
    38   1    -0.01  -0.02   0.04     0.06   0.06   0.08    -0.06  -0.02  -0.16
    39   1     0.05   0.04   0.02    -0.02   0.11   0.03     0.10  -0.12  -0.07
    40   1    -0.06  -0.13   0.09     0.06  -0.01  -0.03    -0.19  -0.14   0.13
    41   1     0.01  -0.01   0.17     0.05  -0.04  -0.04    -0.02   0.05   0.26
    42   1    -0.03   0.02  -0.00    -0.05  -0.05  -0.02    -0.04   0.12  -0.01
    43   1     0.14   0.29  -0.08     0.01  -0.29   0.01     0.19  -0.14  -0.16
    44   1     0.31   0.08   0.12    -0.15  -0.09  -0.07     0.01   0.11   0.03
    45   1     0.05   0.06   0.01     0.10  -0.07   0.04     0.34   0.15  -0.02
    46   1     0.05  -0.03   0.00    -0.01   0.02   0.02    -0.01  -0.05   0.01
    47   1     0.04  -0.09  -0.04    -0.02   0.08   0.05    -0.06   0.02   0.02
    48   1    -0.00  -0.02  -0.09     0.06   0.04   0.09    -0.02  -0.02   0.05
    49   1    -0.01   0.01   0.02     0.04   0.01  -0.09    -0.03   0.00  -0.12
    50   1    -0.01  -0.04  -0.01     0.12   0.08  -0.03     0.05   0.09  -0.05
    51   1     0.15   0.15  -0.08     0.06  -0.04   0.03    -0.05  -0.11   0.06
    52   1     0.19   0.20  -0.11     0.18   0.12  -0.05     0.01  -0.03   0.01
    53   1     0.19   0.15   0.11     0.25  -0.06   0.08     0.06  -0.12  -0.03
    54   1    -0.02  -0.01   0.11     0.01   0.04  -0.04    -0.03   0.01  -0.05
    55   1     0.09   0.05   0.04    -0.03  -0.05  -0.02    -0.11  -0.09  -0.00
    56   1    -0.05   0.01  -0.22     0.06  -0.02   0.14     0.03  -0.04   0.18
    57   1     0.07  -0.19  -0.12     0.00   0.09   0.08    -0.08   0.09   0.11
    58   1     0.01  -0.01   0.14     0.03  -0.04  -0.01    -0.05   0.01  -0.09
    59   1    -0.12  -0.10   0.07     0.07  -0.03  -0.01     0.10   0.04  -0.05
                     19                     20                     21
                      A                      A                      A
 Frequencies --    291.1357               297.0128               305.5970
 Red. masses --      1.3302                 1.8251                 2.5340
 Frc consts  --      0.0664                 0.0949                 0.1394
 IR Inten    --      0.1230                 0.5338                 0.7165
  Atom  AN      X      Y      Z        X      Y      Z        X      Y      Z
     1   6     0.04   0.01  -0.01     0.10   0.05  -0.03     0.15   0.09  -0.01
     2   6     0.00  -0.01  -0.02     0.00  -0.00  -0.06     0.04  -0.02  -0.02
     3   6    -0.03  -0.02  -0.00    -0.04  -0.03  -0.03     0.04   0.01  -0.02
     4   6    -0.00  -0.00  -0.03    -0.00   0.00  -0.02     0.01  -0.02  -0.01
     5   6    -0.02  -0.01   0.01    -0.02  -0.00   0.02    -0.08  -0.04   0.02
     6   6    -0.02   0.00   0.04    -0.02   0.00  -0.01    -0.11   0.03  -0.02
     7   6    -0.01   0.02  -0.00    -0.02  -0.01   0.04    -0.05   0.04   0.04
     8   6    -0.01   0.01   0.01    -0.02  -0.02   0.05    -0.02   0.03  -0.03
     9   6    -0.01  -0.00  -0.03    -0.05  -0.04  -0.01     0.04  -0.02  -0.05
    10   6    -0.02   0.01   0.01    -0.04   0.02  -0.02    -0.00  -0.09   0.10
    11   6    -0.01   0.01   0.00     0.00   0.03   0.02     0.01  -0.03  -0.02
    12   6     0.01   0.00  -0.00     0.01   0.01   0.01     0.00  -0.02  -0.04
    13   6     0.08  -0.05  -0.01     0.09  -0.03   0.00     0.01   0.08  -0.04
    14   6    -0.00   0.00   0.02    -0.01  -0.01   0.02    -0.02   0.02  -0.04
    15   6     0.00  -0.00   0.01    -0.02  -0.05  -0.09    -0.01   0.03  -0.02
    16   6     0.00  -0.00   0.01    -0.05   0.00   0.01    -0.01   0.03   0.03
    17   6     0.00   0.01  -0.02    -0.03   0.00   0.03    -0.02   0.02   0.05
    18   6     0.02   0.04  -0.03     0.01   0.05   0.04    -0.08  -0.07   0.05
    19   6    -0.01   0.00  -0.01     0.02   0.01   0.01     0.00  -0.01  -0.01
    20   8    -0.00  -0.02   0.00     0.06  -0.02   0.01    -0.04   0.02  -0.00
    21   6    -0.03  -0.01  -0.01    -0.02  -0.01  -0.01     0.05   0.01   0.01
    22   6    -0.01   0.01   0.07    -0.01   0.01   0.05     0.05  -0.02  -0.04
    23   6     0.01   0.01  -0.02     0.00   0.02  -0.02     0.02  -0.06   0.04
    24   1    -0.13   0.15  -0.15     0.07   0.10   0.05     0.04   0.21   0.02
    25   1     0.26   0.15   0.09     0.13   0.07  -0.01     0.29   0.16   0.01
    26   1     0.03  -0.24   0.04     0.17   0.04  -0.08     0.20  -0.01  -0.03
    27   1    -0.00  -0.01  -0.02     0.00  -0.00  -0.05     0.02  -0.03  -0.02
    28   1     0.05  -0.02  -0.08    -0.03  -0.05  -0.07    -0.00   0.01   0.04
    29   1    -0.08   0.07   0.06    -0.05   0.00   0.04     0.07  -0.05  -0.06
    30   1    -0.08  -0.14   0.03    -0.08  -0.10  -0.02     0.07   0.09  -0.05
    31   1    -0.00   0.01  -0.03     0.04   0.03  -0.02     0.06  -0.00  -0.00
    32   1    -0.02  -0.04   0.02     0.02  -0.04   0.06    -0.05  -0.10   0.06
    33   1    -0.01   0.02   0.02    -0.07   0.02   0.06    -0.16  -0.05   0.06
    34   1    -0.03   0.04   0.08    -0.02  -0.04  -0.05    -0.14  -0.01  -0.08
    35   1    -0.03  -0.04   0.06    -0.02   0.06  -0.03    -0.13   0.11  -0.05
    36   1    -0.00   0.05  -0.01     0.01  -0.02   0.05    -0.08   0.02   0.04
    37   1    -0.01   0.03   0.01     0.01  -0.00   0.05     0.02   0.04  -0.03
    38   1    -0.02   0.01  -0.08    -0.06  -0.02  -0.06     0.05   0.02  -0.14
    39   1     0.01  -0.05  -0.03    -0.06  -0.11  -0.01     0.14  -0.08  -0.05
    40   1    -0.05  -0.00   0.01    -0.03   0.08  -0.03    -0.13  -0.26   0.14
    41   1    -0.01   0.02   0.03    -0.07   0.03  -0.07     0.07  -0.03   0.30
    42   1    -0.02   0.02   0.00     0.02   0.01   0.02     0.01   0.03  -0.03
    43   1     0.10  -0.18  -0.06     0.11  -0.04  -0.06     0.01   0.11  -0.06
    44   1    -0.01  -0.02  -0.02     0.11  -0.04   0.00     0.02   0.11   0.04
    45   1     0.19   0.00   0.04     0.13  -0.04   0.06     0.01   0.11  -0.09
    46   1    -0.01   0.00   0.02     0.01   0.06   0.02    -0.03   0.02  -0.04
    47   1     0.01  -0.03   0.01     0.04  -0.20  -0.10     0.03   0.04  -0.02
    48   1     0.00   0.01  -0.01    -0.05  -0.00  -0.24    -0.02   0.02  -0.02
    49   1    -0.00   0.01   0.02    -0.04   0.01   0.03    -0.00   0.03   0.05
    50   1     0.01  -0.03   0.01    -0.12   0.01   0.01    -0.04   0.03   0.03
    51   1     0.40   0.21   0.00    -0.33  -0.09  -0.01    -0.07  -0.08   0.10
    52   1    -0.01  -0.36  -0.05     0.08   0.47  -0.00    -0.10  -0.14   0.07
    53   1    -0.30   0.28  -0.03     0.35  -0.16   0.14    -0.12  -0.08  -0.04
    54   1    -0.01   0.01  -0.06    -0.00  -0.00  -0.06     0.03   0.01   0.07
    55   1    -0.08  -0.06  -0.01    -0.07  -0.03  -0.01     0.11   0.03   0.01
    56   1     0.03  -0.02   0.15     0.01  -0.01   0.10     0.04   0.01  -0.11
    57   1    -0.05   0.09   0.09    -0.04   0.06   0.06     0.10  -0.08  -0.06
    58   1    -0.02   0.00  -0.07    -0.03   0.02  -0.07     0.08  -0.04   0.16
    59   1     0.07   0.04  -0.03     0.06   0.07  -0.03    -0.04  -0.18   0.05
                     22                     23                     24
                      A                      A                      A
 Frequencies --    319.5166               328.3461               352.9202
 Red. masses --      2.9238                 2.5362                 2.4534
 Frc consts  --      0.1759                 0.1611                 0.1800
 IR Inten    --      0.5742                 0.8828                 0.2901
  Atom  AN      X      Y      Z        X      Y      Z        X      Y      Z
     1   6     0.04   0.03   0.03     0.01   0.04   0.05    -0.04  -0.00  -0.03
     2   6     0.00   0.00   0.01     0.05  -0.02   0.09     0.03  -0.03   0.02
     3   6     0.08   0.02  -0.04     0.17   0.09   0.02    -0.02   0.03   0.05
     4   6    -0.03   0.01   0.02     0.01  -0.05   0.00     0.04  -0.05  -0.01
     5   6    -0.07   0.00  -0.02    -0.04  -0.07   0.03     0.02  -0.06   0.02
     6   6    -0.07   0.01  -0.00    -0.06  -0.04   0.03     0.00  -0.00   0.01
     7   6    -0.05   0.01  -0.02    -0.02  -0.01  -0.05     0.04   0.02   0.05
     8   6    -0.06  -0.06   0.04    -0.03  -0.02  -0.02     0.03   0.00   0.09
     9   6    -0.04  -0.08   0.06    -0.06   0.01   0.02     0.08  -0.09  -0.03
    10   6    -0.00  -0.02  -0.02    -0.03   0.03  -0.05     0.05  -0.05   0.04
    11   6     0.03  -0.00  -0.01    -0.00   0.01   0.02    -0.00  -0.03  -0.01
    12   6    -0.02   0.00  -0.00     0.01  -0.00   0.02    -0.01   0.01   0.02
    13   6    -0.07   0.09  -0.00     0.06  -0.06   0.02    -0.06   0.07   0.03
    14   6    -0.07  -0.08   0.06     0.01  -0.00  -0.01    -0.00  -0.00   0.06
    15   6    -0.10  -0.07   0.11     0.02  -0.01  -0.05     0.02  -0.06  -0.05
    16   6    -0.05   0.01  -0.07     0.01  -0.02  -0.03     0.04   0.02  -0.05
    17   6    -0.02   0.01  -0.03     0.00  -0.01  -0.06     0.04  -0.00  -0.00
    18   6     0.14   0.00  -0.01    -0.14   0.11  -0.08    -0.08   0.11  -0.02
    19   6     0.07  -0.01  -0.00     0.01   0.01   0.02    -0.02  -0.02  -0.05
    20   8     0.10  -0.04   0.01     0.04  -0.01   0.00    -0.09  -0.01  -0.01
    21   6     0.09   0.01  -0.01    -0.02  -0.00   0.01     0.03  -0.00  -0.02
    22   6     0.03   0.04  -0.02     0.00  -0.02   0.01    -0.03   0.04   0.01
    23   6     0.03   0.07  -0.07     0.00  -0.01   0.02    -0.01   0.08  -0.08
    24   1     0.01   0.07   0.06     0.02   0.04   0.07    -0.05  -0.01  -0.08
    25   1     0.08   0.06   0.05    -0.00   0.01  -0.03    -0.04  -0.02  -0.11
    26   1     0.09  -0.00   0.00    -0.03   0.12   0.06    -0.13   0.04   0.02
    27   1    -0.00   0.00   0.02     0.01  -0.03   0.11    -0.01  -0.04   0.03
    28   1     0.04   0.01  -0.00     0.09   0.12   0.20    -0.01   0.05   0.13
    29   1     0.10  -0.06  -0.15     0.21  -0.07  -0.22    -0.02   0.04   0.07
    30   1     0.18   0.11  -0.03     0.32   0.35  -0.03    -0.08   0.06  -0.00
    31   1    -0.02   0.01   0.02    -0.05  -0.04  -0.01     0.03  -0.06  -0.01
    32   1    -0.09   0.03  -0.05    -0.05  -0.10   0.03     0.03  -0.11   0.04
    33   1    -0.05  -0.03  -0.05    -0.06  -0.07   0.03    -0.02  -0.05   0.04
    34   1    -0.07   0.02   0.01    -0.10   0.02   0.08    -0.02  -0.03  -0.03
    35   1    -0.09   0.00   0.00    -0.05  -0.10   0.06    -0.02   0.06  -0.01
    36   1    -0.02   0.04  -0.02    -0.02   0.03  -0.05     0.09   0.03   0.05
    37   1    -0.11  -0.06   0.04    -0.06  -0.05  -0.02     0.04   0.06   0.08
    38   1    -0.03  -0.09   0.07    -0.05  -0.01   0.10     0.06  -0.02  -0.24
    39   1    -0.08  -0.08   0.06    -0.12   0.08   0.03     0.16  -0.28  -0.04
    40   1     0.07   0.04  -0.04     0.02   0.10  -0.06     0.01  -0.10   0.05
    41   1    -0.09  -0.00  -0.10    -0.07   0.01  -0.13     0.07  -0.03   0.10
    42   1     0.04  -0.01  -0.01     0.02  -0.02   0.02    -0.06  -0.02  -0.00
    43   1    -0.09   0.16   0.05     0.07  -0.05  -0.02    -0.08   0.06   0.08
    44   1    -0.06   0.11   0.05     0.10  -0.09  -0.02    -0.12   0.12   0.07
    45   1    -0.13   0.11  -0.09     0.06  -0.09   0.08    -0.07   0.13  -0.06
    46   1    -0.13  -0.12   0.06     0.05   0.01  -0.01    -0.02   0.06   0.06
    47   1    -0.21  -0.01   0.12     0.01  -0.02  -0.04     0.01  -0.20  -0.06
    48   1    -0.09  -0.11   0.20     0.02  -0.00  -0.06     0.02  -0.00  -0.17
    49   1    -0.15   0.01  -0.20     0.02  -0.02  -0.02     0.00  -0.01  -0.16
    50   1     0.08   0.10  -0.08    -0.00  -0.03  -0.03     0.07   0.13  -0.06
    51   1     0.27   0.05   0.05    -0.15   0.16  -0.23    -0.12   0.14  -0.16
    52   1     0.18  -0.09  -0.12    -0.20   0.12   0.05    -0.12   0.17   0.08
    53   1     0.10   0.06   0.06    -0.21   0.17  -0.08    -0.10   0.14   0.01
    54   1     0.07  -0.00   0.06    -0.01  -0.00  -0.03     0.01  -0.00   0.03
    55   1     0.15   0.01  -0.01    -0.05   0.00   0.01     0.08  -0.05  -0.03
    56   1     0.02   0.02   0.02    -0.00  -0.00  -0.02    -0.02  -0.01   0.10
    57   1    -0.02   0.06  -0.00     0.02  -0.03  -0.00    -0.11   0.11   0.04
    58   1     0.02   0.02  -0.20     0.00  -0.00   0.05    -0.04   0.02  -0.26
    59   1     0.09   0.19  -0.08    -0.01  -0.03   0.03     0.06   0.25  -0.10
                     25                     26                     27
                      A                      A                      A
 Frequencies --    373.3107               389.6673               413.3655
 Red. masses --      2.3805                 3.3822                 2.5416
 Frc consts  --      0.1955                 0.3026                 0.2559
 IR Inten    --      1.3954                 0.7011                 0.4871
  Atom  AN      X      Y      Z        X      Y      Z        X      Y      Z
     1   6     0.00   0.01   0.04    -0.02   0.00  -0.01    -0.06  -0.02  -0.04
     2   6    -0.01   0.02   0.02     0.01  -0.02   0.02     0.06   0.03   0.02
     3   6     0.05   0.00  -0.02     0.01   0.02   0.02     0.02   0.03   0.08
     4   6    -0.03   0.02  -0.01     0.01  -0.02  -0.01     0.03   0.04  -0.05
     5   6    -0.03   0.02  -0.00    -0.02  -0.03  -0.00    -0.02   0.04  -0.01
     6   6    -0.02  -0.02   0.01    -0.03   0.01  -0.00    -0.04   0.08  -0.00
     7   6    -0.00   0.00  -0.08     0.03   0.03  -0.00    -0.01   0.07   0.01
     8   6    -0.01   0.06  -0.03     0.03  -0.00   0.04    -0.06   0.01   0.11
     9   6     0.08   0.05  -0.01     0.14  -0.05   0.03    -0.08  -0.06  -0.00
    10   6     0.08  -0.01   0.00     0.14  -0.05  -0.03    -0.09  -0.02   0.01
    11   6    -0.01  -0.04   0.01     0.08  -0.04  -0.00    -0.00   0.02  -0.04
    12   6    -0.01   0.01   0.07    -0.05  -0.03  -0.08     0.00   0.02  -0.05
    13   6     0.04  -0.01   0.08     0.05   0.00  -0.10    -0.05  -0.03  -0.05
    14   6    -0.02   0.03   0.04    -0.06  -0.03  -0.00    -0.02   0.03   0.05
    15   6    -0.03  -0.02  -0.03    -0.06  -0.05   0.02     0.09  -0.05   0.01
    16   6    -0.09  -0.10   0.10    -0.06  -0.04   0.02     0.06  -0.05   0.09
    17   6    -0.02  -0.01  -0.05     0.01   0.00  -0.04     0.04   0.02  -0.08
    18   6     0.01  -0.08  -0.06     0.02  -0.02  -0.04     0.05  -0.03  -0.10
    19   6    -0.01  -0.03  -0.06     0.06   0.07   0.10     0.01   0.01  -0.02
    20   8    -0.07  -0.02  -0.01     0.04   0.14   0.05     0.04  -0.03   0.00
    21   6     0.06  -0.01  -0.02    -0.10   0.07  -0.02     0.03  -0.00   0.02
    22   6     0.00   0.04   0.01    -0.13   0.09   0.03     0.02  -0.00  -0.01
    23   6     0.01   0.08  -0.03    -0.12  -0.08   0.01     0.01  -0.03   0.03
    24   1     0.03  -0.01   0.06    -0.03   0.00  -0.04    -0.06  -0.07  -0.17
    25   1    -0.02   0.00   0.08    -0.02  -0.00  -0.05    -0.09  -0.04  -0.08
    26   1     0.04  -0.00   0.02    -0.06   0.02   0.02    -0.19  -0.02   0.05
    27   1    -0.00   0.03   0.02     0.00  -0.02   0.03     0.08   0.04   0.03
    28   1     0.03  -0.01  -0.04     0.02   0.03   0.06     0.02   0.04   0.10
    29   1     0.06  -0.04  -0.10     0.01   0.02   0.01     0.01   0.06   0.14
    30   1     0.13   0.04   0.01    -0.00   0.04   0.00    -0.06   0.01   0.04
    31   1    -0.06   0.04  -0.02    -0.01  -0.02  -0.02    -0.02   0.05  -0.06
    32   1    -0.03   0.03  -0.00    -0.01  -0.06   0.01    -0.02  -0.02   0.00
    33   1    -0.01   0.03  -0.00    -0.04  -0.03   0.01    -0.05   0.04   0.01
    34   1    -0.02   0.05   0.08    -0.05   0.02  -0.01    -0.05   0.06  -0.03
    35   1     0.00  -0.12   0.05    -0.05   0.02  -0.01    -0.06   0.11  -0.02
    36   1    -0.00   0.01  -0.08     0.06   0.06  -0.00     0.08   0.13   0.01
    37   1    -0.06   0.10  -0.03     0.03  -0.02   0.04    -0.07   0.05   0.10
    38   1     0.12   0.07   0.00     0.17  -0.02  -0.01    -0.08  -0.01  -0.13
    39   1     0.11   0.08  -0.01     0.13  -0.09   0.03    -0.09  -0.21  -0.01
    40   1     0.10  -0.01   0.00     0.23   0.01  -0.04    -0.14  -0.09   0.02
    41   1     0.12  -0.04  -0.01     0.12  -0.08  -0.12    -0.12   0.04   0.08
    42   1    -0.08  -0.08   0.02     0.21  -0.00  -0.02     0.01   0.04  -0.05
    43   1     0.06  -0.05   0.04     0.07   0.04  -0.18    -0.06  -0.06   0.00
    44   1     0.01   0.01   0.09     0.11   0.00  -0.04    -0.08  -0.04  -0.12
    45   1     0.09   0.02   0.10     0.08   0.00  -0.08    -0.06  -0.05  -0.04
    46   1     0.03   0.04   0.04    -0.12  -0.02  -0.00    -0.10   0.09   0.05
    47   1     0.06  -0.14  -0.05    -0.05  -0.04   0.02     0.18  -0.17  -0.01
    48   1    -0.02   0.04  -0.16    -0.06  -0.04   0.02     0.09   0.02  -0.13
    49   1    -0.04   0.00   0.40    -0.09   0.02   0.10     0.06   0.04   0.30
    50   1    -0.24  -0.37   0.12    -0.07  -0.13   0.03    -0.01  -0.28   0.11
    51   1    -0.06  -0.15   0.03    -0.00  -0.05  -0.01    -0.04  -0.10  -0.04
    52   1     0.03  -0.04  -0.09     0.03  -0.01  -0.05     0.06   0.02  -0.12
    53   1     0.09  -0.16  -0.11     0.05  -0.05  -0.06     0.13  -0.11  -0.14
    54   1     0.04   0.01   0.06    -0.03  -0.09  -0.24     0.01   0.01   0.11
    55   1     0.14  -0.05  -0.02    -0.32   0.15  -0.01     0.13  -0.01   0.01
    56   1    -0.02  -0.00   0.07    -0.03   0.07   0.13     0.02   0.00  -0.02
    57   1    -0.04   0.08   0.03    -0.16   0.19   0.05     0.04  -0.02  -0.01
    58   1    -0.01   0.02  -0.20    -0.05  -0.04   0.19     0.05   0.00   0.17
    59   1     0.06   0.25  -0.04    -0.18  -0.25   0.02    -0.05  -0.18   0.04
                     28                     29                     30
                      A                      A                      A
 Frequencies --    419.1433               430.0325               447.5441
 Red. masses --      2.4074                 2.6195                 3.2420
 Frc consts  --      0.2492                 0.2854                 0.3826
 IR Inten    --      0.6275                 0.4357                 0.4358
  Atom  AN      X      Y      Z        X      Y      Z        X      Y      Z
     1   6     0.02   0.01   0.12     0.00   0.01   0.09    -0.02   0.01   0.07
     2   6    -0.11   0.05  -0.01    -0.08   0.06  -0.01    -0.06   0.02   0.01
[...]
 00088,0.00000032,0.00000140,0.00000190,0.00000189,0.00000127,0.0000003
 3,0.00000168,0.00000093,-0.00000054,0.00000115,-0.00000453,-0.00000301
 ,-0.00000179,0.00000247,-0.00000015,-0.00000112,0.00000284,0.00000131,
 -0.00000481,0.00000014,-0.00000554,-0.00000263,-0.00000126,-0.00000479
 ,0.00000303,0.00000096,-0.00000261,0.00000342,0.00000267,-0.00000254,-
 0.00000215,0.00000584,0.00000612,-0.00001039,0.00004501,-0.00004237,-0
 .00002469,0.00001657,-0.00000054,0.00000775,-0.00000210,0.00000447,-0.
 00000344,0.00001151,-0.00000057,-0.00000789,0.00002664,-0.00002698,0.0
 0000665,-0.00012481,0.00000576,-0.00003895,0.00020769,0.00111498,0.000
 22842,-0.00013254,-0.00017024,-0.00013642,0.00011030,0.00013041,-0.000
 21290,0.00007174,0.00005944,-0.00014454,0.00001285,-0.00003994,-0.0000
 5309,0.00004925,-0.00000380,0.00006665,-0.00001457,-0.00001542,-0.0000
 1009,0.00001164,0.00001013,-0.00000739,0.00000444,-0.00000560,-0.00000
 228,-0.00000314,0.00000179,0.00000831,-0.00000577,-0.00000184,-0.00000
 462,0.00126951,-0.00004817,0.00081861,-0.00278987,0.00064274,-0.004475
 64,-0.01007387,-0.00278218,0.01852883,0.11691626,-0.00000090,-0.000000
 08,0.00000150,-0.00000180,0.00000044,-0.00000122,-0.00000084,0.0000011
 8,0.00000193,0.00000579,-0.00000292,0.00000101,-0.00000308,-0.00000111
 ,0.00000210,0.00000453,-0.00000119,0.00000592,-0.00000357,0.00000472,-
 0.00002177,0.00008027,0.00001737,-0.00009237,-0.00000991,-0.00002205,0
 .00000213,-0.00000657,0.00002368,0.00005425,0.00014019,-0.00020325,-0.
 00004305,-0.00023373,0.00129200,0.00089220,-0.00002140,-0.00084142,-0.
 00012274,-0.00015360,-0.00018211,-0.00004124,-0.00004247,0.00010482,0.
 00002368,0.00002735,-0.00002140,-0.00001050,-0.00001627,0.00000339,-0.
 00000300,-0.00000707,-0.00001897,0.00000811,-0.00044703,-0.00022832,0.
 00077641,0.00005146,0.00007912,-0.00021207,-0.00017156,-0.00024754,-0.
 00053422,-0.01314082,-0.05537586,0.02891455,-0.01492876,-0.00396398,0.
 02598197,0.00000102,0.00000038,0.00000064,0.00000013,-0.00000021,-0.00
 000058,0.00000157,-0.00000087,-0.00000212,0.00000024,0.00000004,0.0000
 0152,0.00000004,-0.00000034,-0.00000019,0.00000108,0.00000068,0.000000
 20,0.00000084,-0.00000083,-0.00000145,0.00000251,0.00000177,-0.0000036
 7,0.00000137,0.,0.00000030,0.00000195,0.00000108,-0.00000086,0.0000001
 8,-0.00000148,0.00000065,0.00000174,-0.00000185,-0.00000114,0.00000849
 ,0.00001254,-0.00001002,0.00004743,-0.00009862,-0.00002106,0.00000457,
 0.00000341,0.00000320,0.00000679,0.00001049,-0.00001710,0.00005754,-0.
 00003803,-0.00000970,0.00002266,-0.00002029,-0.00000735,-0.00003289,0.
 00009563,-0.00021049,0.00116042,-0.00117254,-0.00048863,-0.00010290,-0
 .00014670,-0.00018337,0.00014076,0.00030224,-0.00013283,0.00019693,0.0
 0014449,-0.00023168,-0.00000384,-0.00005398,-0.00007851,0.00006159,-0.
 00001235,0.00007403,0.00000175,0.00000062,0.00000057,0.00001569,0.0000
 1817,-0.00001237,0.00000236,-0.00000036,-0.00000289,0.00000089,0.00000
 313,-0.00000393,0.00000243,0.00000239,0.00000080,0.00028698,0.00031609
 ,-0.00039211,-0.00040552,0.00098923,-0.00030734,0.01199951,0.00386989,
 -0.02323126,0.01789858,0.05889912,0.00000217,0.00000060,-0.00000115,-0
 .00000047,-0.00000053,-0.00000372,0.00000052,0.00000003,0.00000062,-0.
 00000264,0.00000423,0.00000427,-0.00000113,0.00000095,-0.00000181,0.00
 000954,0.00000318,-0.00000493,-0.00001652,0.00002131,0.00002484,0.0000
 7967,-0.00002731,-0.00008731,-0.00006033,0.00002113,-0.00000077,0.0001
 2766,0.00000139,-0.00004269,0.00000458,0.00031992,-0.00017593,0.000507
 96,-0.00006820,-0.00054563,0.00131322,-0.00050508,0.00008029,-0.000075
 20,0.00012463,0.00008545,0.00004828,0.00000240,-0.00005904,-0.00001462
 ,0.00000822,0.00002198,0.00000906,0.00000120,-0.00001023,0.00000908,0.
 00001134,-0.00000290,0.00205177,-0.00182481,-0.00043257,-0.00125940,0.
 00039007,0.00031901,0.00885198,0.00312304,-0.02233619,0.10541319,0.029
 39890,-0.24566738,-0.00074647,0.00055651,0.00180237,0.00000129,0.00000
 104,0.00000133,-0.00000057,-0.00000066,0.00000038,-0.00000179,-0.00000
 013,0.00000026,0.00000084,-0.00000071,0.00000048,-0.00000026,-0.000000
 77,-0.00000003,0.00000165,0.00000103,0.00000073,-0.00000136,0.00000075
 ,0.00000064,-0.00000234,-0.00000123,0.00000318,0.00000061,0.00000345,0
 .00000165,0.00000054,0.00000063,0.00000017,-0.00000010,-0.00000278,0.0
 0000490,-0.00000215,0.00000125,-0.00000003,-0.00001186,-0.00000641,0.0
 0000781,-0.00003608,0.00001709,0.00005723,0.00001001,0.00003215,0.0000
 0179,-0.00000406,-0.00000845,0.00001546,-0.00005218,0.00005218,0.00001
 900,-0.00000252,-0.00000266,0.00002526,-0.00008438,-0.00004052,0.00014
 481,-0.00060984,-0.00101287,0.00001168,-0.00004659,0.00010822,-0.00005
 467,-0.00040218,-0.00036162,0.00008320,-0.00005870,-0.00001817,0.00004
 704,0.00000172,0.00001861,0.00004488,-0.00003647,0.00000724,-0.0000044
 0,0.00000834,0.00000534,0.00000264,-0.00000705,-0.00000684,0.00000405,
 -0.00000196,-0.00000001,0.00000024,-0.00000140,-0.00000173,-0.00000061
 ,0.00000115,0.00000002,0.00000338,0.00008483,-0.00040011,0.00100945,-0
 .00403358,0.00045044,-0.00269377,0.00233306,-0.00030490,-0.00345459,-0
 .11318335,-0.02985467,0.26932795,0.00000218,0.00000162,-0.00000005,0.0
 0000335,0.00000737,-0.00000446,0.00000104,0.00000157,0.00000076,0.0000
 5424,-0.00001110,0.00001705,-0.00002186,-0.00001837,0.00000580,0.00002
 164,0.00001447,-0.00000258,-0.00004877,-0.00001639,0.00002042,0.000054
 11,0.00003141,-0.00007138,-0.00011558,-0.00015934,0.00005469,-0.000350
 12,-0.00061085,-0.00122185,-0.00173046,0.00333051,0.00142109,-0.012486
 30,0.00118707,-0.01497855,0.00028489,-0.00066564,-0.00146707,-0.000232
 16,-0.00058336,0.00016595,-0.00060164,-0.00094437,-0.00014879,0.000316
 57,-0.00010632,0.00013599,-0.00010084,-0.00004887,-0.00000926,0.000030
 08,-0.00000227,0.00001192,0.00118021,0.00013885,0.00024935,-0.00053387
 ,0.00001362,0.00008944,-0.00102034,-0.00345087,0.00105112,-0.01207593,
 -0.00038853,-0.01454197,-0.14669771,0.00612068,-0.12459486,0.00000052,
 0.00000004,0.00000039,0.00000006,-0.00000476,0.00000169,-0.00000229,0.
 00000218,0.00000070,0.00000736,-0.00000140,0.00000704,-0.00000024,-0.0
 0000336,0.00000199,-0.00000008,-0.00000007,-0.00000031,0.00000033,0.00
 000064,-0.00000109,-0.00000139,0.00000073,-0.00000011,0.00000762,0.000
 00311,0.00000313,0.00000901,-0.00000599,0.00000599,0.00000239,-0.00001
 373,0.00001816,0.00000108,-0.00000389,-0.00000596,-0.00000687,0.000001
 76,0.00000120,-0.00001822,0.00001155,0.00002074,0.00004071,0.00006965,
 0.00001015,0.00002553,0.00001138,-0.00001043,-0.00002979,-0.00000674,0
 .00005107,-0.00027228,0.00041684,-0.00003735,0.00033595,-0.00001224,-0
 .00012472,-0.00003128,0.00007239,0.00003678,-0.00000989,0.00020877,0.0
 0107874,0.00041531,-0.00010271,0.00023981,0.00002612,0.00000431,0.0000
 3830,-0.00002934,0.00022745,0.00008910,0.00023079,-0.00178195,-0.00022
 264,0.00002944,0.00003069,-0.00000544,-0.00003677,-0.00004007,0.000032
 66,0.00000266,-0.00001682,-0.00000507,-0.00002209,0.00000289,-0.000004
 60,0.00000496,0.00000877,0.00000924,-0.00059078,0.00005917,-0.00093263
 ,0.00010117,-0.00002723,-0.00017805,0.00070236,-0.00003707,0.00022519,
 0.00025277,0.00068448,0.00021082,0.16022205,0.00000177,-0.00000085,-0.
 00000257,-0.00000935,-0.00001183,-0.00000520,-0.00000143,-0.00000018,0
 .00000466,-0.00009247,0.00001973,-0.00000028,0.00002948,0.00002783,-0.
 00001088,-0.00000306,-0.00000597,-0.00000778,-0.00000164,0.00004906,0.
 00000602,0.00002416,-0.00009181,-0.00015245,0.00002082,0.00031610,-0.0
 0003796,0.00104157,0.00084793,0.00140877,0.00308477,-0.00459639,-0.001
 00832,0.01631958,-0.00042594,0.02155713,-0.00064434,0.00079116,0.00109
 981,0.00018944,0.00121932,0.00056552,-0.00004063,-0.00140106,-0.000137
 32,-0.00038528,0.00005291,-0.00004718,0.00020372,0.00000041,0.00001708
 ,-0.00004843,0.00002265,-0.00002179,-0.00003746,-0.00217702,0.00007170
 ,0.00006743,0.00079506,0.00000577,-0.00299634,-0.00485224,0.00127960,-
 0.01879477,-0.00019715,-0.02399703,0.00578753,-0.04673008,0.00569580,0
 .00000340,0.00000363,0.00000365,-0.00000159,0.00000625,-0.00000148,0.0
 0000080,-0.00000475,-0.00000334,-0.00001083,-0.00000059,-0.00001098,-0
 .00000019,0.00000434,-0.00000346,0.00000613,0.00000406,0.00000192,-0.0
 0000273,-0.00000160,0.00000192,0.00000041,-0.00000398,0.00000393,-0.00
 000898,0.00000211,-0.00000130,-0.00001179,0.00001255,-0.00001105,-0.00
 000668,0.00002066,-0.00002171,-0.00000435,0.00000496,0.00000839,0.0000
 0799,-0.00000504,-0.00000029,0.00000540,0.00000724,0.00000006,-0.00006
 222,-0.00004734,-0.00004307,-0.00003325,-0.00000745,0.00000181,0.00002
 970,-0.00004166,-0.00006873,0.00035711,-0.00059262,0.00012163,-0.00031
 955,-0.00007594,-0.00033520,-0.00002247,-0.00003074,-0.00010520,0.0000
 3567,0.00019083,-0.00065264,-0.00030863,-0.00002269,0.00002218,-0.0000
 1317,-0.00012641,-0.00003084,-0.00004434,-0.00000843,-0.00009932,-0.00
 161654,-0.00202161,-0.00038741,0.00001188,-0.00000013,0.00001495,0.000
 04890,0.00003634,-0.00003728,-0.00000818,0.00003084,0.00001168,0.00003
 582,-0.00000802,-0.00000844,0.00000106,-0.00000862,-0.00000762,-0.0013
 5186,0.00013631,-0.00126628,0.00036988,0.00001232,0.00016226,0.0008086
 9,0.00085251,-0.00021503,0.00046849,0.00128838,0.00044545,-0.00313320,
 0.05715967,-0.00000064,0.00000151,0.00000390,0.00000294,0.00001397,-0.
 00000027,0.,0.00000235,-0.00000097,0.00010377,-0.00003059,0.00000313,-
 0.00003649,-0.00002200,0.00001182,0.00003571,0.00001557,0.00001626,-0.
 00009643,0.00000981,-0.00004226,0.00019600,0.00015181,0.00011285,-0.00
 002485,-0.00012868,-0.00003300,-0.00009501,-0.00037086,0.00028736,0.00
 034072,0.00054198,0.00057076,0.00185051,0.00039527,0.00029372,0.000863
 31,-0.00016498,0.00072984,-0.00079167,-0.00000926,-0.00036683,-0.00153
 703,-0.00012877,0.00004924,0.00061109,-0.00029165,0.00004926,-0.000247
 00,-0.00006343,-0.00001223,0.00002850,-0.00003172,0.00003696,0.0004755
 9,0.00011777,-0.00000716,-0.00017749,-0.00003733,0.00000999,0.00027066
 ,-0.00058137,0.00131185,0.00095766,0.00033670,-0.00011203,-0.12507931,
 0.00656661,-0.21157639,-0.00000106,-0.00000148,-0.00000154,0.00000159,
 -0.00000771,0.00000157,0.00000004,0.00000354,0.00000031,0.00001142,-0.
 00000200,0.00001421,0.00000105,-0.00000655,0.00000360,-0.00000330,-0.0
 0000123,-0.00000077,0.00000238,0.00000079,-0.00000504,-0.00000108,0.00
 000529,-0.00000441,0.00001116,0.00000120,0.00000270,0.00001730,-0.0000
 1076,0.00001176,0.00000865,-0.00001838,0.00001905,0.00000440,-0.000004
 75,-0.00000660,-0.00000779,0.00000353,0.00000057,-0.00002595,0.0000131
 3,-0.00000140,0.00002372,0.00004336,0.00002899,0.00001693,-0.00001179,
 0.00001062,-0.00012383,0.00016072,-0.00001412,-0.00002654,0.00003955,0
 .00004845,0.00002406,-0.00007583,0.00056168,0.00010525,-0.00003357,-0.
 00000077,-0.00004678,-0.00010152,0.00045291,0.00001661,0.00009990,0.00
 020425,-0.00008939,-0.00001001,0.00008638,0.00008370,-0.00006776,-0.00
 008531,0.00073502,-0.00124218,0.00029966,0.00002322,0.00004133,-0.0000
 0086,-0.00002086,0.00001378,0.00000926,0.00001195,-0.00002786,-0.00001
 536,-0.00002634,0.00001342,-0.00000155,0.00000297,0.00001143,0.0000108
 6,-0.00021342,0.00016052,0.00002520,0.00021754,0.00012035,0.00038205,0
 .00002758,-0.00045791,-0.00008347,-0.00007978,-0.00036621,0.00090225,0
 .13824305,-0.00516795,0.22717125,-0.00000211,-0.00000048,0.00000097,-0
 .00000076,-0.00000082,0.00000157,-0.00000072,0.00000020,0.00000070,-0.
 00000607,-0.00000097,-0.00000179,0.00000226,0.00000356,0.00000272,0.00
 000160,0.00000199,0.00001096,-0.00000418,0.00001994,-0.00003903,0.0000
 2813,0.00001868,-0.00032004,-0.00001920,0.00000641,0.00006551,0.000221
 75,0.00009850,-0.00032491,0.00020396,-0.00038733,0.00164470,-0.0122948
 1,0.00023963,0.01681334,-0.00149205,0.00377972,-0.00135667,0.00034652,
 -0.00164678,0.00013845,0.00021698,0.00014847,0.00003204,-0.00000710,0.
 00000262,0.00004138,0.00001576,0.00000328,0.00000601,-0.00001615,-0.00
 001727,0.00000123,-0.00045233,-0.00014988,-0.00007504,0.00025034,0.000
 05098,0.00006256,0.00044236,0.00072184,0.00090449,-0.01072463,-0.00193
 124,0.01557018,-0.12941701,-0.00694248,0.11320988,0.,-0.00000019,-0.00
 000040,0.00000028,0.00000114,-0.00000045,0.00000187,-0.00000066,-0.000
 00148,-0.00000175,0.00000055,-0.00000142,0.00000004,0.00000127,-0.0000
 0035,-0.00000011,-0.00000013,-0.00000042,0.00000118,-0.00000115,-0.000
 00042,0.00000405,0.00000111,-0.00000378,-0.00000012,-0.00000197,-0.000
 00138,-0.00000121,0.00000197,-0.00000208,-0.00000199,0.00000245,-0.000
 00514,0.00000038,-0.00000026,-0.00000012,0.00001715,0.00001635,-0.0000
 1565,0.00011280,-0.00019752,-0.00005838,0.00000239,-0.00001066,-0.0000
 1475,0.00001106,0.00003485,-0.00004657,0.00016786,-0.00016721,0.000000
 34,-0.00001418,0.00001942,-0.00003484,-0.00012002,0.00030219,-0.001041
 65,0.00014057,-0.00017300,-0.00010822,0.00022118,-0.00007787,0.0001450
 1,-0.00057281,-0.00004246,0.00124022,0.00068162,0.00031017,-0.00054986
 ,-0.00007143,0.00000420,-0.00005965,-0.00002124,0.00017384,0.00003439,
 0.00000876,0.00001300,-0.00000056,0.00001294,0.00000345,-0.00000460,0.
 00000147,0.00000265,0.00000098,0.00000137,0.00000199,-0.00000144,0.000
 00172,0.00000200,-0.00000369,0.00028848,-0.00001585,-0.00027012,-0.000
 18346,-0.00015934,-0.00070395,0.00092590,0.00022471,-0.00050968,-0.001
 08073,-0.00318759,-0.00032600,0.01270037,0.00105414,-0.01657401,0.1394
 7309,0.00000353,0.00000056,-0.00000148,-0.00000209,-0.00000132,-0.0000
 0341,0.00000058,0.00000040,0.00000191,-0.00001003,0.00000267,0.0000049
 2,-0.00000087,0.00000639,-0.00000480,0.00001217,0.00000612,-0.00000056
 ,-0.00005094,0.00001047,0.00000766,0.00001455,0.00013512,0.00021111,0.
 00002873,0.00003593,-0.00002424,-0.00019269,-0.00005921,0.00001953,-0.
 00059130,0.00070539,-0.00094935,0.01523627,-0.00044189,-0.02248733,0.0
 0271158,-0.00482373,0.00062920,0.00132382,0.00094914,-0.00179385,-0.00
 010737,-0.00006496,0.00002143,-0.00005816,-0.00000144,0.00000152,0.000
 00976,-0.00000616,-0.00000562,0.00001094,0.00002639,-0.00000982,0.0000
 8232,-0.00049934,-0.00006336,-0.00008073,0.00015807,0.00004336,0.00085
 252,0.00106049,0.00049125,-0.01746748,-0.00382651,0.02560249,-0.006844
 63,-0.04780978,0.01047494,0.00000073,0.00000113,0.00000177,-0.00000091
 ,0.00000018,0.00000015,-0.00000130,-0.00000047,0.00000025,-0.00000031,
 -0.00000028,-0.00000101,-0.00000046,0.00000014,-0.00000053,0.00000207,
 0.00000144,0.00000079,-0.00000158,-0.00000013,0.00000058,-0.00000427,-
 0.00000350,0.00000486,0.00000029,0.00000427,0.00000152,0.00000059,0.00
 000325,-0.00000092,-0.00000032,0.00000347,-0.00000200,-0.00000313,0.00
 000677,0.00000209,-0.00002583,-0.00003008,0.00002939,-0.00006680,0.000
 18379,0.00000095,-0.00001173,-0.00000464,-0.00000611,-0.00000156,-0.00
 002260,0.00003267,-0.00011286,0.00006714,-0.00002815,-0.00002295,-0.00
 000751,0.00004679,-0.00006725,0.00014791,0.00056172,0.00019113,0.00009
 078,0.00005430,-0.00021951,-0.00008613,0.00024757,0.00125165,-0.000045
 51,-0.00141554,-0.00033353,-0.00044863,0.00075875,0.00007927,0.0001140
 3,0.00019626,-0.00006313,0.00004701,-0.00010642,-0.00000223,0.00000247
 ,0.00001192,-0.00003418,-0.00002634,0.00001131,-0.00000454,0.00000323,
 0.00000228,0.00000588,-0.00000145,0.00000192,-0.00000225,-0.00000399,0
 .00000481,0.00038138,-0.00006231,-0.00011038,-0.00001705,0.00008015,-0
 .00071737,0.00066702,0.00115755,0.00022730,-0.00384218,-0.00482780,-0.
 00068278,-0.00046648,-0.00041703,0.00059092,0.00784584,0.05851088,0.00
 000192,-0.00000100,-0.00000204,0.00000205,-0.00000062,0.00000071,0.000
 00314,-0.00000570,-0.00000494,-0.00000552,-0.00000820,-0.00000813,0.00
 000813,-0.00000328,-0.00000317,-0.00003046,-0.00000947,-0.00000523,0.0
 0008910,-0.00005097,0.00000553,-0.00028885,-0.00020981,0.00030678,0.00
 003936,0.00003806,-0.00004808,0.00000146,-0.00006454,0.00034681,-0.000
 62637,0.00050515,0.00028595,0.00079493,-0.00011037,-0.00361238,0.00060
 128,-0.00153089,0.00078819,0.00037146,0.00083453,-0.00003721,-0.000065
 87,-0.00038048,0.00001257,-0.00001076,0.00001046,-0.00002769,0.0000098
 6,-0.00001656,0.00002335,0.00000478,0.00003289,-0.00001471,-0.00012490
 ,0.00021740,0.00008082,0.00004089,-0.00010384,-0.00004751,-0.00012915,
 -0.00009450,0.00078385,-0.00100090,0.00052632,0.00041522,0.11333049,0.
 00983868,-0.21800169,0.00000043,0.00000102,0.00000025,-0.00000067,0.00
 000125,0.00000047,-0.00000416,0.00000063,0.00000314,-0.00000083,0.0000
 0024,-0.00000411,-0.00000105,0.00000125,-0.00000021,-0.00000008,0.0000
 0030,0.00000122,-0.00000392,0.00000289,0.00000460,-0.00000714,-0.00000
 143,0.00001125,-0.00000505,0.00000126,0.00000088,-0.00000359,-0.000002
 07,0.00000008,0.00000141,0.00000205,-0.00000204,-0.00000441,0.00000614
 ,0.00000292,-0.00001884,-0.00001635,0.00003147,-0.00012762,0.00018795,
 0.00005091,-0.00001740,-0.00001174,0.00000151,-0.00001078,-0.00002254,
 0.00003955,-0.00014314,0.00012899,0.00002130,0.00002753,-0.00006721,0.
 00002468,-0.00009141,0.00015398,0.00066758,0.00004433,0.00005439,-0.00
 002871,-0.00009975,0.00012782,0.00054790,0.00049021,0.00013896,-0.0002
 1281,-0.00039064,-0.00051553,0.00059523,-0.00005429,0.00023643,0.00018
 626,-0.00003725,0.00010784,-0.00034885,-0.00000909,-0.00000288,0.00000
 415,-0.00005568,-0.00006387,0.00005525,-0.00000652,0.00000344,0.000008
 00,-0.00000253,-0.00000650,0.00000041,0.00000141,-0.00000057,0.0000000
 7,0.00009509,0.00002493,0.00018336,0.00044750,0.00004885,0.00037069,-0
 .00006256,0.00065023,0.00034494,-0.00051608,-0.00009398,0.00151973,0.0
 1501968,0.00139568,-0.02136214,-0.12746914,-0.01188512,0.23604407\\-0.
 00002108,0.00000244,-0.00002424,0.00002590,0.00003239,0.00001851,0.000
 03318,0.00000851,0.00000182,-0.00001644,-0.00002149,0.00000956,-0.0000
 0288,0.00001077,0.00000704,0.00002301,-0.00003205,0.00004224,0.0000238
 2,-0.00001285,0.00000953,-0.00000109,0.00000377,-0.00002879,-0.0000099
 8,-0.00000498,0.00001528,0.00003004,-0.00001016,-0.00001531,0.00000687
 ,0.00003272,0.00001975,-0.00000592,-0.00004428,0.00001899,0.00000008,-
 0.00000197,0.00000674,-0.00000394,0.00003888,0.00000438,0.00000332,0.0
 0001243,-0.00000227,-0.00000185,0.00000420,-0.00000245,0.00000050,0.00
 002325,0.00001594,0.00001790,0.00001000,-0.00000117,-0.00000459,-0.000
 00283,-0.00000264,-0.00000714,-0.00004032,0.00003703,-0.00000382,0.000
 01250,-0.00002606,-0.00002935,0.00000262,-0.00000044,-0.00001602,-0.00
 001749,-0.00001917,-0.00000088,-0.00000754,-0.00000723,0.00000384,-0.0
 0000716,0.00001233,0.00001227,0.00000515,-0.00001443,0.00001336,-0.000
 00175,-0.00000192,-0.00000386,0.00000444,0.00000345,-0.00000544,0.0000
 0118,0.00000454,-0.00001142,-0.00000141,0.00000580,-0.00000326,-0.0000
 0130,-0.00001536,-0.00001185,0.00000372,-0.00001904,0.00000965,0.00000
 993,-0.00000003,-0.00000456,-0.00000644,-0.00000061,-0.00001649,-0.000
 00929,0.00001156,-0.00000013,0.00000611,-0.00001343,0.00000533,0.00001
 759,-0.00003081,-0.00000698,-0.00000436,-0.00000936,0.00000570,0.00000
 826,-0.00000504,0.00000163,-0.00000882,0.00000328,-0.00000616,-0.00000
 096,-0.00000256,0.00000047,-0.00000553,-0.00000593,-0.00000589,-0.0000
 0802,0.00000361,-0.00001006,-0.00000389,-0.00000034,-0.00000090,0.0000
 2153,-0.00000763,-0.00000398,0.00000612,0.00000584,-0.00000153,0.00001
 007,0.00000426,-0.00001375,-0.00001741,-0.00000870,-0.00000684,-0.0000
 0018,-0.00000077,0.00000868,-0.00001457,0.00000417,-0.00000092,0.00001
 008,-0.00000528,-0.00001664,-0.00001507,-0.00000366,-0.00000604,-0.000
 00122,0.00000436,0.00000085,-0.00000308,-0.00000135,0.00000624,0.00000
 262,0.00000196,0.00000632,-0.00000038,0.00000158,0.00000176,0.00000363
 ,0.00000502,0.00002272,-0.00000040,-0.00000157,-0.00000181,0.00000228,
 -0.00000100\\\@


 IF THE FACTS DO NOT CONFORM TO THE THEORY, THEY MUST BE DISPOSED OF.
 Job cpu time:       0 days  0 hours 20 minutes  9.1 seconds.
 Elapsed time:       0 days  6 hours  6 minutes 52.7 seconds.
 File lengths (MBytes):  RWF=   1168 Int=      0 D2E=      0 Chk=     16 Scr=      1
 Normal termination of Gaussian 16 at Fri Feb 23 08:21:04 2024.
