 Entering Gaussian System, Link 0=g16
 Input=/Volumes/SSD-PMU3/b3lyp_6-31gd_freq/QINYKZKJEXZXCY-ZVHHJAQSSA-N_calculating/gaussianinput0.gjf
 Output=/Volumes/SSD-PMU3/b3lyp_6-31gd_freq/QINYKZKJEXZXCY-ZVHHJAQSSA-N_calculating/gaussianinput0.log
 Initial command:
 /Applications/g16/l1.exe "/Users/macmini_m1_2022/PycharmProjects/sphere_model/sphere_model_lib/Gau-66423.inp" -scrdir="/Users/macmini_m1_2022/PycharmProjects/sphere_model/sphere_model_lib/"
 Entering Link 1 = /Applications/g16/l1.exe PID=     66424.
  
 Copyright (c) 1988,1990,1992,1993,1995,1998,2003,2009,2016,
            Gaussian, Inc.  All Rights Reserved.
  
 This is part of the Gaussian(R) 16 program.  It is based on
 the Gaussian(R) 09 system (copyright 2009, Gaussian, Inc.),
 the Gaussian(R) 03 system (copyright 2003, Gaussian, Inc.),
 the Gaussian(R) 98 system (copyright 1998, Gaussian, Inc.),
 the Gaussian(R) 94 system (copyright 1995, Gaussian, Inc.),
 the Gaussian 92(TM) system (copyright 1992, Gaussian, Inc.),
 the Gaussian 90(TM) system (copyright 1990, Gaussian, Inc.),
 the Gaussian 88(TM) system (copyright 1988, Gaussian, Inc.),
 the Gaussian 86(TM) system (copyright 1986, Carnegie Mellon
 University), and the Gaussian 82(TM) system (copyright 1983,
 Carnegie Mellon University). Gaussian is a federally registered
 trademark of Gaussian, Inc.
  
 This software contains proprietary and confidential information,
 including trade secrets, belonging to Gaussian, Inc.
  
 This software is provided under written license and may be
 used, copied, transmitted, or stored only in accord with that
 written license.
  
 The following legend is applicable only to US Government
 contracts under FAR:
  
                    RESTRICTED RIGHTS LEGEND
  
 Use, reproduction and disclosure by the US Government is
 subject to restrictions as set forth in subparagraphs (a)
 and (c) of the Commercial Computer Software - Restricted
 Rights clause in FAR 52.227-19.
  
 Gaussian, Inc.
 340 Quinnipiac St., Bldg. 40, Wallingford CT 06492
  
  
 ---------------------------------------------------------------
 Warning -- This program may not be used in any manner that
 competes with the business of Gaussian, Inc. or will provide
 assistance to any competitor of Gaussian, Inc.  The licensee
 of this program is prohibited from giving any competitor of
 Gaussian, Inc. access to this program.  By using this program,
 the user acknowledges that Gaussian, Inc. is engaged in the
 business of creating and licensing software in the field of
 computational chemistry and represents and warrants to the
 licensee that it is not a competitor of Gaussian, Inc. and that
 it will not use this program in any manner prohibited above.
 ---------------------------------------------------------------
  

 Cite this work as:
 Gaussian 16, Revision A.03,
 M. J. Frisch, G. W. Trucks, H. B. Schlegel, G. E. Scuseria, 
 M. A. Robb, J. R. Cheeseman, G. Scalmani, V. Barone, 
 G. A. Petersson, H. Nakatsuji, X. Li, M. Caricato, A. V. Marenich, 
 J. Bloino, B. G. Janesko, R. Gomperts, B. Mennucci, H. P. Hratchian, 
 J. V. Ortiz, A. F. Izmaylov, J. L. Sonnenberg, D. Williams-Young, 
 F. Ding, F. Lipparini, F. Egidi, J. Goings, B. Peng, A. Petrone, 
 T. Henderson, D. Ranasinghe, V. G. Zakrzewski, J. Gao, N. Rega, 
 G. Zheng, W. Liang, M. Hada, M. Ehara, K. Toyota, R. Fukuda, 
 J. Hasegawa, M. Ishida, T. Nakajima, Y. Honda, O. Kitao, H. Nakai, 
 T. Vreven, K. Throssell, J. A. Montgomery, Jr., J. E. Peralta, 
 F. Ogliaro, M. J. Bearpark, J. J. Heyd, E. N. Brothers, K. N. Kudin, 
 V. N. Staroverov, T. A. Keith, R. Kobayashi, J. Normand, 
 K. Raghavachari, A. P. Rendell, J. C. Burant, S. S. Iyengar, 
 J. Tomasi, M. Cossi, J. M. Millam, M. Klene, C. Adamo, R. Cammi, 
 J. W. Ochterski, R. L. Martin, K. Morokuma, O. Farkas, 
 J. B. Foresman, and D. J. Fox, Gaussian, Inc., Wallingford CT, 2016.
 
 ******************************************
 Gaussian 16:  EM64M-G16RevA.03 25-Dec-2016
                22-Feb-2024 
 ******************************************
 %nprocshared=10
 Will use up to   10 processors via shared memory.
 %mem=12GB
 %chk= 0.chk
 ---------------------
 # freq b3lyp/6-31g(d)
 ---------------------
 1/10=4,30=1,38=1/1,3;
 2/12=2,17=6,18=5,40=1/2;
 3/5=1,6=6,7=1,11=2,25=1,30=1,71=2,74=-5,140=1/1,2,3;
 4//1;
 5/5=2,38=5,98=1/2;
 8/6=4,10=90,11=11/1;
 11/6=1,8=1,9=11,15=111,16=1/1,2,10;
 10/6=1/2;
 6/7=2,8=2,9=2,10=2,28=1/1;
 7/8=1,10=1,25=1/1,2,3,16;
 1/10=4,30=1/3;
 99//99;
 ---------
 good luck
 ---------
 Symbolic Z-matrix:
 Charge =  0 Multiplicity = 1
 C                    -6.13498  -8.56381  -1.60295 
 C                    -5.50207  -7.36804  -2.33998 
 C                    -6.61584  -6.54558  -3.00851 
 C                    -4.60817  -6.54982  -1.37736 
 C                    -3.47935  -7.42119  -0.73114 
 C                    -2.27576  -6.47917  -0.45252 
 C                    -2.83822  -5.07723  -0.73294 
 C                    -1.86709  -3.90279  -0.9207 
 C                    -0.87468  -3.78492   0.24951 
 C                     0.02133  -2.54727   0.13657 
 C                    -0.82755  -1.28236  -0.00271 
 C                    -1.79948  -1.31456  -1.23718 
 C                    -1.00057  -1.32028  -2.56149 
 C                    -2.69364  -2.59447  -1.09577 
 C                    -3.75076  -2.75089  -2.21212 
 C                    -4.65341  -3.99138  -2.04141 
 C                    -3.83732  -5.29269  -1.90725 
 C                    -3.12811  -5.62495  -3.23907 
 C                     0.        0.        0. 
 O                     1.21796   0.        0. 
 C                    -0.81795   1.28358  -0.00271 
 C                    -1.86687   1.27263  -1.13326 
 C                    -2.67548  -0.03463  -1.16696 
 H                    -5.38284  -9.23446  -1.17582 
 H                    -6.7569   -9.15454  -2.28598 
 H                    -6.77995  -8.21949  -0.78336 
 H                    -4.86032  -7.77621  -3.13499 
 H                    -7.27359  -7.19806  -3.59555 
 H                    -6.2235   -5.78304  -3.68707 
 H                    -7.23786  -6.03905  -2.2592 
 H                    -5.2629   -6.18935  -0.5674 
 H                    -3.18937  -8.23357  -1.40868 
 H                    -3.83393  -7.90001   0.18713 
 H                    -1.89799  -6.58019   0.56998 
 H                    -1.43543  -6.70376  -1.12145 
 H                    -3.46497  -4.81675   0.13779 
 H                    -1.2798   -4.07789  -1.83375 
 H                    -0.25697  -4.6896    0.30638 
 H                    -1.44049  -3.73737   1.19357 
 H                     0.66706  -2.45693   1.01731 
 H                     0.69975  -2.63835  -0.71996 
 H                    -1.48214  -1.21374   0.88382 
 H                    -0.24436  -0.52877  -2.58376 
 H                    -0.47205  -2.26372  -2.72284 
 H                    -1.6641   -1.1628   -3.41878 
 H                    -3.25017  -2.4625   -0.15128 
 H                    -4.39369  -1.8638   -2.24436 
 H                    -3.25422  -2.79823  -3.18915 
 H                    -5.26891  -3.86577  -1.13824 
 H                    -5.34946  -4.03408  -2.88635 
 H                    -2.43556  -4.83821  -3.55141 
 H                    -3.861    -5.74622  -4.04465 
 H                    -2.55384  -6.55544  -3.18011 
 H                    -1.33538   1.35101   0.96631 
 H                    -0.13875   2.13774  -0.07944 
 H                    -2.54691   2.1245   -1.01207 
 H                    -1.35982   1.42212  -2.09427 
 H                    -3.359    -0.00016  -2.02283 
 H                    -3.3064   -0.09084  -0.26694 
 

 GradGradGradGradGradGradGradGradGradGradGradGradGradGradGradGradGradGrad
 Berny optimization.
 Initialization pass.
 Trust Radius=3.00D-01 FncErr=1.00D-07 GrdErr=1.00D-07 EigMax=2.50D+02 EigMin=1.00D-04
 Number of steps in this run=      2 maximum allowed number of steps=      2.
 GradGradGradGradGradGradGradGradGradGradGradGradGradGradGradGradGradGrad

 Stoichiometry    C22H36O
 Framework group  C1[X(C22H36O)]
 Deg. of freedom   171
 Full point group                 C1      NOp   1
 Largest Abelian subgroup         C1      NOp   1
 Largest concise Abelian subgroup C1      NOp   1
                         Standard orientation:                         
 ---------------------------------------------------------------------
 Center     Atomic      Atomic             Coordinates (Angstroms)
 Number     Number       Type             X           Y           Z
 ---------------------------------------------------------------------
      1          6           0       -6.083581    0.099936   -0.710762
      2          6           0       -4.877622   -0.473729    0.057492
      3          6           0       -4.883224   -2.005604   -0.073652
      4          6           0       -3.564767    0.192986   -0.419042
      5          6           0       -3.595996    1.749550   -0.253972
      6          6           0       -2.133422    2.214420   -0.012220
      7          6           0       -1.301383    0.949839   -0.274850
      8          6           0        0.155724    0.896886    0.206470
      9          6           0        0.969155    2.105343   -0.289641
     10          6           0        2.452582    2.005911    0.080401
     11          6           0        3.044441    0.690186   -0.428059
     12          6           0        2.302513   -0.582130    0.119993
     13          6           0        2.491045   -0.707819    1.649940
     14          6           0        0.789503   -0.444711   -0.266800
     15          6           0       -0.080834   -1.649563    0.156354
     16          6           0       -1.560358   -1.523805   -0.265465
     17          6           0       -2.200624   -0.213819    0.235930
     18          6           0       -2.333261   -0.232297    1.775152
     19          6           0        4.549060    0.579318   -0.197588
     20          8           0        5.184204    1.408953    0.428292
     21          6           0        5.195692   -0.655801   -0.808312
     22          6           0        4.448914   -1.938955   -0.390782
     23          6           0        2.928109   -1.817814   -0.581611
     24          1           0       -6.180296    1.182797   -0.584345
     25          1           0       -7.017183   -0.359370   -0.364764
     26          1           0       -5.993728   -0.104454   -1.786126
     27          1           0       -5.018416   -0.225401    1.120034
     28          1           0       -5.870959   -2.407995    0.182124
     29          1           0       -4.155223   -2.485073    0.586626
     30          1           0       -4.657562   -2.315570   -1.102217
     31          1           0       -3.468121   -0.031461   -1.493713
     32          1           0       -4.238519    2.031030    0.589255
     33          1           0       -4.026571    2.226995   -1.139906
     34          1           0       -1.848511    3.044528   -0.666562
     35          1           0       -1.995848    2.565320    1.018311
     36          1           0       -1.263529    0.828044   -1.371474
     37          1           0        0.161576    0.925301    1.305739
     38          1           0        0.544166    3.031863    0.115553
     39          1           0        0.873050    2.174550   -1.384916
     40          1           0        3.013387    2.845659   -0.345231
     41          1           0        2.585762    2.080841    1.166146
     42          1           0        2.909961    0.658577   -1.523527
     43          1           0        3.543685   -0.621239    1.938537
     44          1           0        1.950329    0.067495    2.199441
     45          1           0        2.132199   -1.678395    2.009427
     46          1           0        0.768926   -0.413463   -1.370341
     47          1           0        0.320450   -2.571473   -0.279962
     48          1           0       -0.026231   -1.782820    1.243850
     49          1           0       -1.623973   -1.550366   -1.363460
     50          1           0       -2.101523   -2.404746    0.096920
     51          1           0       -1.366714   -0.333945    2.276745
     52          1           0       -2.952714   -1.076919    2.097152
     53          1           0       -2.802139    0.679300    2.160125
     54          1           0        5.145644   -0.551435   -1.902789
     55          1           0        6.251392   -0.682368   -0.522695
     56          1           0        4.827248   -2.789626   -0.970480
     57          1           0        4.676325   -2.160667    0.659034
     58          1           0        2.456186   -2.736449   -0.215134
     59          1           0        2.703844   -1.760645   -1.657560
 ---------------------------------------------------------------------
 Rotational constants (GHZ):           0.6644312           0.1303749           0.1174040
 Standard basis: 6-31G(d) (6D, 7F)
 There are   417 symmetry adapted cartesian basis functions of A   symmetry.
 There are   417 symmetry adapted basis functions of A   symmetry.
   417 basis functions,   788 primitive gaussians,   417 cartesian basis functions
    88 alpha electrons       88 beta electrons
       nuclear repulsion energy      2150.4411371938 Hartrees.
 NAtoms=   59 NActive=   59 NUniq=   59 SFac= 1.00D+00 NAtFMM=   60 NAOKFM=F Big=F
 Integral buffers will be    131072 words long.
 Raffenetti 2 integral format.
 Two-electron integral symmetry is turned on.
 One-electron integrals computed using PRISM.
 NBasis=   417 RedAO= T EigKep=  1.63D-03  NBF=   417
 NBsUse=   417 1.00D-06 EigRej= -1.00D+00 NBFU=   417
 ExpMin= 1.61D-01 ExpMax= 5.48D+03 ExpMxC= 8.25D+02 IAcc=3 IRadAn=         5 AccDes= 0.00D+00
 Harris functional with IExCor=  402 and IRadAn=       5 diagonalized for initial guess.
 HarFok:  IExCor=  402 AccDes= 0.00D+00 IRadAn=         5 IDoV= 1 UseB2=F ITyADJ=14
 ICtDFT=  3500011 ScaDFX=  1.000000  1.000000  1.000000  1.000000
 FoFCou: FMM=F IPFlag=           0 FMFlag=      100000 FMFlg1=           0
         NFxFlg=           0 DoJE=T BraDBF=F KetDBF=T FulRan=T
         wScrn=  0.000000 ICntrl=       500 IOpCl=  0 I1Cent=   200000004 NGrid=           0
         NMat0=    1 NMatS0=      1 NMatT0=    0 NMatD0=    1 NMtDS0=    0 NMtDT0=    0
 Petite list used in FoFCou.
 Requested convergence on RMS density matrix=1.00D-08 within 128 cycles.
 Requested convergence on MAX density matrix=1.00D-06.
 Requested convergence on             energy=1.00D-06.
 No special actions if energy rises.
 Integral accuracy reduced to 1.0D-05 until final iterations.
 Initial convergence to 1.0D-05 achieved.  Increase integral accuracy.
 SCF Done:  E(RB3LYP) =  -935.273828720     A.U. after   14 cycles
            NFock= 14  Conv=0.32D-08     -V/T= 2.0099
 DoSCS=F DFT=T ScalE2(SS,OS)=  1.000000  1.000000
 Range of M.O.s used for correlation:     1   417
 NBasis=   417 NAE=    88 NBE=    88 NFC=     0 NFV=     0
 NROrb=    417 NOA=    88 NOB=    88 NVA=   329 NVB=   329
 Symmetrizing basis deriv contribution to polar:
 IMax=3 JMax=2 DiffMx= 0.00D+00
 G2DrvN: will do    60 centers at a time, making    1 passes.
 Calling FoFCou, ICntrl=  3107 FMM=F I1Cent=   0 AccDes= 0.00D+00.
 End of G2Drv F.D. properties file   721 does not exist.
 End of G2Drv F.D. properties file   722 does not exist.
 End of G2Drv F.D. properties file   788 does not exist.
          IDoAtm=11111111111111111111111111111111111111111111111111
          IDoAtm=111111111
          Differentiating once with respect to electric field.
                with respect to dipole field.
          Differentiating once with respect to nuclear coordinates.
 CalDSu exits because no D1Ps are significant.
          There are   180 degrees of freedom in the 1st order CPHF.  IDoFFX=6 NUNeed=     3.
    177 vectors produced by pass  0 Test12= 2.90D-14 1.00D-09 XBig12= 1.49D+02 2.42D+00.
 AX will form   177 AO Fock derivatives at one time.
    177 vectors produced by pass  1 Test12= 2.90D-14 1.00D-09 XBig12= 1.02D+01 5.75D-01.
    177 vectors produced by pass  2 Test12= 2.90D-14 1.00D-09 XBig12= 7.35D-02 1.57D-02.
    177 vectors produced by pass  3 Test12= 2.90D-14 1.00D-09 XBig12= 1.64D-04 9.07D-04.
    177 vectors produced by pass  4 Test12= 2.90D-14 1.00D-09 XBig12= 1.43D-07 3.52D-05.
     74 vectors produced by pass  5 Test12= 2.90D-14 1.00D-09 XBig12= 8.46D-11 5.90D-07.
      3 vectors produced by pass  6 Test12= 2.90D-14 1.00D-09 XBig12= 5.52D-14 1.50D-08.
 InvSVY:  IOpt=1 It=  1 EMax= 7.11D-15
 Solved reduced A of dimension   962 with   180 vectors.
 Isotropic polarizability for W=    0.000000      220.88 Bohr**3.
 End of Minotr F.D. properties file   721 does not exist.
 End of Minotr F.D. properties file   722 does not exist.
 End of Minotr F.D. properties file   788 does not exist.

 **********************************************************************

            Population analysis using the SCF density.

 **********************************************************************

 Orbital symmetries:
       Occupied  (A) (A) (A) (A) (A) (A) (A) (A) (A) (A) (A) (A)
                 (A) (A) (A) (A) (A) (A) (A) (A) (A) (A) (A) (A)
                 (A) (A) (A) (A) (A) (A) (A) (A) (A) (A) (A) (A)
                 (A) (A) (A) (A) (A) (A) (A) (A) (A) (A) (A) (A)
                 (A) (A) (A) (A) (A) (A) (A) (A) (A) (A) (A) (A)
                 (A) (A) (A) (A) (A) (A) (A) (A) (A) (A) (A) (A)
                 (A) (A) (A) (A) (A) (A) (A) (A) (A) (A) (A) (A)
                 (A) (A) (A) (A)
       Virtual   (A) (A) (A) (A) (A) (A) (A) (A) (A) (A) (A) (A)
                 (A) (A) (A) (A) (A) (A) (A) (A) (A) (A) (A) (A)
                 (A) (A) (A) (A) (A) (A) (A) (A) (A) (A) (A) (A)
                 (A) (A) (A) (A) (A) (A) (A) (A) (A) (A) (A) (A)
                 (A) (A) (A) (A) (A) (A) (A) (A) (A) (A) (A) (A)
                 (A) (A) (A) (A) (A) (A) (A) (A) (A) (A) (A) (A)
                 (A) (A) (A) (A) (A) (A) (A) (A) (A) (A) (A) (A)
                 (A) (A) (A) (A) (A) (A) (A) (A) (A) (A) (A) (A)
                 (A) (A) (A) (A) (A) (A) (A) (A) (A) (A) (A) (A)
                 (A) (A) (A) (A) (A) (A) (A) (A) (A) (A) (A) (A)
                 (A) (A) (A) (A) (A) (A) (A) (A) (A) (A) (A) (A)
                 (A) (A) (A) (A) (A) (A) (A) (A) (A) (A) (A) (A)
                 (A) (A) (A) (A) (A) (A) (A) (A) (A) (A) (A) (A)
                 (A) (A) (A) (A) (A) (A) (A) (A) (A) (A) (A) (A)
                 (A) (A) (A) (A) (A) (A) (A) (A) (A) (A) (A) (A)
                 (A) (A) (A) (A) (A) (A) (A) (A) (A) (A) (A) (A)
                 (A) (A) (A) (A) (A) (A) (A) (A) (A) (A) (A) (A)
                 (A) (A) (A) (A) (A) (A) (A) (A) (A) (A) (A) (A)
                 (A) (A) (A) (A) (A) (A) (A) (A) (A) (A) (A) (A)
                 (A) (A) (A) (A) (A) (A) (A) (A) (A) (A) (A) (A)
                 (A) (A) (A) (A) (A) (A) (A) (A) (A) (A) (A) (A)
                 (A) (A) (A) (A) (A) (A) (A) (A) (A) (A) (A) (A)
                 (A) (A) (A) (A) (A) (A) (A) (A) (A) (A) (A) (A)
                 (A) (A) (A) (A) (A) (A) (A) (A) (A) (A) (A) (A)
                 (A) (A) (A) (A) (A) (A) (A) (A) (A) (A) (A) (A)
                 (A) (A) (A) (A) (A) (A) (A) (A) (A) (A) (A) (A)
                 (A) (A) (A) (A) (A) (A) (A) (A) (A) (A) (A) (A)
                 (A) (A) (A) (A) (A)
 The electronic state is 1-A.
 Alpha  occ. eigenvalues --  -19.13060 -10.26332 -10.20330 -10.19160 -10.18813
 Alpha  occ. eigenvalues --  -10.18752 -10.18666 -10.18575 -10.18483 -10.18453
 Alpha  occ. eigenvalues --  -10.18060 -10.17935 -10.17764 -10.17591 -10.17530
 Alpha  occ. eigenvalues --  -10.17521 -10.17459 -10.17409 -10.17318 -10.17311
 Alpha  occ. eigenvalues --  -10.17006 -10.16945 -10.16913  -1.02886  -0.86375
 Alpha  occ. eigenvalues --   -0.84473  -0.80601  -0.78655  -0.77879  -0.75444
 Alpha  occ. eigenvalues --   -0.74824  -0.71641  -0.70128  -0.68491  -0.68231
 Alpha  occ. eigenvalues --   -0.67368  -0.66727  -0.62095  -0.60610  -0.59894
 Alpha  occ. eigenvalues --   -0.58003  -0.56358  -0.53880  -0.53559  -0.52426
 Alpha  occ. eigenvalues --   -0.51408  -0.47862  -0.47141  -0.46634  -0.46222
 Alpha  occ. eigenvalues --   -0.45691  -0.44860  -0.44292  -0.43801  -0.42942
 Alpha  occ. eigenvalues --   -0.42313  -0.41515  -0.41069  -0.40480  -0.40418
 Alpha  occ. eigenvalues --   -0.40196  -0.39463  -0.38505  -0.38356  -0.38045
 Alpha  occ. eigenvalues --   -0.37627  -0.37353  -0.36802  -0.36083  -0.35736
 Alpha  occ. eigenvalues --   -0.34894  -0.34533  -0.34156  -0.34047  -0.33481
 Alpha  occ. eigenvalues --   -0.33444  -0.33044  -0.32242  -0.31815  -0.31219
 Alpha  occ. eigenvalues --   -0.30838  -0.30390  -0.30164  -0.30103  -0.29273
 Alpha  occ. eigenvalues --   -0.27824  -0.26589  -0.23032
 Alpha virt. eigenvalues --   -0.00886   0.07185   0.07820   0.08303   0.09821
 Alpha virt. eigenvalues --    0.09909   0.10575   0.10913   0.11680   0.12273
 Alpha virt. eigenvalues --    0.12884   0.13026   0.13392   0.14017   0.14814
 Alpha virt. eigenvalues --    0.15128   0.15475   0.15527   0.15849   0.16288
 Alpha virt. eigenvalues --    0.16434   0.16686   0.17613   0.17939   0.18158
 Alpha virt. eigenvalues --    0.18483   0.18739   0.19113   0.19299   0.19869
 Alpha virt. eigenvalues --    0.20241   0.20735   0.20970   0.21563   0.22002
 Alpha virt. eigenvalues --    0.22171   0.22498   0.22788   0.23256   0.23732
 Alpha virt. eigenvalues --    0.24097   0.24432   0.24663   0.24763   0.25365
 Alpha virt. eigenvalues --    0.25798   0.26174   0.27144   0.27278   0.27849
 Alpha virt. eigenvalues --    0.28084   0.28802   0.29312   0.30169   0.30298
 Alpha virt. eigenvalues --    0.30770   0.32189   0.33270   0.33822   0.35330
 Alpha virt. eigenvalues --    0.37183   0.37852   0.39487   0.49364   0.50081
 Alpha virt. eigenvalues --    0.50150   0.50827   0.51236   0.51818   0.51955
 Alpha virt. eigenvalues --    0.53214   0.54006   0.54750   0.55547   0.55883
 Alpha virt. eigenvalues --    0.57268   0.57606   0.58482   0.59404   0.60393
 Alpha virt. eigenvalues --    0.61126   0.61743   0.63072   0.63233   0.64007
 Alpha virt. eigenvalues --    0.65308   0.65567   0.65775   0.66816   0.67351
 Alpha virt. eigenvalues --    0.67575   0.68393   0.69003   0.69570   0.70336
 Alpha virt. eigenvalues --    0.71101   0.72225   0.72913   0.73422   0.75501
 Alpha virt. eigenvalues --    0.75773   0.76155   0.76515   0.77302   0.78695
 Alpha virt. eigenvalues --    0.80018   0.81042   0.81719   0.82115   0.82530
 Alpha virt. eigenvalues --    0.83477   0.84447   0.84890   0.85467   0.85619
 Alpha virt. eigenvalues --    0.86335   0.86586   0.86997   0.87574   0.87917
 Alpha virt. eigenvalues --    0.88022   0.88197   0.88714   0.88979   0.89829
 Alpha virt. eigenvalues --    0.90086   0.90121   0.90594   0.90797   0.91608
 Alpha virt. eigenvalues --    0.92143   0.92660   0.93029   0.93566   0.94226
 Alpha virt. eigenvalues --    0.94356   0.95030   0.95262   0.95865   0.96447
 Alpha virt. eigenvalues --    0.96777   0.97023   0.97779   0.97976   0.98872
 Alpha virt. eigenvalues --    0.99383   1.00294   1.00677   1.01541   1.01810
 Alpha virt. eigenvalues --    1.02559   1.03269   1.04064   1.04203   1.05183
 Alpha virt. eigenvalues --    1.06582   1.07217   1.08745   1.09880   1.11155
 Alpha virt. eigenvalues --    1.13778   1.15177   1.17362   1.18139   1.19632
 Alpha virt. eigenvalues --    1.21450   1.22769   1.25122   1.26747   1.27938
 Alpha virt. eigenvalues --    1.31434   1.31719   1.34060   1.34885   1.36174
 Alpha virt. eigenvalues --    1.37938   1.39622   1.40967   1.45913   1.46978
 Alpha virt. eigenvalues --    1.48946   1.50981   1.53079   1.54048   1.55226
 Alpha virt. eigenvalues --    1.56659   1.58222   1.59180   1.60431   1.62831
 Alpha virt. eigenvalues --    1.64810   1.65645   1.67605   1.69415   1.69675
 Alpha virt. eigenvalues --    1.70873   1.71399   1.73540   1.74792   1.75342
 Alpha virt. eigenvalues --    1.77034   1.77649   1.78288   1.78986   1.79788
 Alpha virt. eigenvalues --    1.81143   1.81533   1.82533   1.82888   1.83649
 Alpha virt. eigenvalues --    1.85731   1.87555   1.88599   1.89315   1.90238
 Alpha virt. eigenvalues --    1.90471   1.91581   1.92493   1.93347   1.94331
 Alpha virt. eigenvalues --    1.94512   1.95054   1.95482   1.96350   1.97935
 Alpha virt. eigenvalues --    1.98723   1.99484   2.00486   2.01220   2.02144
 Alpha virt. eigenvalues --    2.02639   2.02838   2.03755   2.04407   2.04751
 Alpha virt. eigenvalues --    2.05519   2.06376   2.08584   2.09419   2.09440
 Alpha virt. eigenvalues --    2.10652   2.11244   2.12226   2.12950   2.13694
 Alpha virt. eigenvalues --    2.15153   2.17030   2.17686   2.18418   2.19612
 Alpha virt. eigenvalues --    2.20403   2.21670   2.23520   2.25649   2.26661
 Alpha virt. eigenvalues --    2.28069   2.28915   2.29610   2.31097   2.31650
 Alpha virt. eigenvalues --    2.32872   2.33430   2.35193   2.36103   2.37425
 Alpha virt. eigenvalues --    2.38650   2.40424   2.41468   2.42260   2.43112
 Alpha virt. eigenvalues --    2.43392   2.44539   2.45812   2.48403   2.49244
 Alpha virt. eigenvalues --    2.50683   2.52232   2.53489   2.55946   2.57127
 Alpha virt. eigenvalues --    2.57917   2.59336   2.60511   2.61832   2.62796
 Alpha virt. eigenvalues --    2.64275   2.65113   2.66492   2.67416   2.71168
 Alpha virt. eigenvalues --    2.73217   2.75143   2.75785   2.76469   2.78352
 Alpha virt. eigenvalues --    2.81782   2.85088   2.85704   2.87941   2.90706
 Alpha virt. eigenvalues --    2.91241   2.91815   2.96541   2.99720   3.03007
 Alpha virt. eigenvalues --    3.06619   4.05214   4.12010   4.15664   4.21683
 Alpha virt. eigenvalues --    4.23539   4.24736   4.27097   4.28919   4.30609
 Alpha virt. eigenvalues --    4.31434   4.36840   4.40386   4.43990   4.47184
 Alpha virt. eigenvalues --    4.53488   4.56994   4.59472   4.64656   4.66399
 Alpha virt. eigenvalues --    4.70909   4.76276   4.80376   4.83131
          Condensed to atoms (all electrons):
 Mulliken charges:
               1
     1  C   -0.448462
     2  C   -0.079990
     3  C   -0.450218
     4  C   -0.072819
     5  C   -0.295753
     6  C   -0.291185
     7  C   -0.090789
     8  C   -0.099070
     9  C   -0.276447
    10  C   -0.262682
    11  C   -0.183431
    12  C    0.092840
    13  C   -0.485468
    14  C   -0.089035
    15  C   -0.291153
    16  C   -0.278688
    17  C    0.093262
    18  C   -0.482597
    19  C    0.448728
    20  O   -0.459002
    21  C   -0.339141
    22  C   -0.280910
    23  C   -0.279718
    24  H    0.147610
    25  H    0.138058
    26  H    0.136732
    27  H    0.120042
    28  H    0.137276
    29  H    0.147279
    30  H    0.137962
    31  H    0.106928
    32  H    0.133910
    33  H    0.137934
    34  H    0.134930
    35  H    0.132670
    36  H    0.108279
    37  H    0.118278
    38  H    0.137246
    39  H    0.120326
    40  H    0.143797
    41  H    0.145470
    42  H    0.128331
    43  H    0.156378
    44  H    0.154337
    45  H    0.146423
    46  H    0.104462
    47  H    0.132965
    48  H    0.136992
    49  H    0.121779
    50  H    0.130156
    51  H    0.146031
    52  H    0.145418
    53  H    0.145710
    54  H    0.151248
    55  H    0.159901
    56  H    0.141750
    57  H    0.149167
    58  H    0.139732
    59  H    0.126220
 Sum of Mulliken charges =  -0.00000
 Mulliken charges with hydrogens summed into heavy atoms:
               1
     1  C   -0.026062
     2  C    0.040053
     3  C   -0.027702
     4  C    0.034109
     5  C   -0.023909
     6  C   -0.023585
     7  C    0.017490
     8  C    0.019208
     9  C   -0.018874
    10  C    0.026586
    11  C   -0.055100
    12  C    0.092840
    13  C   -0.028330
    14  C    0.015427
    15  C   -0.021196
    16  C   -0.026753
    17  C    0.093262
    18  C   -0.045437
    19  C    0.448728
    20  O   -0.459002
    21  C   -0.027993
    22  C    0.010007
    23  C   -0.013766
 APT charges:
               1
     1  C    0.061876
     2  C    0.132301
     3  C    0.047873
     4  C    0.077749
     5  C    0.072758
     6  C    0.072040
     7  C    0.078346
     8  C    0.047051
     9  C    0.106898
    10  C    0.095179
    11  C   -0.117651
    12  C    0.126104
    13  C   -0.008175
    14  C    0.066723
    15  C    0.067958
    16  C    0.104549
    17  C    0.047709
    18  C    0.021806
    19  C    0.741488
    20  O   -0.651367
    21  C   -0.065466
    22  C    0.148386
    23  C    0.052775
    24  H   -0.014104
    25  H   -0.047585
    26  H   -0.024704
    27  H   -0.066612
    28  H   -0.046900
    29  H   -0.017851
    30  H   -0.016501
    31  H   -0.066869
    32  H   -0.048038
    33  H   -0.049760
    34  H   -0.045957
    35  H   -0.042214
    36  H   -0.062211
    37  H   -0.043957
    38  H   -0.051401
    39  H   -0.045941
    40  H   -0.046836
    41  H   -0.022147
    42  H   -0.032419
    43  H   -0.011342
    44  H   -0.001677
    45  H   -0.007490
    46  H   -0.061020
    47  H   -0.052373
    48  H   -0.027822
    49  H   -0.045940
    50  H   -0.058430
    51  H   -0.017927
    52  H   -0.021061
    53  H   -0.011617
    54  H   -0.010331
    55  H   -0.032127
    56  H   -0.061383
    57  H   -0.034657
    58  H   -0.035817
    59  H   -0.043890
 Sum of APT charges =   0.00000
 APT charges with hydrogens summed into heavy atoms:
               1
     1  C   -0.024518
     2  C    0.065689
     3  C   -0.033380
     4  C    0.010880
     5  C   -0.025039
     6  C   -0.016131
     7  C    0.016134
     8  C    0.003094
     9  C    0.009556
    10  C    0.026196
    11  C   -0.150070
    12  C    0.126104
    13  C   -0.028683
    14  C    0.005704
    15  C   -0.012237
    16  C    0.000179
    17  C    0.047709
    18  C   -0.028798
    19  C    0.741488
    20  O   -0.651367
    21  C   -0.107925
    22  C    0.052346
    23  C   -0.026932
 Electronic spatial extent (au):  <R**2>=           9478.6342
 Charge=             -0.0000 electrons
 Dipole moment (field-independent basis, Debye):
    X=             -1.8176    Y=             -1.9524    Z=             -1.1087  Tot=              2.8887
 Quadrupole moment (field-independent basis, Debye-Ang):
   XX=           -159.5355   YY=           -146.5898   ZZ=           -142.7312
   XY=            -11.7561   XZ=             -7.0427   YZ=             -1.5301
 Traceless Quadrupole moment (field-independent basis, Debye-Ang):
   XX=             -9.9167   YY=              3.0290   ZZ=              6.8876
   XY=            -11.7561   XZ=             -7.0427   YZ=             -1.5301
 Octapole moment (field-independent basis, Debye-Ang**2):
  XXX=            -65.8227  YYY=              1.0419  ZZZ=             -2.2155  XYY=             -3.2153
  XXY=            -62.0155  XXZ=            -28.8099  XZZ=             11.3481  YZZ=              2.3251
  YYZ=             -0.9077  XYZ=             -7.0968
 Hexadecapole moment (field-independent basis, Debye-Ang**3):
 XXXX=         -10912.6082 YYYY=          -1895.5491 ZZZZ=           -699.2926 XXXY=           -311.8167
 XXXZ=           -202.6059 YYYX=             -9.5374 YYYZ=             -4.6280 ZZZX=              4.5258
 ZZZY=              6.0608 XXYY=          -2115.2461 XXZZ=          -1818.8544 YYZZ=           -426.4562
 XXYZ=            -40.1448 YYXZ=            -15.3057 ZZXY=              3.4003
 N-N= 2.150441137194D+03 E-N=-6.466109607732D+03  KE= 9.261169791162D+02
  Exact polarizability: 273.618   0.300 210.595   0.555   1.654 178.414
 Approx polarizability: 317.365   6.840 311.723   4.346   7.673 309.341
 Calling FoFJK, ICntrl=    100127 FMM=F ISym2X=0 I1Cent= 0 IOpClX= 0 NMat=1 NMatS=1 NMatT=0.
 Full mass-weighted force constant matrix:
 Low frequencies ---   -7.4418   -4.4455   -2.0638   -0.0006    0.0001    0.0008
 Low frequencies ---   39.7715   51.3833   78.9825
 Diagonal vibrational polarizability:
       12.0778101       7.9907061      17.7324701
 Harmonic frequencies (cm**-1), IR intensities (KM/Mole), Raman scattering
 activities (A**4/AMU), depolarization ratios for plane and unpolarized
 incident light, reduced masses (AMU), force constants (mDyne/A),
 and normal coordinates:
                      1                      2                      3
                      A                      A                      A
 Frequencies --     39.7701                51.3823                78.9813
 Red. masses --      4.0491                 3.2652                 3.0717
 Frc consts  --      0.0038                 0.0051                 0.0113
 IR Inten    --      0.3108                 0.7684                 0.6679
  Atom  AN      X      Y      Z        X      Y      Z        X      Y      Z
     1   6    -0.05   0.02   0.21     0.01  -0.07  -0.07     0.02  -0.08  -0.12
     2   6     0.01   0.01   0.11    -0.00   0.03   0.03    -0.00   0.04   0.01
     3   6    -0.01   0.01   0.10     0.00   0.01   0.21     0.03   0.02   0.22
     4   6    -0.02   0.00   0.02     0.00  -0.02  -0.02    -0.00   0.02  -0.01
     5   6    -0.01   0.00   0.03     0.01  -0.00  -0.13     0.00   0.02  -0.01
     6   6     0.00   0.00  -0.05     0.00   0.00  -0.10    -0.01   0.01   0.09
     7   6    -0.01   0.00  -0.09     0.01  -0.01  -0.03    -0.00   0.03   0.02
     8   6    -0.00   0.00  -0.11    -0.00   0.00  -0.00    -0.00  -0.00   0.03
     9   6     0.00  -0.01  -0.12     0.00   0.01   0.04     0.01   0.01   0.08
    10   6    -0.01   0.01  -0.06    -0.01  -0.00   0.08     0.01  -0.01   0.05
    11   6     0.02   0.00  -0.01     0.00   0.02   0.03    -0.00  -0.01   0.02
    12   6    -0.01   0.00  -0.04     0.00  -0.01  -0.03    -0.01  -0.00   0.01
    13   6    -0.08  -0.00  -0.03     0.02  -0.10  -0.04    -0.05   0.01   0.02
    14   6     0.01   0.00  -0.11    -0.00  -0.00  -0.00    -0.00   0.02  -0.03
    15   6     0.00  -0.01  -0.16     0.00   0.01   0.04    -0.01  -0.01  -0.13
    16   6    -0.01   0.01  -0.13    -0.00  -0.01   0.06    -0.01   0.03  -0.13
    17   6     0.01  -0.00  -0.06    -0.00   0.01   0.01    -0.00   0.00  -0.04
    18   6     0.10  -0.03  -0.06    -0.01   0.08   0.01     0.02  -0.08  -0.04
    19   6     0.00  -0.00   0.11    -0.01   0.00   0.06     0.01  -0.00  -0.03
    20   8    -0.04  -0.01   0.17    -0.02  -0.06   0.16     0.04   0.06  -0.14
    21   6     0.05   0.00   0.15     0.00   0.05  -0.04    -0.01  -0.04   0.03
    22   6     0.02  -0.00   0.08    -0.00   0.02  -0.14    -0.02  -0.02   0.07
    23   6     0.03   0.00  -0.01    -0.00   0.04  -0.12    -0.01  -0.01   0.04
    24   1    -0.04   0.02   0.23     0.02  -0.05  -0.21     0.02  -0.06  -0.30
    25   1    -0.03   0.02   0.28     0.00  -0.01  -0.02     0.01  -0.02  -0.08
    26   1    -0.14   0.03   0.20     0.03  -0.21  -0.04     0.07  -0.25  -0.09
    27   1     0.09  -0.00   0.12    -0.03   0.16  -0.00    -0.06   0.17  -0.03
    28   1     0.01   0.01   0.17     0.00   0.04   0.25     0.02   0.04   0.24
    29   1     0.04  -0.00   0.03    -0.00   0.10   0.28     0.01   0.12   0.31
    30   1    -0.09   0.02   0.08     0.01  -0.11   0.25     0.06  -0.12   0.27
    31   1    -0.10   0.01   0.01     0.00  -0.10  -0.01    -0.03   0.02  -0.02
    32   1     0.04  -0.00   0.07    -0.03   0.06  -0.19    -0.05   0.03  -0.05
    33   1    -0.06   0.01   0.06     0.06  -0.06  -0.19     0.07   0.03  -0.04
    34   1    -0.03   0.00  -0.06     0.02  -0.02  -0.12     0.02   0.06   0.16
    35   1     0.05  -0.00  -0.05    -0.03   0.04  -0.11    -0.05  -0.07   0.12
    36   1    -0.04   0.01  -0.09     0.02  -0.05  -0.02     0.00   0.09   0.01
    37   1     0.01   0.01  -0.11    -0.02  -0.01  -0.00    -0.01  -0.04   0.03
    38   1    -0.01   0.00  -0.15    -0.01   0.00   0.04     0.02   0.00   0.12
    39   1     0.04  -0.03  -0.12     0.04   0.03   0.04    -0.00   0.06   0.08
    40   1     0.00   0.00  -0.05     0.01   0.02   0.14     0.01  -0.01   0.06
    41   1    -0.06   0.03  -0.05    -0.04  -0.06   0.09     0.03  -0.03   0.05
    42   1     0.10  -0.01  -0.01     0.01   0.07   0.03    -0.02   0.01   0.02
    43   1    -0.09   0.00   0.01     0.02  -0.07  -0.04    -0.05  -0.02   0.04
    44   1    -0.10  -0.00  -0.06    -0.01  -0.16   0.01    -0.04   0.02   0.01
    45   1    -0.09  -0.00  -0.05     0.06  -0.14  -0.10    -0.07   0.01   0.02
    46   1     0.05   0.02  -0.11    -0.03  -0.01  -0.00     0.03   0.08  -0.02
    47   1    -0.01   0.01  -0.22    -0.00  -0.01   0.07    -0.01   0.02  -0.20
    48   1     0.02  -0.07  -0.17     0.01   0.05   0.05    -0.02  -0.10  -0.14
    49   1    -0.03   0.05  -0.13    -0.02  -0.05   0.06     0.00   0.12  -0.13
    50   1    -0.00  -0.00  -0.15    -0.00   0.01   0.10    -0.02   0.01  -0.21
    51   1     0.12  -0.05  -0.11    -0.02   0.08   0.02     0.02  -0.11  -0.06
    52   1     0.11  -0.04  -0.04    -0.03   0.11   0.04     0.02  -0.10  -0.08
    53   1     0.12  -0.04  -0.02     0.01   0.11  -0.03     0.02  -0.10   0.01
    54   1     0.13   0.01   0.14     0.01   0.14  -0.03    -0.00  -0.08   0.03
    55   1     0.03  -0.00   0.23     0.00   0.03  -0.04    -0.01  -0.03   0.03
    56   1     0.05   0.01   0.09    -0.00   0.07  -0.21    -0.01  -0.04   0.11
    57   1    -0.05  -0.02   0.09     0.00  -0.06  -0.16    -0.03   0.02   0.08
    58   1     0.00   0.00  -0.05    -0.00   0.01  -0.19    -0.03  -0.00   0.05
    59   1     0.09   0.01  -0.03    -0.01   0.11  -0.12     0.01  -0.03   0.04
                      4                      5                      6
                      A                      A                      A
 Frequencies --     84.4631               102.6607               109.3336
 Red. masses --      3.8825                 3.2807                 3.3422
 Frc consts  --      0.0163                 0.0204                 0.0235
 IR Inten    --      0.7494                 0.8309                 0.8303
  Atom  AN      X      Y      Z        X      Y      Z        X      Y      Z
     1   6     0.05  -0.15  -0.15     0.04   0.04  -0.13     0.02   0.12  -0.09
     2   6     0.02  -0.05  -0.03    -0.03   0.03  -0.02    -0.04   0.08  -0.01
     3   6     0.13  -0.06   0.01    -0.04   0.03   0.00    -0.14   0.08   0.07
     4   6     0.01   0.03   0.05    -0.00   0.02   0.05     0.00  -0.01  -0.00
     5   6    -0.04   0.02   0.14     0.01   0.01   0.10     0.05  -0.01  -0.01
     6   6    -0.03   0.04   0.11     0.03  -0.01   0.06     0.04  -0.05   0.09
     7   6    -0.02   0.06   0.04    -0.01  -0.03   0.03     0.01  -0.05   0.04
     8   6     0.01   0.06  -0.02     0.01  -0.04  -0.03     0.01  -0.05   0.01
     9   6     0.01   0.03  -0.10    -0.02  -0.04  -0.08    -0.04  -0.04  -0.05
    10   6     0.02   0.03  -0.14    -0.03  -0.02  -0.06    -0.02   0.01  -0.11
    11   6     0.01  -0.00  -0.07     0.00  -0.01  -0.03    -0.01   0.00  -0.06
    12   6    -0.02   0.03  -0.03     0.00  -0.03  -0.07     0.03   0.00   0.01
    13   6    -0.01   0.08  -0.02     0.02  -0.09  -0.08     0.04   0.09   0.02
    14   6    -0.02   0.05  -0.02    -0.01  -0.04  -0.04     0.02  -0.05   0.01
    15   6    -0.00   0.05  -0.00    -0.01  -0.02   0.03     0.02  -0.05  -0.01
    16   6     0.00   0.05   0.01    -0.03  -0.03   0.08     0.01  -0.05  -0.02
    17   6     0.01   0.04   0.04    -0.01  -0.01   0.06    -0.00  -0.06   0.01
    18   6     0.03   0.02   0.04    -0.01   0.02   0.06    -0.02  -0.11   0.01
    19   6    -0.01  -0.06   0.02    -0.00   0.04   0.04    -0.02   0.03  -0.02
    20   8    -0.03  -0.15   0.16    -0.05   0.15  -0.06    -0.07  -0.04   0.12
    21   6    -0.03  -0.05  -0.02     0.08   0.00   0.19     0.01   0.09  -0.10
    22   6    -0.05  -0.04  -0.01     0.02  -0.01   0.02     0.09   0.07  -0.01
    23   6    -0.05  -0.00   0.00     0.03   0.01  -0.12     0.06  -0.02   0.07
    24   1    -0.02  -0.15  -0.20     0.03   0.04  -0.15     0.08   0.13  -0.14
    25   1     0.05  -0.19  -0.21     0.00   0.05  -0.22    -0.02   0.19  -0.11
    26   1     0.15  -0.18  -0.13     0.14   0.03  -0.12     0.06   0.07  -0.07
    27   1    -0.08  -0.04  -0.05    -0.11   0.05  -0.04    -0.06   0.14  -0.03
    28   1     0.12  -0.11  -0.12    -0.06   0.05  -0.05    -0.15   0.15   0.15
    29   1     0.07   0.00   0.12    -0.09   0.04   0.06    -0.13   0.07   0.06
    30   1     0.29  -0.07   0.04     0.03   0.01   0.03    -0.21   0.01   0.08
    31   1     0.04   0.10   0.04     0.03   0.05   0.05     0.00  -0.03   0.00
    32   1    -0.01  -0.05   0.19     0.04  -0.01   0.13    -0.01   0.02  -0.06
    33   1    -0.08   0.06   0.19    -0.01   0.04   0.13     0.13  -0.00  -0.05
    34   1    -0.07   0.07   0.12     0.02  -0.02   0.05     0.08  -0.01   0.17
    35   1    -0.00   0.01   0.11     0.06  -0.01   0.05     0.00  -0.14   0.13
    36   1    -0.05   0.09   0.04    -0.05  -0.03   0.03    -0.01  -0.02   0.04
    37   1     0.05   0.09  -0.02     0.05  -0.02  -0.03     0.04  -0.04   0.01
    38   1     0.03   0.06  -0.14    -0.03  -0.03  -0.12    -0.05  -0.05  -0.06
    39   1    -0.02  -0.03  -0.10    -0.02  -0.09  -0.08    -0.09  -0.08  -0.05
    40   1     0.02   0.00  -0.20    -0.03  -0.02  -0.06    -0.07   0.00  -0.18
    41   1     0.05   0.09  -0.14    -0.05  -0.00  -0.06     0.02   0.08  -0.12
    42   1     0.04  -0.05  -0.07     0.06  -0.01  -0.04    -0.01  -0.06  -0.05
    43   1    -0.00   0.02  -0.04     0.01  -0.01  -0.07     0.05   0.02  -0.00
    44   1     0.05   0.14  -0.05    -0.05  -0.16  -0.04     0.11   0.17  -0.02
    45   1    -0.07   0.12   0.02     0.10  -0.14  -0.12    -0.04   0.14   0.09
    46   1    -0.03   0.04  -0.02    -0.05  -0.06  -0.04     0.03  -0.04   0.01
    47   1    -0.01   0.05  -0.01    -0.03  -0.04   0.05     0.02  -0.05  -0.03
    48   1     0.00   0.05  -0.01     0.03   0.02   0.03     0.01  -0.07  -0.01
    49   1    -0.01   0.08   0.01    -0.07  -0.06   0.08     0.02  -0.02  -0.02
    50   1     0.00   0.05  -0.01    -0.02  -0.01   0.13     0.01  -0.06  -0.04
    51   1     0.04   0.05   0.02    -0.01  -0.01   0.06    -0.02  -0.11   0.01
    52   1     0.06  -0.01   0.03    -0.04   0.04   0.07    -0.02  -0.12  -0.03
    53   1    -0.00  -0.00   0.05     0.02   0.03   0.06    -0.03  -0.12   0.03
    54   1    -0.03  -0.04  -0.02     0.29   0.03   0.18    -0.10   0.07  -0.10
    55   1    -0.03  -0.08  -0.02     0.03   0.00   0.38     0.03   0.13  -0.18
    56   1    -0.08  -0.04  -0.02     0.07   0.03  -0.01     0.09   0.06   0.01
    57   1    -0.05  -0.04  -0.02    -0.10  -0.11   0.02     0.16   0.13  -0.01
    58   1    -0.07   0.02   0.04    -0.01  -0.01  -0.24     0.13  -0.01   0.16
    59   1    -0.07  -0.03   0.01     0.13   0.11  -0.14     0.01  -0.11   0.08
                      7                      8                      9
                      A                      A                      A
 Frequencies --    137.8992               173.8786               182.8381
 Red. masses --      2.1613                 2.4837                 1.7589
 Frc consts  --      0.0242                 0.0442                 0.0346
 IR Inten    --      0.0641                 0.1822                 0.2095
  Atom  AN      X      Y      Z        X      Y      Z        X      Y      Z
     1   6     0.03  -0.00  -0.07     0.02   0.04  -0.04     0.02  -0.01   0.03
     2   6    -0.01   0.01  -0.00    -0.03  -0.02   0.00     0.04   0.01   0.00
     3   6     0.02   0.01   0.00    -0.11  -0.02  -0.00     0.09   0.01  -0.03
     4   6    -0.01   0.03   0.05     0.00  -0.06   0.03     0.02   0.02  -0.01
     5   6     0.00   0.01   0.14    -0.02  -0.06  -0.02     0.03   0.03  -0.06
     6   6     0.04   0.01  -0.12    -0.02  -0.02  -0.07     0.02   0.00   0.06
     7   6     0.01  -0.03  -0.06    -0.00  -0.02   0.01     0.01   0.00   0.02
     8   6    -0.01  -0.03  -0.04    -0.00   0.01   0.03     0.00  -0.03  -0.01
     9   6    -0.01  -0.02   0.01    -0.00   0.06   0.12    -0.01  -0.00   0.03
    10   6    -0.03  -0.02   0.07     0.03   0.03   0.01    -0.01  -0.02   0.01
    11   6    -0.02  -0.01   0.04     0.02   0.05  -0.06    -0.03  -0.01  -0.05
    12   6    -0.01  -0.02   0.03     0.00   0.06  -0.06    -0.02  -0.02  -0.05
    13   6    -0.06  -0.02   0.03     0.02   0.10  -0.06    -0.05  -0.01  -0.04
    14   6    -0.00  -0.03  -0.03     0.01   0.05  -0.05    -0.01  -0.02  -0.05
    15   6    -0.01  -0.04  -0.05     0.05   0.01  -0.08    -0.00  -0.01  -0.01
    16   6    -0.03  -0.02   0.01     0.01  -0.03   0.05    -0.01  -0.00   0.03
    17   6     0.00   0.01   0.01     0.01  -0.03   0.05     0.00   0.01   0.02
    18   6     0.07   0.05   0.01     0.04  -0.01   0.05    -0.01   0.03   0.02
    19   6    -0.02   0.02  -0.02     0.02  -0.02  -0.02    -0.04   0.00  -0.05
    20   8    -0.01   0.00  -0.00     0.04  -0.07   0.02    -0.07  -0.02   0.02
    21   6    -0.03   0.05  -0.09    -0.00  -0.07   0.04    -0.02   0.01  -0.03
    22   6     0.04   0.05   0.02    -0.05  -0.03   0.06     0.02   0.03   0.10
    23   6     0.03  -0.02   0.05    -0.02   0.03  -0.03     0.03  -0.02  -0.00
    24   1    -0.01  -0.01  -0.04     0.01   0.03   0.03     0.03  -0.00   0.01
    25   1     0.01  -0.04  -0.15    -0.00   0.01  -0.16     0.03   0.01   0.08
    26   1     0.11   0.03  -0.07     0.11   0.13  -0.05    -0.02  -0.03   0.03
    27   1    -0.07   0.01  -0.01    -0.05  -0.02  -0.00     0.05  -0.01   0.01
    28   1     0.00  -0.00  -0.08    -0.11   0.03   0.09     0.08  -0.02  -0.12
    29   1    -0.03   0.03   0.07    -0.07  -0.06  -0.08     0.04   0.02   0.03
    30   1     0.11   0.01   0.03    -0.23  -0.03  -0.03     0.19   0.04  -0.01
    31   1    -0.01   0.10   0.04     0.03  -0.09   0.04     0.03  -0.01   0.00
    32   1     0.17  -0.06   0.30     0.00  -0.05  -0.00    -0.05   0.09  -0.14
    33   1    -0.19   0.07   0.27    -0.06  -0.09  -0.01     0.14  -0.00  -0.13
    34   1    -0.02  -0.09  -0.27    -0.04  -0.07  -0.14     0.07   0.05   0.14
    35   1     0.19   0.16  -0.19    -0.02   0.07  -0.10    -0.03  -0.09   0.10
    36   1     0.01  -0.09  -0.05     0.01  -0.07   0.02    -0.02   0.03   0.01
    37   1    -0.04  -0.04  -0.04    -0.03  -0.06   0.03     0.01  -0.06  -0.01
    38   1    -0.04  -0.03   0.00     0.03   0.02   0.24    -0.01  -0.03   0.09
    39   1     0.04  -0.00   0.00    -0.07   0.18   0.13    -0.03   0.06   0.04
    40   1    -0.01  -0.01   0.12    -0.01   0.05  -0.01    -0.01  -0.01   0.05
    41   1    -0.07  -0.06   0.08     0.12  -0.00  -0.00    -0.00  -0.08   0.01
    42   1    -0.05   0.01   0.04     0.03   0.08  -0.06    -0.05   0.02  -0.05
    43   1    -0.07   0.02   0.06     0.00   0.26  -0.05    -0.10   0.40   0.03
    44   1    -0.11  -0.05   0.02    -0.10   0.03  -0.07    -0.39  -0.26  -0.03
    45   1    -0.02  -0.04   0.02     0.15   0.06  -0.04     0.32  -0.17  -0.11
    46   1     0.03  -0.03  -0.03    -0.01   0.11  -0.05    -0.03  -0.02  -0.05
    47   1    -0.04  -0.02  -0.11     0.04   0.05  -0.17    -0.02  -0.02  -0.01
    48   1     0.02  -0.09  -0.06     0.14  -0.06  -0.09     0.03   0.01  -0.01
    49   1    -0.09  -0.04   0.01    -0.09  -0.07   0.06    -0.04  -0.03   0.04
    50   1    -0.03  -0.00   0.06     0.06  -0.03   0.13    -0.01   0.01   0.07
    51   1     0.07  -0.12  -0.03     0.03  -0.24   0.02    -0.01   0.07   0.03
    52   1    -0.07   0.17   0.05    -0.15   0.12   0.05     0.02   0.01   0.02
    53   1     0.26   0.15   0.02     0.25   0.09   0.07    -0.05   0.02   0.00
    54   1    -0.15   0.03  -0.08     0.03  -0.12   0.03    -0.08  -0.07  -0.04
    55   1     0.00   0.08  -0.19    -0.01  -0.08   0.07    -0.00   0.06  -0.08
    56   1     0.05   0.03   0.05    -0.04  -0.07   0.13     0.08  -0.03   0.23
    57   1     0.09   0.12   0.02    -0.12   0.02   0.09    -0.03   0.19   0.15
    58   1     0.07  -0.03   0.10    -0.09   0.06  -0.05     0.02  -0.02  -0.01
    59   1     0.01  -0.07   0.06     0.04   0.04  -0.04     0.10  -0.04  -0.02
                     10                     11                     12
                      A                      A                      A
 Frequencies --    185.9619               203.8377               211.7463
 Red. masses --      2.0319                 2.8031                 2.2713
 Frc consts  --      0.0414                 0.0686                 0.0600
 IR Inten    --      0.7786                 0.2011                 0.1038
  Atom  AN      X      Y      Z        X      Y      Z        X      Y      Z
     1   6    -0.03   0.00  -0.04     0.14   0.08  -0.03     0.04   0.03   0.00
     2   6    -0.05  -0.01  -0.01     0.06  -0.02   0.03     0.04   0.02  -0.01
     3   6    -0.11  -0.02   0.02    -0.00  -0.01  -0.01     0.02   0.02   0.05
     4   6    -0.03  -0.02   0.00     0.07  -0.05   0.04     0.03   0.01  -0.04
     5   6    -0.05  -0.03   0.06     0.04  -0.04  -0.08     0.03  -0.01   0.09
     6   6    -0.05  -0.01   0.05     0.01  -0.03   0.03     0.05  -0.00  -0.07
     7   6    -0.02   0.02  -0.03     0.02  -0.00   0.00     0.03  -0.02  -0.04
     8   6     0.00   0.04  -0.07     0.00   0.03  -0.04    -0.00   0.00   0.03
     9   6     0.04   0.01  -0.09    -0.01   0.01  -0.10    -0.03   0.02   0.04
    10   6     0.02  -0.00   0.06    -0.04   0.03   0.03    -0.02   0.01  -0.01
    11   6     0.04   0.02   0.04    -0.04   0.02   0.07    -0.05   0.01  -0.04
    12   6     0.02   0.01   0.00    -0.05   0.01   0.04    -0.01   0.01   0.01
    13   6    -0.02  -0.03   0.01    -0.10  -0.04   0.04     0.08   0.03   0.00
    14   6     0.01   0.02  -0.01    -0.02   0.02   0.00    -0.00  -0.00   0.07
    15   6     0.01   0.04   0.05     0.02  -0.01  -0.02     0.01   0.00   0.10
    16   6     0.02   0.01  -0.00     0.03  -0.02   0.01     0.06  -0.02  -0.07
    17   6    -0.01  -0.00  -0.02     0.06  -0.02   0.04     0.03  -0.03  -0.07
    18   6    -0.01  -0.00  -0.02     0.15  -0.03   0.05     0.01  -0.07  -0.08
    19   6     0.06  -0.01  -0.00    -0.05   0.01   0.03    -0.06  -0.00  -0.02
    20   8     0.11  -0.04  -0.01    -0.01   0.02  -0.03    -0.09  -0.00   0.00
    21   6     0.01  -0.01  -0.05    -0.09   0.00  -0.01    -0.05  -0.02   0.04
    22   6     0.02   0.02   0.04    -0.10  -0.00  -0.04    -0.07  -0.02  -0.00
    23   6     0.03   0.02  -0.00    -0.09   0.02   0.00    -0.06   0.02  -0.02
    24   1    -0.02   0.00  -0.03     0.10   0.06   0.15     0.06   0.03   0.01
    25   1    -0.04   0.01  -0.06     0.10   0.00  -0.24     0.04   0.04   0.01
    26   1    -0.00   0.01  -0.03     0.30   0.28  -0.05     0.03   0.03   0.00
    27   1    -0.06   0.00  -0.01     0.04  -0.03   0.03     0.07   0.05  -0.01
    28   1    -0.10   0.03   0.14    -0.01   0.02   0.01     0.03   0.04   0.14
    29   1    -0.05  -0.03  -0.05    -0.01  -0.05  -0.04     0.06   0.04   0.02
    30   1    -0.24  -0.05   0.00    -0.04   0.00  -0.02    -0.06  -0.03   0.04
    31   1    -0.04   0.01  -0.01     0.08  -0.12   0.05     0.00   0.08  -0.05
    32   1    -0.03  -0.07   0.09    -0.05   0.03  -0.18     0.15  -0.11   0.21
    33   1    -0.08   0.00   0.09     0.14  -0.12  -0.17    -0.11   0.07   0.20
    34   1    -0.09   0.03   0.08     0.03   0.02   0.10     0.01  -0.06  -0.16
    35   1    -0.03  -0.06   0.06    -0.05  -0.10   0.06     0.14   0.08  -0.11
    36   1    -0.06   0.05  -0.03    -0.01   0.00  -0.00     0.08  -0.02  -0.03
    37   1     0.01   0.07  -0.07     0.03   0.09  -0.04    -0.04   0.02   0.03
    38   1     0.02   0.03  -0.18    -0.05   0.04  -0.21    -0.03  -0.00   0.08
    39   1     0.14  -0.06  -0.10     0.07  -0.09  -0.11    -0.06   0.05   0.04
    40   1     0.06   0.02   0.15     0.01   0.02   0.06    -0.03   0.01  -0.02
    41   1    -0.10  -0.05   0.08    -0.14   0.04   0.04     0.02   0.00  -0.02
    42   1     0.04   0.05   0.04    -0.04   0.01   0.07    -0.07   0.00  -0.03
    43   1    -0.06   0.29   0.07    -0.11  -0.05   0.08     0.06   0.33  -0.02
    44   1    -0.30  -0.25   0.04    -0.12  -0.06   0.05    -0.13  -0.13   0.04
    45   1     0.27  -0.17  -0.08    -0.11  -0.05  -0.00     0.36  -0.08  -0.01
    46   1     0.01  -0.04  -0.02     0.00   0.02   0.00    -0.03  -0.04   0.07
    47   1     0.03   0.01   0.14     0.04   0.02  -0.06     0.06  -0.02   0.20
    48   1    -0.02   0.13   0.06     0.04  -0.05  -0.03    -0.08   0.09   0.12
    49   1     0.06   0.00  -0.00     0.00  -0.01   0.01     0.19   0.02  -0.08
    50   1     0.02   0.00  -0.01     0.02  -0.01   0.02     0.01  -0.03  -0.16
    51   1     0.00   0.22  -0.00     0.19   0.06  -0.01     0.02   0.07  -0.06
    52   1     0.16  -0.13  -0.01     0.24  -0.08   0.08     0.14  -0.17  -0.10
    53   1    -0.22  -0.10  -0.04     0.10  -0.07   0.07    -0.13  -0.15  -0.07
    54   1    -0.08  -0.03  -0.05    -0.12   0.04  -0.00     0.01  -0.03   0.03
    55   1     0.03  -0.01  -0.13    -0.09  -0.03  -0.04    -0.06  -0.02   0.09
    56   1     0.03  -0.02   0.11    -0.12   0.01  -0.08    -0.07  -0.02  -0.02
    57   1     0.00   0.10   0.06    -0.08  -0.05  -0.05    -0.10  -0.05  -0.00
    58   1     0.01   0.02  -0.03    -0.09   0.02  -0.00    -0.09   0.02  -0.05
    59   1     0.06   0.04  -0.01    -0.12   0.05   0.01    -0.05   0.06  -0.02
                     13                     14                     15
                      A                      A                      A
 Frequencies --    229.4042               237.8489               250.5151
 Red. masses --      1.2834                 1.2486                 1.4733
 Frc consts  --      0.0398                 0.0416                 0.0545
 IR Inten    --      0.1633                 0.3211                 0.7399
  Atom  AN      X      Y      Z        X      Y      Z        X      Y      Z
     1   6     0.03   0.01  -0.01     0.00  -0.01  -0.01    -0.01   0.04   0.01
     2   6     0.01  -0.01   0.01     0.00  -0.01   0.01    -0.03   0.02   0.03
     3   6    -0.02  -0.01   0.01     0.02  -0.01   0.03     0.07   0.02   0.02
     4   6     0.00  -0.01   0.01    -0.01   0.01  -0.00    -0.03   0.01   0.02
     5   6    -0.00  -0.01   0.02    -0.03   0.01  -0.02    -0.01   0.01  -0.03
     6   6    -0.00  -0.00  -0.01    -0.03   0.03  -0.00     0.00  -0.01  -0.05
     7   6     0.00   0.00  -0.02    -0.01   0.03   0.02    -0.02  -0.03   0.00
     8   6     0.00  -0.01  -0.02    -0.00   0.01   0.03    -0.01  -0.02   0.00
     9   6     0.00   0.02   0.07     0.00  -0.01  -0.01    -0.01  -0.02  -0.01
    10   6     0.01  -0.02   0.02     0.01  -0.02  -0.03    -0.01   0.01   0.01
    11   6    -0.01  -0.01  -0.03    -0.00  -0.03  -0.01     0.02   0.02   0.01
    12   6    -0.00  -0.01  -0.04     0.01  -0.02   0.02     0.01   0.02   0.00
    13   6    -0.03   0.01  -0.04     0.03  -0.05   0.01     0.03   0.04   0.00
    14   6    -0.00  -0.01  -0.04     0.00   0.00   0.03    -0.00  -0.00   0.00
    15   6    -0.01   0.01   0.00    -0.01   0.01  -0.00    -0.01  -0.01  -0.01
    16   6    -0.00   0.00   0.01    -0.00   0.04  -0.03    -0.02  -0.01  -0.01
    17   6     0.01   0.01  -0.00    -0.01   0.02  -0.00    -0.03  -0.02   0.02
    18   6     0.01   0.05   0.00    -0.02   0.00  -0.00    -0.06  -0.07   0.01
    19   6    -0.01  -0.00  -0.02    -0.00  -0.00  -0.01     0.03   0.00   0.01
    20   8    -0.04   0.00   0.00    -0.03   0.01   0.00     0.07  -0.02   0.00
    21   6     0.01   0.00   0.00     0.02   0.01  -0.01     0.01  -0.01   0.00
    22   6     0.03   0.00   0.03     0.03   0.01   0.00    -0.01  -0.00  -0.01
    23   6     0.02  -0.02   0.00     0.02  -0.02   0.01     0.00   0.02  -0.01
    24   1    -0.05  -0.01   0.13    -0.25  -0.08   0.35    -0.15   0.00   0.25
    25   1     0.03  -0.10  -0.16     0.04  -0.33  -0.33     0.00  -0.15  -0.21
    26   1     0.13   0.17  -0.03     0.23   0.38  -0.06     0.14   0.31  -0.03
    27   1    -0.00  -0.02   0.01    -0.01  -0.01   0.00    -0.05   0.02   0.03
    28   1    -0.00  -0.00   0.09     0.09  -0.03   0.28    -0.01  -0.03  -0.36
    29   1     0.03  -0.01  -0.04     0.19   0.02  -0.15    -0.16   0.07   0.31
    30   1    -0.10  -0.03  -0.00    -0.23  -0.02  -0.02     0.49   0.03   0.12
    31   1    -0.00  -0.00   0.01    -0.01  -0.00   0.00    -0.05  -0.02   0.03
    32   1     0.01  -0.02   0.03    -0.04   0.02  -0.04     0.00   0.05  -0.03
    33   1    -0.03  -0.01   0.03    -0.02  -0.00  -0.04    -0.01  -0.02  -0.04
    34   1    -0.02   0.00  -0.01    -0.02   0.02  -0.01     0.02  -0.05  -0.09
    35   1     0.01  -0.01  -0.01    -0.05   0.05  -0.01     0.01   0.03  -0.07
    36   1    -0.00   0.00  -0.02     0.01   0.03   0.02    -0.02  -0.07   0.01
    37   1    -0.01  -0.07  -0.02     0.01   0.02   0.03    -0.01  -0.01   0.00
    38   1     0.02  -0.02   0.17     0.02   0.01  -0.02    -0.03  -0.01  -0.04
    39   1    -0.02   0.13   0.08    -0.02  -0.03  -0.01    -0.00  -0.05  -0.02
    40   1     0.01  -0.01   0.04     0.01  -0.03  -0.06    -0.03   0.03   0.01
    41   1     0.05  -0.05   0.02     0.03   0.00  -0.04    -0.03   0.02   0.01
    42   1    -0.02   0.02  -0.03    -0.01  -0.06  -0.01     0.04   0.03   0.01
    43   1    -0.01  -0.22  -0.04     0.02   0.04   0.01     0.02   0.10  -0.01
    44   1     0.15   0.16  -0.07    -0.04  -0.11   0.04    -0.01   0.01  -0.00
    45   1    -0.26   0.11   0.01     0.12  -0.09  -0.02     0.08   0.02   0.01
    46   1    -0.01  -0.02  -0.04     0.00   0.01   0.03     0.00   0.00   0.00
    47   1    -0.01  -0.02   0.04    -0.02   0.01  -0.02    -0.01  -0.01  -0.03
    48   1    -0.02   0.06   0.01    -0.03  -0.02  -0.01    -0.01  -0.02  -0.02
    49   1    -0.01  -0.01   0.01     0.03   0.08  -0.03    -0.02   0.01  -0.01
    50   1    -0.01   0.01   0.02    -0.01   0.02  -0.08    -0.01  -0.02  -0.03
    51   1     0.04   0.50   0.02    -0.04  -0.15  -0.00    -0.05   0.06   0.03
    52   1     0.36  -0.18   0.05    -0.15   0.08  -0.03     0.06  -0.18  -0.02
    53   1    -0.38  -0.12  -0.07     0.11   0.06   0.02    -0.20  -0.15   0.02
    54   1     0.01  -0.02   0.00     0.02   0.01  -0.01     0.01  -0.00   0.00
    55   1     0.01   0.02   0.01     0.02   0.02  -0.00     0.01  -0.02   0.00
    56   1     0.05  -0.01   0.05     0.04   0.01   0.00    -0.02  -0.00  -0.01
    57   1     0.02   0.03   0.03     0.04   0.01   0.00    -0.01  -0.01  -0.01
    58   1     0.03  -0.02   0.01     0.04  -0.03   0.02    -0.02   0.03  -0.03
    59   1     0.04  -0.05  -0.00     0.01  -0.03   0.01     0.01   0.05  -0.01
                     16                     17                     18
                      A                      A                      A
 Frequencies --    256.5657               269.6555               271.5291
 Red. masses --      2.0205                 2.1713                 1.6415
 Frc consts  --      0.0784                 0.0930                 0.0713
 IR Inten    --      0.6571                 0.1020                 0.0049
  Atom  AN      X      Y      Z        X      Y      Z        X      Y      Z
     1   6    -0.01  -0.00  -0.02    -0.02   0.01  -0.00     0.04   0.05   0.01
     2   6    -0.04  -0.02   0.02    -0.03  -0.00  -0.00     0.00  -0.02   0.01
     3   6    -0.07  -0.02  -0.04    -0.01  -0.01   0.01    -0.04  -0.03   0.02
     4   6    -0.02  -0.02   0.05    -0.03  -0.00  -0.01     0.00  -0.03  -0.01
     5   6    -0.05  -0.01  -0.04    -0.02  -0.00   0.01    -0.03  -0.04   0.00
     6   6    -0.06   0.04  -0.05    -0.02  -0.03   0.11    -0.05   0.01   0.01
     7   6    -0.01   0.04   0.02    -0.02   0.01  -0.07    -0.00   0.04  -0.02
     8   6    -0.00   0.03   0.05    -0.02  -0.03  -0.06     0.00   0.04  -0.00
     9   6     0.01   0.01   0.02     0.01  -0.02   0.01     0.02   0.04   0.01
    10   6     0.02  -0.03  -0.04    -0.02  -0.04   0.10     0.02  -0.00  -0.01
    11   6    -0.01  -0.05  -0.01    -0.01   0.00  -0.01    -0.01  -0.01  -0.02
    12   6     0.02  -0.03   0.04     0.01   0.00  -0.00    -0.00  -0.01  -0.02
    13   6     0.09  -0.04   0.04     0.11   0.12  -0.00    -0.02  -0.08  -0.03
    14   6     0.01   0.01   0.05     0.00  -0.04  -0.01    -0.01   0.01   0.02
    15   6    -0.01  -0.01  -0.06    -0.00  -0.03   0.02    -0.01   0.04   0.09
    16   6    -0.01   0.06  -0.05    -0.00  -0.02  -0.00     0.03   0.02  -0.03
    17   6     0.01   0.03   0.03     0.00   0.00  -0.06     0.02   0.00  -0.04
    18   6     0.11   0.02   0.04     0.08   0.11  -0.06     0.03  -0.02  -0.04
    19   6    -0.01  -0.01  -0.01    -0.02  -0.00   0.01    -0.01  -0.00  -0.03
    20   8    -0.06   0.02   0.00    -0.03   0.01   0.00    -0.03  -0.01   0.00
    21   6     0.03   0.01   0.01     0.00  -0.01   0.03     0.01   0.00  -0.02
    22   6     0.03  -0.01  -0.03    -0.00  -0.04  -0.06     0.03   0.02   0.07
    23   6     0.02  -0.04   0.03    -0.01  -0.03   0.03     0.03  -0.00  -0.02
    24   1     0.08   0.02  -0.15    -0.10  -0.01   0.13     0.08   0.05   0.07
    25   1    -0.04   0.11   0.06    -0.01  -0.10  -0.11     0.01   0.07  -0.03
    26   1    -0.05  -0.15   0.00     0.05   0.15  -0.02     0.05   0.10   0.00
    27   1    -0.07  -0.04   0.02    -0.03  -0.00  -0.00     0.01  -0.02   0.01
    28   1    -0.14   0.01  -0.25    -0.05  -0.01  -0.12    -0.15   0.02  -0.29
    29   1    -0.22  -0.08   0.09    -0.10   0.01   0.11    -0.28  -0.06   0.27
    30   1     0.12   0.01  -0.00     0.13  -0.02   0.04     0.27  -0.06   0.10
    31   1    -0.00  -0.05   0.06    -0.06   0.01  -0.02    -0.02  -0.03  -0.01
    32   1    -0.06   0.04  -0.07    -0.08   0.01  -0.04    -0.04  -0.06   0.00
    33   1    -0.05  -0.07  -0.08     0.07   0.01  -0.03    -0.04  -0.04   0.01
    34   1    -0.07   0.01  -0.10    -0.02   0.09   0.26    -0.08   0.03   0.02
    35   1    -0.09   0.10  -0.07    -0.04  -0.21   0.17    -0.06  -0.00   0.01
    36   1     0.02   0.01   0.03    -0.05   0.09  -0.08     0.00   0.06  -0.02
    37   1     0.00   0.05   0.05    -0.05  -0.03  -0.06    -0.01   0.04  -0.00
    38   1     0.05   0.02   0.04    -0.02  -0.03   0.01     0.04   0.03   0.05
    39   1    -0.03   0.01   0.02     0.08   0.02   0.00     0.00   0.07   0.02
    40   1     0.02  -0.05  -0.08     0.01   0.00   0.23     0.03  -0.01  -0.01
    41   1     0.07  -0.00  -0.05    -0.10  -0.16   0.12     0.04  -0.02  -0.01
    42   1    -0.02  -0.09  -0.01    -0.02   0.06  -0.01    -0.03  -0.01  -0.02
    43   1     0.09   0.16   0.00     0.13   0.21  -0.09    -0.01  -0.28  -0.02
    44   1    -0.04  -0.17   0.09     0.11   0.14  -0.03     0.12   0.01  -0.01
    45   1     0.30  -0.13   0.01     0.19   0.14   0.11    -0.20  -0.02  -0.06
    46   1     0.04   0.06   0.05     0.02  -0.08  -0.02    -0.05  -0.03   0.02
    47   1    -0.03   0.04  -0.17    -0.01  -0.04   0.04     0.04  -0.00   0.22
    48   1    -0.00  -0.13  -0.07     0.00  -0.00   0.02    -0.08   0.16   0.11
    49   1    -0.01   0.15  -0.05     0.01  -0.07  -0.00     0.13   0.05  -0.04
    50   1    -0.04   0.05  -0.12    -0.02   0.00   0.04    -0.01   0.02  -0.10
    51   1     0.17   0.25  -0.03     0.09  -0.01  -0.11     0.01  -0.26  -0.05
    52   1     0.32  -0.11   0.10    -0.02   0.22   0.03    -0.16   0.11  -0.07
    53   1    -0.06  -0.08   0.06     0.24   0.19  -0.08     0.24   0.07   0.00
    54   1     0.07   0.03   0.01     0.07   0.03   0.03    -0.03  -0.06  -0.02
    55   1     0.02   0.02   0.04    -0.01  -0.02   0.09     0.01   0.03  -0.04
    56   1     0.02   0.02  -0.08    -0.03   0.01  -0.15     0.07  -0.03   0.17
    57   1     0.07  -0.05  -0.05     0.04  -0.14  -0.09    -0.02   0.12   0.10
    58   1     0.06  -0.04   0.08     0.00  -0.01   0.09     0.02  -0.01  -0.07
    59   1    -0.04  -0.07   0.04    -0.07  -0.07   0.04     0.10   0.02  -0.04
                     19                     20                     21
                      A                      A                      A
 Frequencies --    287.0454               303.4555               305.4962
 Red. masses --      2.0565                 2.5037                 2.4538
 Frc consts  --      0.0998                 0.1358                 0.1349
 IR Inten    --      0.3126                 0.7367                 0.7870
  Atom  AN      X      Y      Z        X      Y      Z        X      Y      Z
     1   6    -0.04  -0.04  -0.02     0.08   0.05   0.03    -0.11  -0.04  -0.02
     2   6    -0.03   0.03   0.01     0.06  -0.04  -0.02    -0.06   0.03  -0.02
     3   6     0.03   0.04  -0.03    -0.02  -0.05   0.04    -0.00   0.03  -0.02
     4   6    -0.02   0.03   0.03     0.03  -0.03  -0.06    -0.03   0.02  -0.01
     5   6     0.00   0.03  -0.03    -0.00  -0.04   0.04     0.02   0.02  -0.00
     6   6     0.00   0.01  -0.03    -0.01  -0.01   0.04     0.03  -0.04   0.04
     7   6    -0.01  -0.01   0.01     0.01  -0.00   0.01     0.01  -0.03  -0.04
     8   6    -0.01  -0.00  -0.00    -0.01  -0.01   0.04    -0.01  -0.04   0.04
     9   6    -0.02  -0.02  -0.06    -0.05  -0.02  -0.03    -0.05  -0.00   0.07
    10   6    -0.06   0.00   0.08    -0.04   0.05  -0.04     0.01   0.08  -0.12
    11   6    -0.02   0.04  -0.00    -0.01   0.03   0.03     0.01   0.02   0.02
    12   6     0.02   0.01  -0.03     0.01   0.01   0.03    -0.00   0.01   0.04
    13   6     0.15  -0.02  -0.05     0.13  -0.08   0.01    -0.04  -0.06   0.04
    14   6    -0.00  -0.01   0.02     0.01   0.00   0.02    -0.00  -0.03   0.05
    15   6    -0.01  -0.01   0.01     0.01  -0.05  -0.12    -0.01  -0.04   0.04
    16   6     0.00   0.02  -0.01    -0.02  -0.01  -0.01    -0.00  -0.05  -0.01
    17   6    -0.01   0.00   0.03     0.00   0.01  -0.03     0.00  -0.02  -0.05
    18   6     0.08  -0.05   0.04    -0.11   0.15  -0.04     0.16   0.07  -0.04
    19   6    -0.03   0.01  -0.02    -0.01   0.02   0.01     0.03   0.01   0.01
    20   8     0.00  -0.03   0.00     0.04  -0.01   0.00     0.08  -0.02   0.00
    21   6    -0.06  -0.02  -0.01    -0.06  -0.01  -0.01    -0.01  -0.00  -0.01
    22   6    -0.02   0.00   0.12    -0.03   0.01   0.07    -0.02   0.03   0.02
    23   6     0.01   0.02  -0.04    -0.01   0.02  -0.01    -0.00   0.06  -0.04
    24   1    -0.08  -0.03  -0.09     0.16   0.05   0.08    -0.24  -0.06   0.06
    25   1    -0.03  -0.04   0.01     0.05   0.10   0.03    -0.06  -0.18  -0.06
    26   1    -0.04  -0.10  -0.01     0.04   0.09   0.02    -0.07   0.05  -0.03
    27   1    -0.05   0.02   0.01     0.10  -0.02  -0.02    -0.06   0.03  -0.02
    28   1     0.09  -0.03   0.10    -0.07   0.03  -0.01     0.02  -0.01  -0.03
    29   1     0.15   0.05  -0.17    -0.10  -0.06   0.13     0.02   0.07  -0.00
    30   1    -0.11   0.10  -0.08     0.04  -0.13   0.08     0.03   0.04  -0.01
    31   1    -0.00  -0.00   0.04     0.03   0.01  -0.07    -0.05   0.03  -0.01
    32   1    -0.02   0.09  -0.06     0.01  -0.12   0.08     0.00   0.04  -0.02
    33   1     0.03  -0.01  -0.07    -0.04   0.02   0.09     0.07   0.04  -0.01
    34   1     0.03  -0.01  -0.04    -0.03   0.00   0.05     0.06   0.01   0.12
    35   1    -0.00   0.03  -0.03    -0.00  -0.02   0.04     0.04  -0.13   0.07
    36   1    -0.02  -0.03   0.01     0.04   0.04   0.01     0.05   0.01  -0.04
    37   1     0.01   0.04  -0.00     0.01   0.00   0.04    -0.05  -0.05   0.03
    38   1    -0.07   0.00  -0.16    -0.07  -0.01  -0.09    -0.04  -0.04   0.19
    39   1     0.06  -0.12  -0.07    -0.06  -0.10  -0.03    -0.18   0.09   0.09
    40   1    -0.03   0.04   0.20    -0.07   0.04  -0.10    -0.09   0.03  -0.34
    41   1    -0.17  -0.09   0.10    -0.04   0.12  -0.04     0.17   0.26  -0.15
    42   1    -0.05   0.10   0.00    -0.01   0.01   0.03     0.02  -0.05   0.02
    43   1     0.20  -0.24  -0.17     0.16  -0.13  -0.08    -0.05  -0.07   0.08
    44   1     0.39   0.10   0.01     0.21  -0.09   0.10    -0.07  -0.10   0.06
    45   1    -0.01   0.05  -0.00     0.13  -0.09  -0.02    -0.04  -0.09  -0.04
    46   1    -0.01  -0.02   0.02     0.05   0.08   0.02    -0.01  -0.04   0.05
    47   1    -0.01  -0.01   0.01    -0.02   0.02  -0.29     0.01  -0.04   0.06
    48   1    -0.02  -0.02   0.01     0.07  -0.22  -0.14    -0.04  -0.04   0.04
    49   1     0.03   0.07  -0.02    -0.10  -0.02  -0.00     0.02  -0.08  -0.01
    50   1    -0.00  -0.00  -0.07    -0.02   0.01   0.04    -0.02  -0.03   0.01
    51   1     0.12  -0.04  -0.03    -0.14   0.25   0.04     0.22   0.14  -0.14
    52   1     0.13  -0.09   0.05    -0.10   0.17   0.01     0.22   0.08   0.11
    53   1     0.08  -0.08   0.10    -0.17   0.18  -0.19     0.18   0.09  -0.05
    54   1    -0.15  -0.11  -0.01    -0.16  -0.04  -0.01    -0.04  -0.01  -0.01
    55   1    -0.03   0.02  -0.09    -0.04   0.00  -0.09     0.00  -0.01  -0.04
    56   1     0.05  -0.06   0.25    -0.00  -0.03   0.14    -0.02  -0.00   0.07
    57   1    -0.09   0.14   0.16    -0.07   0.07   0.09    -0.06   0.07   0.04
    58   1    -0.06   0.02  -0.12    -0.06   0.02  -0.07    -0.04   0.04  -0.15
    59   1     0.13   0.07  -0.06     0.05   0.07  -0.02     0.05   0.17  -0.04
                     22                     23                     24
                      A                      A                      A
 Frequencies --    325.9314               345.7950               358.1057
 Red. masses --      2.7835                 2.5484                 2.4267
 Frc consts  --      0.1742                 0.1795                 0.1834
 IR Inten    --      0.6324                 0.4552                 1.4046
  Atom  AN      X      Y      Z        X      Y      Z        X      Y      Z
     1   6     0.12   0.02   0.01     0.09   0.11  -0.02     0.06  -0.07   0.00
     2   6     0.06  -0.04   0.03     0.01   0.03   0.03    -0.01  -0.04   0.10
     3   6    -0.01  -0.04  -0.01     0.14   0.05  -0.00    -0.08  -0.05  -0.03
     4   6     0.01   0.00   0.02    -0.03  -0.01   0.01    -0.01   0.02   0.09
     5   6    -0.02   0.01  -0.02    -0.10  -0.03   0.00     0.07   0.06  -0.01
     6   6    -0.03   0.04  -0.01    -0.12  -0.01  -0.00     0.10  -0.01  -0.01
     7   6    -0.02   0.02   0.03    -0.08  -0.00  -0.04     0.02  -0.03  -0.03
     8   6    -0.04  -0.07   0.06    -0.07  -0.01  -0.04     0.02  -0.04  -0.07
     9   6    -0.02  -0.13   0.01    -0.11   0.03   0.04    -0.05   0.04   0.03
    10   6    -0.01  -0.04   0.01    -0.07   0.01  -0.04    -0.03   0.06  -0.03
    11   6     0.02  -0.00  -0.01     0.00   0.01   0.00     0.00   0.04   0.02
    12   6    -0.02   0.00  -0.01     0.01  -0.01  -0.01     0.01  -0.00  -0.02
    13   6    -0.06   0.13  -0.01     0.03  -0.05  -0.01     0.04  -0.03  -0.03
    14   6    -0.07  -0.09   0.06    -0.01   0.00  -0.03     0.02  -0.03  -0.06
    15   6    -0.11  -0.08   0.05     0.01   0.03   0.02    -0.04   0.04   0.03
    16   6    -0.05   0.05  -0.09     0.01  -0.01   0.01    -0.01   0.06  -0.08
    17   6    -0.01   0.03   0.00    -0.03  -0.02  -0.01    -0.01   0.02   0.02
    18   6     0.03   0.05   0.01     0.03  -0.01  -0.00    -0.06   0.02   0.02
    19   6     0.05  -0.01  -0.01     0.03   0.00   0.03    -0.00   0.03   0.06
    20   8     0.07  -0.03   0.00     0.08  -0.02  -0.00     0.06   0.02   0.01
    21   6     0.07   0.01  -0.01     0.02  -0.01   0.02    -0.07   0.01   0.02
    22   6     0.01   0.05  -0.01     0.05  -0.03  -0.02    -0.01  -0.04  -0.01
    23   6     0.02   0.07  -0.08     0.03  -0.05   0.05    -0.01  -0.05   0.04
    24   1     0.23   0.03  -0.08     0.28   0.14  -0.16     0.04  -0.07  -0.06
    25   1     0.06   0.14   0.02     0.01   0.32   0.04     0.02  -0.07  -0.09
    26   1     0.12  -0.07   0.02     0.06  -0.04   0.01     0.18  -0.12   0.02
    27   1     0.06  -0.06   0.04     0.01   0.03   0.03    -0.06  -0.09   0.10
    28   1    -0.00   0.00   0.07     0.25  -0.10   0.16    -0.13   0.01  -0.11
    29   1     0.03  -0.10  -0.09     0.33   0.14  -0.14    -0.14  -0.20  -0.07
    30   1    -0.13  -0.02  -0.04     0.01   0.12  -0.05    -0.09   0.05  -0.07
    31   1     0.01  -0.01   0.02    -0.04  -0.02   0.02    -0.07  -0.01   0.09
    32   1    -0.04   0.02  -0.03    -0.11  -0.05  -0.00     0.04   0.20  -0.08
    33   1    -0.02  -0.02  -0.04    -0.11  -0.05  -0.00     0.16  -0.00  -0.09
    34   1    -0.03   0.01  -0.06    -0.14   0.01   0.02     0.13   0.00   0.02
    35   1    -0.05   0.10  -0.03    -0.12  -0.04   0.00     0.12  -0.05   0.01
    36   1     0.01   0.03   0.03    -0.11   0.01  -0.04    -0.03  -0.05  -0.03
    37   1    -0.05  -0.05   0.06    -0.09  -0.05  -0.04     0.02  -0.11  -0.07
    38   1    -0.04  -0.10  -0.08    -0.07  -0.01   0.18    -0.07  -0.04   0.17
    39   1    -0.01  -0.22   0.01    -0.17   0.17   0.05    -0.10   0.18   0.04
    40   1    -0.08   0.00  -0.00    -0.11   0.02  -0.08    -0.06   0.05  -0.09
    41   1    -0.00  -0.03   0.01    -0.04   0.05  -0.04     0.00   0.12  -0.04
    42   1     0.03   0.02  -0.01     0.04  -0.01  -0.00     0.05   0.04   0.01
    43   1    -0.07   0.19   0.04     0.04  -0.03  -0.04     0.04   0.01  -0.06
    44   1    -0.10   0.17  -0.11     0.02  -0.09   0.04     0.02  -0.07   0.01
    45   1    -0.05   0.16   0.08     0.07  -0.08  -0.05     0.10  -0.06  -0.05
    46   1    -0.12  -0.09   0.06     0.01  -0.03  -0.03     0.04  -0.09  -0.07
    47   1    -0.12  -0.10   0.08     0.01  -0.00   0.09    -0.05  -0.04   0.20
    48   1    -0.20  -0.08   0.06     0.00   0.10   0.03    -0.13   0.21   0.05
    49   1     0.08   0.23  -0.10     0.01  -0.05   0.01     0.08   0.21  -0.09
    50   1    -0.16   0.04  -0.29     0.04  -0.02   0.03    -0.04   0.02  -0.23
    51   1     0.03   0.04  -0.01     0.05  -0.03  -0.05    -0.10  -0.05   0.08
    52   1     0.01   0.08   0.05     0.03  -0.01   0.02    -0.14   0.06  -0.03
    53   1     0.06   0.07  -0.01     0.06  -0.01   0.02    -0.02   0.05  -0.02
    54   1     0.12  -0.00  -0.01     0.02   0.02   0.02    -0.15   0.05   0.03
    55   1     0.05  -0.00   0.04     0.02   0.01   0.02    -0.04  -0.00  -0.07
    56   1     0.02   0.01   0.05     0.03   0.00  -0.08    -0.00   0.01  -0.07
    57   1    -0.05   0.08   0.02     0.11  -0.09  -0.04     0.04  -0.08  -0.03
    58   1    -0.00   0.03  -0.22     0.06  -0.03   0.16    -0.01  -0.01   0.15
    59   1     0.09   0.20  -0.09    -0.02  -0.16   0.06    -0.06  -0.16   0.05
                     25                     26                     27
                      A                      A                      A
 Frequencies --    380.6765               381.4337               400.8744
 Red. masses --      2.4842                 2.7440                 3.0862
 Frc consts  --      0.2121                 0.2352                 0.2922
 IR Inten    --      0.2479                 0.3172                 1.4843
  Atom  AN      X      Y      Z        X      Y      Z        X      Y      Z
     1   6    -0.10   0.03  -0.00    -0.00   0.02  -0.02    -0.01   0.05  -0.03
     2   6    -0.03   0.02  -0.09    -0.06   0.01   0.08    -0.08   0.02   0.07
     3   6     0.01   0.02   0.02     0.03   0.03  -0.02     0.08   0.04  -0.02
     4   6     0.03  -0.04  -0.04    -0.04  -0.03   0.08    -0.05  -0.05   0.07
     5   6     0.01  -0.06   0.00     0.02  -0.03   0.01    -0.02  -0.06   0.01
     6   6    -0.01   0.00   0.00     0.02  -0.07   0.01    -0.02  -0.07  -0.00
     7   6     0.01  -0.01   0.10    -0.01  -0.06  -0.02     0.00  -0.04  -0.02
     8   6     0.01  -0.04   0.07     0.00   0.01  -0.03     0.03  -0.00   0.00
     9   6    -0.06  -0.06  -0.01    -0.03   0.04  -0.02     0.14  -0.04   0.02
    10   6    -0.07  -0.01   0.01    -0.03   0.01   0.02     0.15  -0.07  -0.02
    11   6     0.01   0.03  -0.02    -0.04   0.00   0.00     0.07  -0.06  -0.01
    12   6     0.02   0.00  -0.07     0.03   0.02   0.08    -0.02  -0.01  -0.02
    13   6    -0.07   0.01  -0.07    -0.04   0.00   0.11     0.03   0.00  -0.03
    14   6     0.03   0.00  -0.02     0.06   0.03   0.02    -0.00   0.01   0.00
    15   6     0.08   0.01   0.02     0.06   0.03  -0.03    -0.00   0.00  -0.00
    16   6     0.13   0.06  -0.07     0.08   0.02  -0.08     0.02  -0.02  -0.06
    17   6     0.03  -0.02   0.05    -0.01  -0.04   0.03    -0.01  -0.05  -0.00
    18   6     0.02   0.09   0.06    -0.07   0.09   0.02    -0.04   0.06  -0.00
    19   6    -0.00   0.02   0.03    -0.05  -0.05  -0.09     0.05   0.04   0.05
    20   8     0.03   0.02   0.01    -0.09  -0.08  -0.03    -0.03   0.11   0.04
    21   6    -0.04  -0.00   0.02     0.06  -0.05  -0.01    -0.06   0.05  -0.03
    22   6    -0.00  -0.04  -0.01     0.04  -0.04  -0.02    -0.13   0.09   0.03
    23   6    -0.01  -0.07   0.02     0.06   0.09  -0.03    -0.11  -0.01  -0.02
    24   1    -0.13   0.02   0.07     0.03   0.03  -0.10     0.07   0.06  -0.12
    25   1    -0.05  -0.02   0.07    -0.05   0.07  -0.06    -0.07   0.15  -0.06
    26   1    -0.20   0.09  -0.02     0.07  -0.06  -0.00     0.06  -0.04  -0.01
    27   1    -0.00   0.05  -0.09    -0.12  -0.01   0.07    -0.13   0.00   0.07
    28   1     0.01  -0.00  -0.00     0.08  -0.09  -0.04     0.16  -0.15   0.02
    29   1    -0.01   0.12   0.11     0.10   0.05  -0.09     0.21   0.11  -0.11
    30   1     0.09  -0.07   0.06     0.05   0.15  -0.06     0.06   0.17  -0.06
    31   1     0.10  -0.04  -0.03    -0.09  -0.07   0.08    -0.12  -0.08   0.07
    32   1     0.02  -0.13   0.04    -0.00   0.06  -0.03    -0.03  -0.01  -0.01
    33   1    -0.05  -0.03   0.05     0.07  -0.07  -0.03    -0.00  -0.09  -0.02
    34   1    -0.01  -0.07  -0.09     0.03  -0.05   0.03    -0.04  -0.05   0.02
    35   1    -0.04   0.13  -0.04     0.05  -0.11   0.02    -0.02  -0.10   0.00
    36   1     0.03  -0.01   0.10    -0.04  -0.08  -0.02     0.01  -0.05  -0.02
    37   1     0.08  -0.05   0.06    -0.02   0.03  -0.03     0.01  -0.01   0.00
    38   1    -0.09  -0.04  -0.09    -0.04   0.03  -0.01     0.19  -0.01   0.01
    39   1    -0.06  -0.16  -0.02    -0.00   0.05  -0.02     0.15  -0.04   0.02
    40   1    -0.09   0.03   0.07    -0.00   0.02   0.07     0.14  -0.10  -0.08
    41   1    -0.12  -0.05   0.02    -0.07  -0.03   0.03     0.23  -0.05  -0.04
    42   1     0.06   0.07  -0.03    -0.16  -0.04   0.02     0.13  -0.06  -0.01
    43   1    -0.09   0.02   0.00    -0.05  -0.04   0.17     0.04   0.01  -0.07
    44   1    -0.12  -0.00  -0.10    -0.04   0.02   0.08     0.06   0.02  -0.02
    45   1    -0.08   0.00  -0.10    -0.10   0.01   0.07     0.04   0.01   0.01
    46   1    -0.04   0.03  -0.02     0.13   0.02   0.01    -0.01   0.01   0.00
    47   1     0.08  -0.01   0.07     0.08   0.04  -0.03     0.03  -0.00   0.04
    48   1     0.04   0.06   0.03     0.02   0.02  -0.03    -0.05   0.04   0.00
    49   1     0.26   0.30  -0.09     0.13   0.19  -0.08     0.07   0.08  -0.07
    50   1     0.09  -0.02  -0.34     0.11  -0.06  -0.24     0.03  -0.08  -0.17
    51   1     0.02   0.13   0.06    -0.12   0.11   0.11    -0.06   0.09   0.05
    52   1     0.00   0.14   0.17    -0.14   0.15   0.08    -0.08   0.12   0.07
    53   1     0.04   0.14  -0.05    -0.07   0.15  -0.12    -0.03   0.11  -0.12
    54   1    -0.09   0.03   0.02     0.21  -0.12  -0.02    -0.21   0.09  -0.02
    55   1    -0.03  -0.01  -0.03     0.02   0.03   0.15    -0.02  -0.09  -0.19
    56   1     0.02  -0.00  -0.05    -0.02  -0.05  -0.03    -0.05   0.04   0.15
    57   1     0.03  -0.07  -0.02     0.03  -0.06  -0.02    -0.18   0.19   0.07
    58   1     0.01  -0.02   0.17    -0.01   0.05  -0.25    -0.07  -0.01   0.02
    59   1    -0.06  -0.21   0.02     0.13   0.31  -0.04    -0.13  -0.04  -0.02
                     28                     29                     30
                      A                      A                      A
 Frequencies --    423.2219               428.7620               451.5314
 Red. masses --      2.2921                 2.7677                 3.2650
 Frc consts  --      0.2419                 0.2998                 0.3922
 IR Inten    --      0.3585                 0.2090                 0.5530
  Atom  AN      X      Y      Z        X      Y      Z        X      Y      Z
     1   6     0.04  -0.05   0.00     0.04  -0.07   0.00     0.01  -0.02  -0.00
     2   6     0.00   0.02   0.09     0.01   0.05   0.11    -0.01   0.05   0.07
[...]
 357,-0.00000170,0.00000069,0.00000076,0.00000022,0.00000086,-0.0000019
 8,-0.00000224,-0.00000414,-0.00000573,-0.00000212,0.00000150,0.0000009
 3,0.00000668,0.00000363,0.00000163,-0.00000166,0.00000242,0.00000128,-
 0.00000349,-0.00000071,-0.00000640,-0.00000327,-0.00000142,-0.00000403
 ,0.00000314,0.00000111,-0.00000217,0.00000331,0.00000258,-0.00000257,-
 0.00000215,0.00000571,0.00000607,-0.00001039,0.00004500,-0.00004285,-0
 .00002462,0.00001656,-0.00000065,0.00000774,-0.00000209,0.00000445,-0.
 00000334,0.00002665,-0.00002701,0.00000666,0.00001156,-0.00000053,-0.0
 0000802,-0.00012490,0.00000561,-0.00003885,0.00015382,0.00113518,0.000
 24497,0.00010933,0.00013112,-0.00021349,-0.00013392,-0.00017349,-0.000
 13967,0.00007430,0.00005852,-0.00014572,0.00004459,-0.00000370,0.00006
 642,0.00001375,-0.00004034,-0.00005291,0.00001204,0.00001011,-0.000007
 48,-0.00001300,-0.00001379,-0.00000936,-0.00000292,0.00000192,0.000008
 11,-0.00000554,-0.00000200,-0.00000476,0.00000407,-0.00000553,-0.00000
 228,-0.00278406,0.00064199,-0.00447627,0.00126833,-0.00004748,0.000816
 18,-0.01008439,-0.00277635,0.01851511,0.11718776,-0.00000004,0.0000001
 6,0.00000150,-0.00000172,0.00000038,-0.00000113,-0.00000158,0.00000041
 ,0.00000191,0.00000500,-0.00000234,0.00000208,-0.00000337,-0.00000105,
 0.00000200,0.00000496,-0.00000051,0.00000580,-0.00000455,0.00000450,-0
 .00002118,0.00008292,0.00001804,-0.00009418,-0.00001018,-0.00002187,0.
 00000223,-0.00000642,0.00002394,0.00005429,0.00013878,-0.00020249,-0.0
 0004378,-0.00024443,0.00131647,0.00090132,-0.00005561,-0.00087358,-0.0
 0010393,-0.00015779,-0.00018320,-0.00003490,-0.00004064,0.00010463,0.0
 0002157,0.00002569,-0.00002125,-0.00000993,-0.00001550,0.00000327,-0.0
 0000317,-0.00000755,-0.00001758,0.00000769,-0.00044234,-0.00023292,0.0
 0075846,0.00005105,0.00007856,-0.00021264,-0.00017226,-0.00025011,-0.0
 0053632,-0.01306517,-0.05528731,0.02883475,-0.01495846,-0.00390479,0.0
 2597262,-0.00000002,-0.00000091,0.00000021,0.00000085,0.00000086,0.000
 00032,0.00000074,-0.00000004,-0.00000121,0.00000125,-0.00000209,-0.000
 00122,0.00000108,-0.00000014,0.00000040,-0.00000118,0.00000114,0.00000
 013,0.00000170,0.00000005,-0.00000215,0.00000320,0.00000176,-0.0000034
 1,0.00000147,0.00000037,0.00000052,0.00000187,0.00000095,-0.00000102,0
 .00000024,-0.00000158,0.00000081,0.00000165,-0.00000191,-0.00000121,0.
 00000856,0.00001253,-0.00001018,0.00004709,-0.00009917,-0.00002070,0.0
 0000454,0.00000337,0.00000315,0.00000684,0.00001052,-0.00001709,0.0000
 2262,-0.00002031,-0.00000745,0.00005759,-0.00003814,-0.00000960,-0.000
 03239,0.00009566,-0.00021110,0.00118832,-0.00118287,-0.00050053,0.0001
 4003,0.00030176,-0.00013323,-0.00010860,-0.00015357,-0.00018485,0.0002
 0068,0.00014253,-0.00023345,0.00005583,-0.00001318,0.00007402,-0.00000
 276,-0.00005540,-0.00007825,0.00001641,0.00001822,-0.00001266,0.000001
 92,0.00000060,0.00000068,0.00000167,0.00000252,-0.00000380,0.00000197,
 0.00000223,0.00000093,0.00000261,-0.00000016,-0.00000279,-0.00040543,0
 .00098875,-0.00030627,0.00028747,0.00031407,-0.00039033,0.01201811,0.0
 0386323,-0.02322776,0.01785447,0.05879900,0.00000087,0.00000038,0.0000
 0088,0.00000033,-0.00000118,-0.00000452,0.00000152,0.00000161,-0.00000
 008,-0.00000221,0.00000330,0.00000368,-0.00000166,0.00000022,-0.000001
 30,0.00000964,0.00000359,-0.00000560,-0.00001658,0.00002113,0.00002434
 ,0.00007910,-0.00002764,-0.00008680,-0.00006002,0.00002121,-0.00000069
 ,0.00012763,0.00000106,-0.00004280,0.00000559,0.00031774,-0.00017389,0
 .00050438,-0.00007818,-0.00054351,0.00130275,-0.00049910,0.00008724,-0
 .00007440,0.00012461,0.00008557,0.00004736,0.00000181,-0.00005869,-0.0
 0001379,0.00000809,0.00002261,0.00000852,0.00000160,-0.00000999,0.0000
 0914,0.00001044,-0.00000274,0.00205860,-0.00182794,-0.00040536,-0.0012
 5943,0.00038989,0.00031989,0.00887497,0.00312330,-0.02234021,0.1054995
 1,0.02929289,-0.24552825,-0.00070377,0.00056126,0.00179491,-0.00000015
 ,-0.00000124,-0.00000017,0.00000152,0.00000123,0.00000082,-0.00000105,
 -0.00000006,0.00000052,-0.00000086,0.00000174,0.00000176,0.00000171,0.
 00000167,0.00000081,-0.00000050,-0.00000158,-0.00000122,-0.00000152,-0
 .00000028,0.00000108,-0.00000217,-0.00000119,0.00000261,0.00000108,0.0
 0000377,0.00000194,0.00000049,0.00000039,0.00000014,0.00000019,-0.0000
 0300,0.00000515,-0.00000224,0.00000138,0.00000024,-0.00001165,-0.00000
 631,0.00000778,-0.00003566,0.00001722,0.00005719,0.00000999,0.00003203
 ,0.00000180,-0.00000406,-0.00000849,0.00001539,-0.00000254,-0.00000261
 ,0.00002516,-0.00005206,0.00005233,0.00001917,-0.00008505,-0.00003998,
 0.00014469,-0.00058973,-0.00098620,0.00001669,-0.00040247,-0.00036161,
 0.00008329,-0.00004695,0.00010821,-0.00005334,-0.00005864,-0.00001803,
 0.00004681,-0.00003519,0.00000657,-0.00000630,0.00000043,0.00002054,0.
 00004515,-0.00000728,-0.00000698,0.00000402,0.00000777,0.00000483,0.00
 000237,-0.00000183,-0.00000145,-0.00000084,0.00000134,0.00000014,0.000
 00340,-0.00000198,-0.00000020,0.00000020,-0.00403260,0.00045008,-0.002
 69980,0.00008563,-0.00039960,0.00100812,0.00232463,-0.00030805,-0.0034
 3329,-0.11333994,-0.02976820,0.26914623,0.00000112,0.00000172,0.,0.000
 00225,0.00000287,-0.00000169,0.00000251,0.00000694,-0.00000469,0.00005
 468,-0.00000808,0.00001613,-0.00002278,-0.00001904,0.00000643,0.000022
 00,0.00001596,-0.00000375,-0.00004686,-0.00001734,0.00001980,0.0000523
 4,0.00003191,-0.00006872,-0.00011575,-0.00015857,0.00005511,-0.0003507
 2,-0.00061090,-0.00122263,-0.00173190,0.00332624,0.00142192,-0.0125397
 2,0.00118692,-0.01500096,0.00028407,-0.00066204,-0.00147987,-0.0002415
 0,-0.00056874,0.00014581,-0.00057889,-0.00091877,-0.00017055,0.0003172
 0,-0.00010008,0.00013665,-0.00010007,-0.00004768,-0.00000796,0.0000295
 8,-0.00000324,0.00001297,0.00118178,0.00013816,0.00024819,-0.00053533,
 0.00001423,0.00009005,-0.00102222,-0.00345061,0.00105222,-0.01206316,-
 0.00036858,-0.01453270,-0.14680046,0.00601658,-0.12454963,0.00000149,-
 0.00000432,0.00000198,0.00000024,-0.00000020,0.00000027,-0.00000099,0.
 00000027,0.00000041,0.00000023,0.00000080,0.00000052,0.00000052,-0.000
 00402,0.00000057,-0.00000126,-0.00000282,0.00000756,0.00000247,0.00000
 071,-0.00000077,-0.00000053,0.00000087,-0.00000009,0.00000836,0.000003
 38,0.00000400,0.00000830,-0.00000572,0.00000577,0.00000348,-0.00001457
 ,0.00001943,0.00000035,-0.00000351,-0.00000569,-0.00000646,0.00000196,
 0.00000139,-0.00001905,0.00001214,0.00002079,0.00004086,0.00006929,0.0
 0001030,0.00002571,0.00001129,-0.00001033,-0.00027138,0.00041746,-0.00
 003793,-0.00002941,-0.00000686,0.00005116,0.00033694,-0.00001243,-0.00
 012585,-0.00003182,0.00007187,0.00004129,0.00041315,-0.00010394,0.0002
 4084,0.00000716,0.00019940,0.00107350,0.00002696,0.00001212,0.00003990
 ,0.00023519,-0.00176854,-0.00022874,-0.00002096,0.00020592,0.00007616,
 -0.00003768,-0.00003931,0.00003309,0.00003007,0.00003080,-0.00000559,-
 0.00002173,0.00000385,-0.00000494,0.00000504,0.00000859,0.00000899,0.0
 0000204,-0.00001680,-0.00000501,0.00010180,-0.00002698,-0.00017831,-0.
 00059023,0.00005955,-0.00093387,0.00070341,-0.00003698,0.00022524,0.00
 025456,0.00068524,0.00020967,0.16031740,0.00000021,-0.00000055,0.00000
 759,-0.00000411,-0.00000450,-0.00001360,0.00000014,-0.00000510,0.00001
 290,-0.00009446,0.00001131,0.00000077,0.00002934,0.00002728,-0.0000103
 4,-0.00000318,-0.00000660,-0.00000744,-0.00000234,0.00004832,0.0000073
 9,0.00002206,-0.00008751,-0.00014704,0.00002044,0.00031545,-0.00003931
 ,0.00104510,0.00084726,0.00141034,0.00308803,-0.00459480,-0.00100493,0
 .01638912,-0.00051746,0.02159553,-0.00064426,0.00078545,0.00110488,0.0
 0016149,0.00126662,0.00053975,-0.00002483,-0.00139505,-0.00014328,-0.0
 0039568,0.00006166,-0.00004955,0.00020167,0.00000255,0.00001545,-0.000
 04606,0.00002294,-0.00002447,-0.00003782,-0.00217914,0.00007241,0.0000
 6751,0.00079537,0.00000562,-0.00300138,-0.00485399,0.00127854,-0.01878
 422,-0.00018376,-0.02400015,0.00570830,-0.04673558,0.00565965,-0.00000
 285,0.00000324,-0.00000308,0.00000463,0.00000503,0.00000105,0.00000079
 ,-0.00000132,-0.00000134,-0.00000123,0.00000132,0.00000183,0.00000484,
 0.00001346,0.00000118,0.00000023,0.00000179,-0.00001960,-0.00000757,-0
 .00000357,0.00000277,0.00000035,-0.00000370,0.00000264,-0.00000903,0.0
 0000266,-0.00000177,-0.00001059,0.00001159,-0.00001087,-0.00000795,0.0
 0002109,-0.00002284,-0.00000331,0.00000452,0.00000833,0.00000775,-0.00
 000501,-0.00000043,0.00000551,0.00000757,-0.00000118,-0.00006200,-0.00
 004680,-0.00004301,-0.00003338,-0.00000749,0.00000114,0.00035745,-0.00
 059377,0.00012211,0.00002926,-0.00004130,-0.00006865,-0.00031889,-0.00
 007615,-0.00033716,-0.00002182,-0.00002915,-0.00010489,-0.00030744,-0.
 00002234,0.00002101,0.00002165,0.00022316,-0.00065381,-0.00001634,-0.0
 0012628,-0.00002322,-0.00161593,-0.00189692,-0.00046163,-0.00006014,0.
 00000326,-0.00008537,0.00004778,0.00003326,-0.00003612,0.00000794,-0.0
 0000687,0.00001303,0.00003330,-0.00000939,-0.00000667,0.00000064,-0.00
 000841,-0.00000696,-0.00000732,0.00003007,0.00001188,0.00037010,0.0000
 1213,0.00016312,-0.00135187,0.00013675,-0.00126866,0.00080973,0.000853
 62,-0.00021505,0.00047035,0.00128634,0.00044693,-0.00310001,0.05702495
 ,0.00000113,0.00000085,-0.00000394,-0.00000161,0.00000514,0.00000704,0
 .00000093,0.00000793,-0.00000581,0.00010247,-0.00002243,0.00000386,-0.
 00003663,-0.00002103,0.00001058,0.00003722,0.00001813,0.00001565,-0.00
 009682,0.00000895,-0.00004229,0.00019941,0.00015081,0.00010965,-0.0000
 2666,-0.00012802,-0.00003268,-0.00009634,-0.00037077,0.00028668,0.0003
 3637,0.00054245,0.00057186,0.00181436,0.00044175,0.00022451,0.00086805
 ,-0.00015910,0.00073635,-0.00079451,-0.00001065,-0.00036184,-0.0015097
 3,-0.00013688,-0.00001222,0.00059258,-0.00027664,0.00005879,-0.0002381
 3,-0.00006133,-0.00001108,0.00002742,-0.00003060,0.00003793,0.00047476
 ,0.00011977,-0.00000830,-0.00017840,-0.00003831,0.00001047,0.00026928,
 -0.00058244,0.00131001,0.00096573,0.00033790,-0.00010944,-0.12505219,0
 .00648286,-0.21138550,0.00000339,-0.00000640,0.00000379,-0.00000254,-0
 .00000241,0.,-0.00000104,0.00000129,-0.00000042,0.00000381,-0.00000314
 ,-0.00000134,-0.00000167,-0.00001067,-0.00000043,-0.00000375,-0.000001
 05,0.00001821,0.00000860,0.00000374,-0.00000717,0.00000007,0.00000494,
 -0.00000366,0.00001186,0.00000163,0.00000379,0.00001562,-0.00001006,0.
 00001115,0.00000979,-0.00001895,0.00002002,0.00000335,-0.00000438,-0.0
 0000666,-0.00000713,0.00000352,0.00000054,-0.00002635,0.00001282,0.000
 00004,0.00002359,0.00004303,0.00002898,0.00001716,-0.00001175,0.000010
 84,-0.00002635,0.00004014,0.00004840,-0.00012390,0.00016094,-0.0000139
 2,0.00002258,-0.00007515,0.00056389,0.00010730,-0.00003557,-0.00000017
 ,0.00001561,0.00009870,0.00020371,-0.00003916,-0.00010276,0.00043961,-
 0.00009062,-0.00001090,0.00008016,0.00067682,-0.00126983,0.00032134,0.
 00008859,-0.00008540,-0.00008189,-0.00002067,0.00001365,0.00000786,0.0
 0002615,0.00004358,0.00000037,-0.00002424,0.00001356,-0.00000263,0.000
 00274,0.00001112,0.00001061,0.00001087,-0.00002735,-0.00001500,0.00021
 699,0.00012056,0.00038263,-0.00021387,0.00016021,0.00002558,0.00002777
 ,-0.00045790,-0.00008211,-0.00008084,-0.00036395,0.00089966,0.13830230
 ,-0.00509290,0.22709043,-0.00000066,-0.00000021,0.00000082,-0.00000089
 ,0.00000049,0.00000162,-0.00000091,-0.00000108,0.00000176,-0.00000636,
 -0.00000146,-0.00000106,0.00000219,0.00000402,0.00000259,0.00000169,0.
 00000205,0.00001118,-0.00000523,0.00001967,-0.00003831,0.00003148,0.00
 002197,-0.00032275,-0.00001919,0.00000563,0.00006545,0.00022206,0.0000
 9908,-0.00032404,0.00020564,-0.00038742,0.00164480,-0.01226865,0.00025
 421,0.01679319,-0.00148772,0.00378280,-0.00135651,0.00033853,-0.001662
 49,0.00015061,0.00019473,0.00014809,0.00004316,-0.00000360,-0.00000132
 ,0.00003933,0.00001461,0.00000237,0.00000537,-0.00001689,-0.00001595,0
 .00000057,-0.00045382,-0.00014511,-0.00007821,0.00025166,0.00005095,0.
 00006252,0.00043084,0.00071269,0.00090004,-0.01069767,-0.00191958,0.01
 556178,-0.12930635,-0.00694527,0.11316917,-0.00000034,0.00000103,-0.00
 000006,-0.00000024,-0.00000007,-0.00000048,0.00000136,-0.00000016,-0.0
 0000089,0.00000061,-0.00000190,-0.00000189,-0.00000026,0.00000062,-0.0
 0000035,0.00000008,0.00000180,-0.00000183,0.00000062,-0.00000054,-0.00
 000051,0.00000410,0.00000113,-0.00000323,-0.00000042,-0.00000201,-0.00
 000159,-0.00000105,0.00000194,-0.00000214,-0.00000226,0.00000260,-0.00
 000522,0.00000047,-0.00000044,-0.00000031,0.00001710,0.00001639,-0.000
 01575,0.00011300,-0.00019853,-0.00005912,0.00000245,-0.00001068,-0.000
 01464,0.00001090,0.00003509,-0.00004665,-0.00001394,0.00001909,-0.0000
 3485,0.00016757,-0.00016728,0.00000019,-0.00012943,0.00028443,-0.00105
 986,0.00013812,-0.00017248,-0.00010300,-0.00057670,-0.00004373,0.00123
 862,0.00022296,-0.00007918,0.00014339,0.00072000,0.00033726,-0.0005607
 6,-0.00001909,0.00017040,0.00003346,-0.00007057,0.00000614,-0.00006507
 ,0.00001361,0.00000373,-0.00000454,0.00000867,0.00001265,-0.00000091,0
 .00000215,0.00000122,-0.00000088,0.00000123,0.00000165,-0.00000360,0.0
 0000189,0.00000295,0.00000096,-0.00018190,-0.00015859,-0.00070240,0.00
 028986,-0.00001548,-0.00026932,0.00092358,0.00022359,-0.00050938,-0.00
 107964,-0.00318644,-0.00032639,0.01270763,0.00107033,-0.01659148,0.139
 30239,0.00000044,0.00000094,0.00000272,-0.00000034,-0.00000133,-0.0000
 0592,0.00000081,0.00000101,0.00000212,-0.00000961,0.00000100,0.0000049
 5,-0.00000160,0.00000550,-0.00000444,0.00001233,0.00000665,-0.00000029
 ,-0.00005066,0.00000948,0.00000687,0.00001279,0.00013470,0.00020932,0.
 00002878,0.00003619,-0.00002443,-0.00019321,-0.00005945,0.00001798,-0.
 00058835,0.00071068,-0.00094637,0.01523959,-0.00048171,-0.02249343,0.0
 0270168,-0.00481581,0.00062175,0.00135989,0.00094832,-0.00180613,-0.00
 012261,-0.00006758,0.00002621,-0.00005421,-0.00000348,-0.00000016,0.00
 000850,-0.00000599,-0.00000521,0.00001156,0.00002447,-0.00000936,0.000
 08002,-0.00049961,-0.00006228,-0.00008054,0.00015750,0.00004322,0.0008
 5560,0.00107022,0.00049108,-0.01746267,-0.00382551,0.02561231,-0.00686
 109,-0.04779531,0.01051007,-0.00000051,-0.00000056,-0.00000054,0.00000
 175,0.00000163,0.00000065,-0.00000060,-0.00000066,-0.00000004,-0.00000
 035,0.00000235,0.00000216,0.00000173,0.00000254,0.00000099,0.00000001,
 -0.00000093,-0.00000338,-0.00000230,-0.00000087,0.00000063,-0.00000386
 ,-0.00000311,0.00000388,0.00000079,0.00000470,0.00000179,0.00000065,0.
 00000275,-0.00000100,-0.00000040,0.00000315,-0.00000210,-0.00000303,0.
 00000702,0.00000215,-0.00002562,-0.00002966,0.00002937,-0.00006639,0.0
 0018281,0.00000131,-0.00001172,-0.00000443,-0.00000612,-0.00000170,-0.
 00002262,0.00003267,-0.00002308,-0.00000710,0.00004680,-0.00011225,0.0
 0006689,-0.00002790,-0.00008408,0.00016650,0.00056104,0.00019356,0.000
 08955,0.00005185,0.00125240,-0.00004737,-0.00141071,-0.00021813,-0.000
 08654,0.00024993,-0.00032315,-0.00043016,0.00072548,-0.00005565,0.0000
 4913,-0.00009853,0.00007532,0.00011753,0.00019506,-0.00003458,-0.00002
 610,0.00001132,-0.00000339,0.00000155,0.00001152,0.00000480,-0.0000009
 5,0.00000158,-0.00000194,-0.00000347,0.00000473,-0.00000458,0.00000295
 ,0.00000227,-0.00001521,0.00008836,-0.00070934,0.00038283,-0.00006212,
 -0.00010923,0.00066963,0.00115774,0.00022630,-0.00384100,-0.00482839,-
 0.00068410,-0.00045641,-0.00041749,0.00057874,0.00781936,0.05847452,0.
 00000168,-0.00000168,-0.00000340,0.00000037,-0.00000187,0.00000171,0.0
 0000599,-0.00000153,-0.00000820,-0.00000082,-0.00000870,-0.00001027,0.
 00000832,-0.00000412,-0.00000302,-0.00003128,-0.00001067,-0.00000447,0
 .00009020,-0.00005032,0.00000360,-0.00029440,-0.00021037,0.00031593,0.
 00004018,0.00003708,-0.00004824,0.00000014,-0.00006503,0.00034767,-0.0
 0062793,0.00050500,0.00028574,0.00077192,-0.00012155,-0.00360683,0.000
 60115,-0.00152538,0.00078308,0.00038336,0.00084418,-0.00006193,-0.0000
 9681,-0.00036761,0.00001982,0.00000503,0.00000500,-0.00003287,0.000003
 76,-0.00001876,0.00002456,0.00000562,0.00003089,-0.00001335,-0.0001214
 9,0.00021794,0.00008092,0.00004042,-0.00010363,-0.00004721,-0.00013513
 ,-0.00009946,0.00078504,-0.00098710,0.00053055,0.00039982,0.11328469,0
 .00985427,-0.21816501,-0.00000114,0.00000169,-0.00000099,0.00000012,0.
 00000008,0.00000080,-0.00000248,-0.00000013,0.00000310,-0.00000356,0.0
 0000528,0.00000375,-0.00000041,0.00000300,0.00000105,0.00000083,-0.000
 00299,-0.00000221,-0.00000605,-0.00000086,0.00000643,-0.00000920,-0.00
 000180,0.00000974,-0.00000483,0.00000081,0.00000086,-0.00000320,-0.000
 00227,0.00000061,0.00000126,0.00000229,-0.00000243,-0.00000423,0.00000
 624,0.00000297,-0.00001918,-0.00001638,0.00003196,-0.00012877,0.000190
 56,0.00005063,-0.00001717,-0.00001163,0.00000177,-0.00001064,-0.000022
 73,0.00003948,0.00002748,-0.00006727,0.00002481,-0.00014358,0.00012989
 ,0.00002122,-0.00011004,0.00016586,0.00064464,0.00004963,0.00005201,-0
 .00003074,0.00049204,0.00013784,-0.00021175,-0.00009942,0.00012606,0.0
 0055176,-0.00041565,-0.00054591,0.00060023,-0.00000937,0.00010596,-0.0
 0033127,-0.00005088,0.00023509,0.00017861,-0.00005742,-0.00006263,0.00
 005638,-0.00000987,-0.00000299,0.00000404,-0.00000380,-0.00000547,0.00
 000039,0.00000199,-0.00000039,-0.00000024,-0.00000664,0.00000302,0.000
 00759,0.00044495,0.00004425,0.00036885,0.00009410,0.00002534,0.0001841
 3,-0.00006246,0.00065013,0.00034321,-0.00051752,-0.00009385,0.00151804
 ,0.01499982,0.00139743,-0.02136650,-0.12736260,-0.01187980,0.23624596\
 \-0.00000859,-0.00001278,0.00002373,0.00002061,0.00002899,-0.00001533,
 -0.00000912,-0.00000249,0.00000153,-0.00002920,-0.00001306,-0.00000063
 ,-0.00001275,-0.00001110,0.00001470,0.00001762,-0.00002086,-0.00002281
 ,-0.00002059,0.00001093,0.00002035,0.00000562,-0.00006186,-0.00001490,
 -0.00001819,-0.00000677,0.00001044,0.00002407,0.00000016,-0.00000602,0
 .00002175,-0.00000659,0.00002950,0.00000112,-0.00000853,-0.00000621,-0
 .00000338,0.00000955,-0.00001662,0.00000233,0.00001888,0.00003351,0.00
 000233,0.00002049,-0.00002411,-0.00000957,-0.00001230,0.00001339,0.000
 04324,0.00007377,-0.00000040,0.00001646,0.00000195,0.00000683,-0.00004
 061,0.00002716,-0.00001517,0.00004950,-0.00002779,0.00002918,-0.000008
 82,-0.00000007,-0.00000503,-0.00002599,-0.00000699,-0.00001846,-0.0000
 0982,-0.00002804,-0.00000972,-0.00000554,0.00000085,-0.00000013,0.0000
 0370,0.00000353,-0.00000258,0.00000549,0.00000808,-0.00000604,-0.00000
 831,0.00000044,0.00000123,0.00000542,0.00000219,0.00000674,0.00001173,
 -0.00001134,0.00000957,0.00001440,0.00000557,0.00000220,0.00000225,-0.
 00000407,0.00000377,0.00000087,-0.00000052,-0.00000756,0.00000209,0.00
 000074,-0.00000262,-0.00000065,0.00000312,0.00000059,0.00000161,-0.000
 00905,-0.00000678,0.00000525,0.00001179,-0.00001403,-0.00001452,-0.000
 00693,0.00001194,-0.00000129,0.00000237,-0.00000477,0.00000217,0.00000
 633,-0.00000797,-0.00000504,-0.00000295,-0.00000073,-0.00001401,0.0000
 0133,-0.00000347,0.00000140,-0.00000683,0.00000354,-0.00001801,-0.0000
 0189,0.00001961,0.00000035,0.00002571,-0.00000880,-0.00002034,-0.00000
 657,-0.00000137,-0.00000028,0.00001218,-0.00000466,-0.00000774,-0.0000
 2163,-0.00000498,0.00000150,0.00000486,-0.00000169,0.00001360,-0.00000
 100,-0.00001052,0.00000887,0.00000632,0.00000297,-0.00001562,-0.000008
 98,-0.00000853,-0.00000234,-0.00000212,-0.00000926,0.00000524,0.000009
 30,0.00001265,0.00000103,-0.00000056,0.00000470,-0.00000410,0.00000230
 ,0.00000089,0.00000131,-0.00000586,0.00000349,0.00000711,0.00000362,0.
 00000122,0.00001526,0.00000952,-0.00000780,-0.00000091,-0.00000250,0.0
 0000144\\\@


 CHRISTMAS IS ON TOP OF A STEEP HILL.
 THE CLOSER YOU GET, THE STEEPER THE HILL IS.
          -- LINUS, OF PEANUTS
 Job cpu time:       0 days  0 hours 19 minutes 28.2 seconds.
 Elapsed time:       0 days  6 hours 44 minutes 42.5 seconds.
 File lengths (MBytes):  RWF=   1168 Int=      0 D2E=      0 Chk=     16 Scr=      1
 Normal termination of Gaussian 16 at Fri Feb 23 02:14:06 2024.
