 Entering Gaussian System, Link 0=g16
 Input=/Volumes/SSD-PMU3/b3lyp_6-31gd_freq/OXOYGYLXOZBYLS-ZVLKMEQASA-N_calculating/gaussianinput1.gjf
 Output=/Volumes/SSD-PMU3/b3lyp_6-31gd_freq/OXOYGYLXOZBYLS-ZVLKMEQASA-N_calculating/gaussianinput1.log
 Initial command:
 /Applications/g16/l1.exe "/Users/macmini_m1_2022/PycharmProjects/sphere_model/sphere_model_lib/Gau-68094.inp" -scrdir="/Users/macmini_m1_2022/PycharmProjects/sphere_model/sphere_model_lib/"
 Entering Link 1 = /Applications/g16/l1.exe PID=     68095.
  
 Copyright (c) 1988,1990,1992,1993,1995,1998,2003,2009,2016,
            Gaussian, Inc.  All Rights Reserved.
  
 This is part of the Gaussian(R) 16 program.  It is based on
 the Gaussian(R) 09 system (copyright 2009, Gaussian, Inc.),
 the Gaussian(R) 03 system (copyright 2003, Gaussian, Inc.),
 the Gaussian(R) 98 system (copyright 1998, Gaussian, Inc.),
 the Gaussian(R) 94 system (copyright 1995, Gaussian, Inc.),
 the Gaussian 92(TM) system (copyright 1992, Gaussian, Inc.),
 the Gaussian 90(TM) system (copyright 1990, Gaussian, Inc.),
 the Gaussian 88(TM) system (copyright 1988, Gaussian, Inc.),
 the Gaussian 86(TM) system (copyright 1986, Carnegie Mellon
 University), and the Gaussian 82(TM) system (copyright 1983,
 Carnegie Mellon University). Gaussian is a federally registered
 trademark of Gaussian, Inc.
  
 This software contains proprietary and confidential information,
 including trade secrets, belonging to Gaussian, Inc.
  
 This software is provided under written license and may be
 used, copied, transmitted, or stored only in accord with that
 written license.
  
 The following legend is applicable only to US Government
 contracts under FAR:
  
                    RESTRICTED RIGHTS LEGEND
  
 Use, reproduction and disclosure by the US Government is
 subject to restrictions as set forth in subparagraphs (a)
 and (c) of the Commercial Computer Software - Restricted
 Rights clause in FAR 52.227-19.
  
 Gaussian, Inc.
 340 Quinnipiac St., Bldg. 40, Wallingford CT 06492
  
  
 ---------------------------------------------------------------
 Warning -- This program may not be used in any manner that
 competes with the business of Gaussian, Inc. or will provide
 assistance to any competitor of Gaussian, Inc.  The licensee
 of this program is prohibited from giving any competitor of
 Gaussian, Inc. access to this program.  By using this program,
 the user acknowledges that Gaussian, Inc. is engaged in the
 business of creating and licensing software in the field of
 computational chemistry and represents and warrants to the
 licensee that it is not a competitor of Gaussian, Inc. and that
 it will not use this program in any manner prohibited above.
 ---------------------------------------------------------------
  

 Cite this work as:
 Gaussian 16, Revision A.03,
 M. J. Frisch, G. W. Trucks, H. B. Schlegel, G. E. Scuseria, 
 M. A. Robb, J. R. Cheeseman, G. Scalmani, V. Barone, 
 G. A. Petersson, H. Nakatsuji, X. Li, M. Caricato, A. V. Marenich, 
 J. Bloino, B. G. Janesko, R. Gomperts, B. Mennucci, H. P. Hratchian, 
 J. V. Ortiz, A. F. Izmaylov, J. L. Sonnenberg, D. Williams-Young, 
 F. Ding, F. Lipparini, F. Egidi, J. Goings, B. Peng, A. Petrone, 
 T. Henderson, D. Ranasinghe, V. G. Zakrzewski, J. Gao, N. Rega, 
 G. Zheng, W. Liang, M. Hada, M. Ehara, K. Toyota, R. Fukuda, 
 J. Hasegawa, M. Ishida, T. Nakajima, Y. Honda, O. Kitao, H. Nakai, 
 T. Vreven, K. Throssell, J. A. Montgomery, Jr., J. E. Peralta, 
 F. Ogliaro, M. J. Bearpark, J. J. Heyd, E. N. Brothers, K. N. Kudin, 
 V. N. Staroverov, T. A. Keith, R. Kobayashi, J. Normand, 
 K. Raghavachari, A. P. Rendell, J. C. Burant, S. S. Iyengar, 
 J. Tomasi, M. Cossi, J. M. Millam, M. Klene, C. Adamo, R. Cammi, 
 J. W. Ochterski, R. L. Martin, K. Morokuma, O. Farkas, 
 J. B. Foresman, and D. J. Fox, Gaussian, Inc., Wallingford CT, 2016.
 
 ******************************************
 Gaussian 16:  EM64M-G16RevA.03 25-Dec-2016
                23-Feb-2024 
 ******************************************
 %nprocshared=10
 Will use up to   10 processors via shared memory.
 %mem=12GB
 %chk= 1.chk
 ---------------------
 # freq b3lyp/6-31g(d)
 ---------------------
 1/10=4,30=1,38=1/1,3;
 2/12=2,17=6,18=5,40=1/2;
 3/5=1,6=6,7=1,11=2,25=1,30=1,71=2,74=-5,140=1/1,2,3;
 4//1;
 5/5=2,38=5,98=1/2;
 8/6=4,10=90,11=11/1;
 11/6=1,8=1,9=11,15=111,16=1/1,2,10;
 10/6=1/2;
 6/7=2,8=2,9=2,10=2,28=1/1;
 7/8=1,10=1,25=1/1,2,3,16;
 1/10=4,30=1/3;
 99//99;
 ---------
 good luck
 ---------
 Symbolic Z-matrix:
 Charge =  0 Multiplicity = 1
 C                    -0.26079  -7.01526  -1.34572 
 C                    -0.0703   -6.41729   0.06012 
 C                     0.96801  -7.25793   0.82688 
 C                     0.3064   -4.90894   0.11688 
 C                     1.26944  -4.36888  -0.98485 
 C                     1.00095  -2.83521  -1.08272 
 C                     0.00446  -2.55486   0.05891 
 C                    -0.83784  -1.27608   0.04948 
 C                     0.        0.        0. 
 C                    -0.79821   1.29095   0.04948 
 C                    -1.67811   1.30228   1.31808 
 C                    -2.39094   2.64988   1.52187 
 C                    -3.13876   2.68294   2.8625 
 C                    -4.09277   1.48915   3.00266 
 C                    -3.38213   0.14774   2.74967 
 C                    -2.64024   0.07225   1.38542 
 C                    -3.68148   0.08637   0.24243 
 C                    -1.75314  -1.22128   1.32935 
 C                    -2.53419  -2.54193   1.52953 
 C                    -1.64995  -3.80356   1.45301 
 C                    -0.84235  -3.85367   0.14645 
 C                    -1.79617  -4.02558  -1.05664 
 O                     1.21875   0.        0. 
 H                    -0.96355  -6.4467   -1.96066 
 H                    -0.6449   -8.03948  -1.26579 
 H                     0.69013  -7.06895  -1.88892 
 H                    -1.02674  -6.527     0.59399 
 H                     0.70185  -8.32189   0.81824 
 H                     1.96309  -7.16316   0.37331 
 H                     1.04783  -6.94049   1.87324 
 H                     0.82264  -4.77271   1.079 
 H                     2.31394  -4.58116  -0.73245 
 H                     1.08148  -4.852    -1.94844 
 H                     1.90559  -2.23536  -0.97604 
 H                     0.56295  -2.57823  -2.05581 
 H                     0.59848  -2.51662   0.98517 
 H                    -1.48275  -1.26116  -0.84141 
 H                    -1.42698   1.37812  -0.84753 
 H                    -0.09657   2.13105   0.05201 
 H                    -0.9895    1.18905   2.17179 
 H                    -1.64746   3.45696   1.48621 
 H                    -3.08854   2.84155   0.69482 
 H                    -2.4031    2.65459   3.67978 
 H                    -3.68825   3.62661   2.97109 
 H                    -4.93069   1.60585   2.30234 
 H                    -4.53726   1.4777    4.00611 
 H                    -2.64981  -0.02109   3.55376 
 H                    -4.11552  -0.66372   2.82341 
 H                    -4.40033  -0.73103   0.36224 
 H                    -4.25729   1.01568   0.22777 
 H                    -3.22688  -0.02254  -0.74711 
 H                    -1.05815  -1.14458   2.18218 
 H                    -3.33844  -2.61868   0.78869 
 H                    -3.0263   -2.52172   2.50833 
 H                    -2.28421  -4.69366   1.56595 
 H                    -0.95195  -3.80685   2.30325 
 H                    -1.25765  -4.09055  -2.00682 
 H                    -2.50766  -3.19945  -1.14748 
 H                    -2.38617  -4.94261  -0.94682 
 

 GradGradGradGradGradGradGradGradGradGradGradGradGradGradGradGradGradGrad
 Berny optimization.
 Initialization pass.
 Trust Radius=3.00D-01 FncErr=1.00D-07 GrdErr=1.00D-07 EigMax=2.50D+02 EigMin=1.00D-04
 Number of steps in this run=      2 maximum allowed number of steps=      2.
 GradGradGradGradGradGradGradGradGradGradGradGradGradGradGradGradGradGrad

 Stoichiometry    C22H36O
 Framework group  C1[X(C22H36O)]
 Deg. of freedom   171
 Full point group                 C1      NOp   1
 Largest Abelian subgroup         C1      NOp   1
 Largest concise Abelian subgroup C1      NOp   1
                         Standard orientation:                         
 ---------------------------------------------------------------------
 Center     Atomic      Atomic             Coordinates (Angstroms)
 Number     Number       Type             X           Y           Z
 ---------------------------------------------------------------------
      1          6           0       -5.423329   -0.662137    0.995787
      2          6           0       -4.587203   -0.912308   -0.272500
      3          6           0       -5.512944   -0.860454   -1.502542
      4          6           0       -3.360584    0.022083   -0.478800
      5          6           0       -3.517561    1.514902   -0.054798
      6          6           0       -2.075131    2.043056    0.217676
      7          6           0       -1.162171    0.873043   -0.197626
      8          6           0        0.283824    0.809326    0.302254
      9          6           0        1.107598    2.040395   -0.070132
     10          6           0        2.564016    1.987872    0.356759
     11          6           0        3.227712    0.726292   -0.236228
     12          6           0        4.744490    0.691303    0.016422
     13          6           0        5.398716   -0.494092   -0.707756
     14          6           0        4.714535   -1.819384   -0.346623
     15          6           0        3.191099   -1.760100   -0.556506
     16          6           0        2.494875   -0.587061    0.189505
     17          6           0        2.583680   -0.833605    1.713353
     18          6           0        1.002187   -0.465017   -0.279844
     19          6           0        0.157717   -1.743876   -0.066235
     20          6           0       -1.310821   -1.600102   -0.515888
     21          6           0       -1.992971   -0.392947    0.146886
     22          6           0       -2.118003   -0.627946    1.668696
     23          8           0        0.665660    2.966804   -0.727260
     24          1           0       -4.822429   -0.652184    1.909089
     25          1           0       -6.178479   -1.449985    1.105344
     26          1           0       -5.959364    0.292643    0.938682
     27          1           0       -4.197683   -1.939983   -0.209386
     28          1           0       -6.369737   -1.534693   -1.383209
     29          1           0       -5.908658    0.152065   -1.654514
     30          1           0       -4.982229   -1.150855   -2.416888
     31          1           0       -3.172314    0.022058   -1.562912
     32          1           0       -4.019509    2.094944   -0.836684
     33          1           0       -4.135331    1.609974    0.843296
     34          1           0       -1.838854    2.948792   -0.342150
     35          1           0       -1.943188    2.283644    1.280454
     36          1           0       -1.099150    0.905193   -1.296393
     37          1           0        0.296103    0.745605    1.400256
     38          1           0        2.633410    1.971627    1.453337
     39          1           0        3.061191    2.895860    0.001144
     40          1           0        3.101906    0.796779   -1.329402
     41          1           0        5.186907    1.634318   -0.330584
     42          1           0        4.950700    0.636519    1.094324
     43          1           0        5.322115   -0.332711   -1.793126
     44          1           0        6.470108   -0.540774   -0.474986
     45          1           0        4.938020   -2.074087    0.698051
     46          1           0        5.130068   -2.635233   -0.951878
     47          1           0        2.986670   -1.657888   -1.633125
     48          1           0        2.751157   -2.715348   -0.247121
     49          1           0        2.145303   -1.802161    1.975951
     50          1           0        3.619280   -0.848636    2.063627
     51          1           0        2.060567   -0.070467    2.297895
     52          1           0        1.043610   -0.304309   -1.370100
     53          1           0        0.185394   -2.040435    0.988670
     54          1           0        0.612319   -2.570142   -0.624130
     55          1           0       -1.846672   -2.533650   -0.295270
     56          1           0       -1.342670   -1.471662   -1.607951
     57          1           0       -2.621899    0.200094    2.176151
     58          1           0       -1.145518   -0.756371    2.153188
     59          1           0       -2.694793   -1.538427    1.867270
 ---------------------------------------------------------------------
 Rotational constants (GHZ):           0.5975449           0.1408776           0.1260048
 Standard basis: 6-31G(d) (6D, 7F)
 There are   417 symmetry adapted cartesian basis functions of A   symmetry.
 There are   417 symmetry adapted basis functions of A   symmetry.
   417 basis functions,   788 primitive gaussians,   417 cartesian basis functions
    88 alpha electrons       88 beta electrons
       nuclear repulsion energy      2163.7542806543 Hartrees.
 NAtoms=   59 NActive=   59 NUniq=   59 SFac= 1.00D+00 NAtFMM=   60 NAOKFM=F Big=F
 Integral buffers will be    131072 words long.
 Raffenetti 2 integral format.
 Two-electron integral symmetry is turned on.
 One-electron integrals computed using PRISM.
 NBasis=   417 RedAO= T EigKep=  1.47D-03  NBF=   417
 NBsUse=   417 1.00D-06 EigRej= -1.00D+00 NBFU=   417
 ExpMin= 1.61D-01 ExpMax= 5.48D+03 ExpMxC= 8.25D+02 IAcc=3 IRadAn=         5 AccDes= 0.00D+00
 Harris functional with IExCor=  402 and IRadAn=       5 diagonalized for initial guess.
 HarFok:  IExCor=  402 AccDes= 0.00D+00 IRadAn=         5 IDoV= 1 UseB2=F ITyADJ=14
 ICtDFT=  3500011 ScaDFX=  1.000000  1.000000  1.000000  1.000000
 FoFCou: FMM=F IPFlag=           0 FMFlag=      100000 FMFlg1=           0
         NFxFlg=           0 DoJE=T BraDBF=F KetDBF=T FulRan=T
         wScrn=  0.000000 ICntrl=       500 IOpCl=  0 I1Cent=   200000004 NGrid=           0
         NMat0=    1 NMatS0=      1 NMatT0=    0 NMatD0=    1 NMtDS0=    0 NMtDT0=    0
 Petite list used in FoFCou.
 Requested convergence on RMS density matrix=1.00D-08 within 128 cycles.
 Requested convergence on MAX density matrix=1.00D-06.
 Requested convergence on             energy=1.00D-06.
 No special actions if energy rises.
 Integral accuracy reduced to 1.0D-05 until final iterations.
 Initial convergence to 1.0D-05 achieved.  Increase integral accuracy.
 SCF Done:  E(RB3LYP) =  -935.269376837     A.U. after   14 cycles
            NFock= 14  Conv=0.33D-08     -V/T= 2.0099
 DoSCS=F DFT=T ScalE2(SS,OS)=  1.000000  1.000000
 Range of M.O.s used for correlation:     1   417
 NBasis=   417 NAE=    88 NBE=    88 NFC=     0 NFV=     0
 NROrb=    417 NOA=    88 NOB=    88 NVA=   329 NVB=   329
 Symmetrizing basis deriv contribution to polar:
 IMax=3 JMax=2 DiffMx= 0.00D+00
 G2DrvN: will do    60 centers at a time, making    1 passes.
 Calling FoFCou, ICntrl=  3107 FMM=F I1Cent=   0 AccDes= 0.00D+00.
 End of G2Drv F.D. properties file   721 does not exist.
 End of G2Drv F.D. properties file   722 does not exist.
 End of G2Drv F.D. properties file   788 does not exist.
          IDoAtm=11111111111111111111111111111111111111111111111111
          IDoAtm=111111111
          Differentiating once with respect to electric field.
                with respect to dipole field.
          Differentiating once with respect to nuclear coordinates.
 CalDSu exits because no D1Ps are significant.
          There are   180 degrees of freedom in the 1st order CPHF.  IDoFFX=6 NUNeed=     3.
    177 vectors produced by pass  0 Test12= 2.90D-14 1.00D-09 XBig12= 1.49D+02 2.50D+00.
 AX will form   177 AO Fock derivatives at one time.
    177 vectors produced by pass  1 Test12= 2.90D-14 1.00D-09 XBig12= 1.21D+01 4.04D-01.
    177 vectors produced by pass  2 Test12= 2.90D-14 1.00D-09 XBig12= 1.02D-01 1.88D-02.
    177 vectors produced by pass  3 Test12= 2.90D-14 1.00D-09 XBig12= 2.45D-04 1.07D-03.
    177 vectors produced by pass  4 Test12= 2.90D-14 1.00D-09 XBig12= 2.17D-07 2.80D-05.
     73 vectors produced by pass  5 Test12= 2.90D-14 1.00D-09 XBig12= 1.43D-10 7.65D-07.
      3 vectors produced by pass  6 Test12= 2.90D-14 1.00D-09 XBig12= 1.02D-13 1.94D-08.
 InvSVY:  IOpt=1 It=  1 EMax= 5.33D-15
 Solved reduced A of dimension   961 with   180 vectors.
 Isotropic polarizability for W=    0.000000      221.05 Bohr**3.
 End of Minotr F.D. properties file   721 does not exist.
 End of Minotr F.D. properties file   722 does not exist.
 End of Minotr F.D. properties file   788 does not exist.

 **********************************************************************

            Population analysis using the SCF density.

 **********************************************************************

 Orbital symmetries:
       Occupied  (A) (A) (A) (A) (A) (A) (A) (A) (A) (A) (A) (A)
                 (A) (A) (A) (A) (A) (A) (A) (A) (A) (A) (A) (A)
                 (A) (A) (A) (A) (A) (A) (A) (A) (A) (A) (A) (A)
                 (A) (A) (A) (A) (A) (A) (A) (A) (A) (A) (A) (A)
                 (A) (A) (A) (A) (A) (A) (A) (A) (A) (A) (A) (A)
                 (A) (A) (A) (A) (A) (A) (A) (A) (A) (A) (A) (A)
                 (A) (A) (A) (A) (A) (A) (A) (A) (A) (A) (A) (A)
                 (A) (A) (A) (A)
       Virtual   (A) (A) (A) (A) (A) (A) (A) (A) (A) (A) (A) (A)
                 (A) (A) (A) (A) (A) (A) (A) (A) (A) (A) (A) (A)
                 (A) (A) (A) (A) (A) (A) (A) (A) (A) (A) (A) (A)
                 (A) (A) (A) (A) (A) (A) (A) (A) (A) (A) (A) (A)
                 (A) (A) (A) (A) (A) (A) (A) (A) (A) (A) (A) (A)
                 (A) (A) (A) (A) (A) (A) (A) (A) (A) (A) (A) (A)
                 (A) (A) (A) (A) (A) (A) (A) (A) (A) (A) (A) (A)
                 (A) (A) (A) (A) (A) (A) (A) (A) (A) (A) (A) (A)
                 (A) (A) (A) (A) (A) (A) (A) (A) (A) (A) (A) (A)
                 (A) (A) (A) (A) (A) (A) (A) (A) (A) (A) (A) (A)
                 (A) (A) (A) (A) (A) (A) (A) (A) (A) (A) (A) (A)
                 (A) (A) (A) (A) (A) (A) (A) (A) (A) (A) (A) (A)
                 (A) (A) (A) (A) (A) (A) (A) (A) (A) (A) (A) (A)
                 (A) (A) (A) (A) (A) (A) (A) (A) (A) (A) (A) (A)
                 (A) (A) (A) (A) (A) (A) (A) (A) (A) (A) (A) (A)
                 (A) (A) (A) (A) (A) (A) (A) (A) (A) (A) (A) (A)
                 (A) (A) (A) (A) (A) (A) (A) (A) (A) (A) (A) (A)
                 (A) (A) (A) (A) (A) (A) (A) (A) (A) (A) (A) (A)
                 (A) (A) (A) (A) (A) (A) (A) (A) (A) (A) (A) (A)
                 (A) (A) (A) (A) (A) (A) (A) (A) (A) (A) (A) (A)
                 (A) (A) (A) (A) (A) (A) (A) (A) (A) (A) (A) (A)
                 (A) (A) (A) (A) (A) (A) (A) (A) (A) (A) (A) (A)
                 (A) (A) (A) (A) (A) (A) (A) (A) (A) (A) (A) (A)
                 (A) (A) (A) (A) (A) (A) (A) (A) (A) (A) (A) (A)
                 (A) (A) (A) (A) (A) (A) (A) (A) (A) (A) (A) (A)
                 (A) (A) (A) (A) (A) (A) (A) (A) (A) (A) (A) (A)
                 (A) (A) (A) (A) (A) (A) (A) (A) (A) (A) (A) (A)
                 (A) (A) (A) (A) (A)
 The electronic state is 1-A.
 Alpha  occ. eigenvalues --  -19.13011 -10.26319 -10.20069 -10.19497 -10.19379
 Alpha  occ. eigenvalues --  -10.18892 -10.18403 -10.18358 -10.18269 -10.18237
 Alpha  occ. eigenvalues --  -10.18188 -10.18164 -10.18129 -10.18056 -10.17761
 Alpha  occ. eigenvalues --  -10.17603 -10.17445 -10.17403 -10.16931 -10.16752
 Alpha  occ. eigenvalues --  -10.16713 -10.16633 -10.16369  -1.02859  -0.86344
 Alpha  occ. eigenvalues --   -0.84616  -0.80397  -0.78093  -0.77695  -0.75943
 Alpha  occ. eigenvalues --   -0.74558  -0.71780  -0.70706  -0.68219  -0.67680
 Alpha  occ. eigenvalues --   -0.67514  -0.66475  -0.61841  -0.61093  -0.59287
 Alpha  occ. eigenvalues --   -0.58554  -0.56291  -0.54109  -0.52812  -0.52257
 Alpha  occ. eigenvalues --   -0.51051  -0.47764  -0.47365  -0.46877  -0.46238
 Alpha  occ. eigenvalues --   -0.45393  -0.44926  -0.43939  -0.43668  -0.43394
 Alpha  occ. eigenvalues --   -0.42461  -0.41596  -0.41212  -0.40774  -0.40099
 Alpha  occ. eigenvalues --   -0.39801  -0.39390  -0.38515  -0.38222  -0.37926
 Alpha  occ. eigenvalues --   -0.37669  -0.37102  -0.36662  -0.35941  -0.35683
 Alpha  occ. eigenvalues --   -0.35264  -0.34588  -0.34396  -0.33810  -0.33383
 Alpha  occ. eigenvalues --   -0.33037  -0.32819  -0.32272  -0.31914  -0.31097
 Alpha  occ. eigenvalues --   -0.30603  -0.30202  -0.29626  -0.29467  -0.28799
 Alpha  occ. eigenvalues --   -0.27903  -0.27536  -0.22858
 Alpha virt. eigenvalues --   -0.00682   0.07190   0.07796   0.08005   0.10139
 Alpha virt. eigenvalues --    0.10429   0.10567   0.10936   0.11574   0.11867
 Alpha virt. eigenvalues --    0.12988   0.13083   0.13596   0.14460   0.14703
 Alpha virt. eigenvalues --    0.15177   0.15202   0.15314   0.15947   0.16105
 Alpha virt. eigenvalues --    0.16737   0.16854   0.17476   0.17676   0.18119
 Alpha virt. eigenvalues --    0.18327   0.18970   0.19262   0.19545   0.19860
 Alpha virt. eigenvalues --    0.20270   0.20569   0.21280   0.21557   0.21978
 Alpha virt. eigenvalues --    0.22527   0.22738   0.23068   0.23406   0.24034
 Alpha virt. eigenvalues --    0.24084   0.24496   0.25099   0.25465   0.25687
 Alpha virt. eigenvalues --    0.26048   0.26485   0.26844   0.27352   0.28211
 Alpha virt. eigenvalues --    0.28240   0.28358   0.28882   0.29585   0.30683
 Alpha virt. eigenvalues --    0.31417   0.31747   0.32600   0.33056   0.34995
 Alpha virt. eigenvalues --    0.37563   0.38269   0.40462   0.49083   0.50008
 Alpha virt. eigenvalues --    0.50446   0.50765   0.51183   0.51790   0.52836
 Alpha virt. eigenvalues --    0.53221   0.54058   0.54264   0.54993   0.56244
 Alpha virt. eigenvalues --    0.56378   0.57933   0.59015   0.59571   0.60407
 Alpha virt. eigenvalues --    0.60670   0.61637   0.62756   0.63103   0.63579
 Alpha virt. eigenvalues --    0.64216   0.65317   0.65797   0.66230   0.67330
 Alpha virt. eigenvalues --    0.67737   0.68794   0.69496   0.69797   0.70633
 Alpha virt. eigenvalues --    0.70863   0.71944   0.73094   0.73608   0.74008
 Alpha virt. eigenvalues --    0.74926   0.75991   0.77079   0.78079   0.78420
 Alpha virt. eigenvalues --    0.80323   0.80944   0.81298   0.82580   0.82911
 Alpha virt. eigenvalues --    0.83271   0.83773   0.84318   0.84494   0.85454
 Alpha virt. eigenvalues --    0.85738   0.85851   0.86648   0.87302   0.87759
 Alpha virt. eigenvalues --    0.88115   0.88449   0.88927   0.89381   0.89646
 Alpha virt. eigenvalues --    0.90298   0.90453   0.91032   0.91194   0.92239
 Alpha virt. eigenvalues --    0.92572   0.92838   0.93159   0.93727   0.94184
 Alpha virt. eigenvalues --    0.94997   0.95190   0.95875   0.96108   0.96570
 Alpha virt. eigenvalues --    0.96822   0.97470   0.97648   0.98619   0.98940
 Alpha virt. eigenvalues --    0.99274   0.99551   1.00510   1.01415   1.01751
 Alpha virt. eigenvalues --    1.02152   1.02563   1.04353   1.04927   1.05402
 Alpha virt. eigenvalues --    1.05732   1.06987   1.08306   1.08900   1.12068
 Alpha virt. eigenvalues --    1.14333   1.14688   1.17018   1.18253   1.20083
 Alpha virt. eigenvalues --    1.21586   1.21918   1.23818   1.24702   1.28266
 Alpha virt. eigenvalues --    1.30065   1.30592   1.31794   1.33850   1.36093
 Alpha virt. eigenvalues --    1.38439   1.41620   1.42991   1.46603   1.47993
 Alpha virt. eigenvalues --    1.48943   1.52017   1.53083   1.54830   1.56582
 Alpha virt. eigenvalues --    1.57122   1.58183   1.60156   1.61650   1.63519
 Alpha virt. eigenvalues --    1.64826   1.65897   1.66453   1.67539   1.69552
 Alpha virt. eigenvalues --    1.71269   1.72347   1.73355   1.74990   1.75357
 Alpha virt. eigenvalues --    1.75409   1.77506   1.78366   1.79332   1.79473
 Alpha virt. eigenvalues --    1.80829   1.81760   1.83184   1.83981   1.84406
 Alpha virt. eigenvalues --    1.86133   1.86461   1.87091   1.87196   1.89295
 Alpha virt. eigenvalues --    1.90469   1.91934   1.92721   1.93159   1.93649
 Alpha virt. eigenvalues --    1.94663   1.95343   1.95609   1.96521   1.97115
 Alpha virt. eigenvalues --    1.98262   1.99444   1.99824   2.00936   2.01794
 Alpha virt. eigenvalues --    2.02767   2.03032   2.04180   2.04744   2.05038
 Alpha virt. eigenvalues --    2.05532   2.06506   2.08401   2.09270   2.09881
 Alpha virt. eigenvalues --    2.11181   2.11917   2.12411   2.13797   2.14410
 Alpha virt. eigenvalues --    2.15085   2.15641   2.19023   2.20213   2.20780
 Alpha virt. eigenvalues --    2.21023   2.23453   2.23768   2.25834   2.26293
 Alpha virt. eigenvalues --    2.27870   2.28988   2.29647   2.30181   2.30337
 Alpha virt. eigenvalues --    2.31848   2.34059   2.34430   2.37226   2.38321
 Alpha virt. eigenvalues --    2.39646   2.40593   2.40891   2.42251   2.42523
 Alpha virt. eigenvalues --    2.43178   2.44950   2.46123   2.48473   2.49391
 Alpha virt. eigenvalues --    2.49944   2.52420   2.53714   2.54853   2.55725
 Alpha virt. eigenvalues --    2.57912   2.59356   2.60280   2.62050   2.62911
 Alpha virt. eigenvalues --    2.64172   2.67009   2.67290   2.68910   2.71638
 Alpha virt. eigenvalues --    2.72519   2.74774   2.75689   2.77338   2.78440
 Alpha virt. eigenvalues --    2.80042   2.82544   2.83418   2.85920   2.89156
 Alpha virt. eigenvalues --    2.90593   2.91272   2.95372   3.01184   3.04587
 Alpha virt. eigenvalues --    3.07850   4.06173   4.11320   4.14207   4.20553
 Alpha virt. eigenvalues --    4.23292   4.25146   4.26615   4.29221   4.30813
 Alpha virt. eigenvalues --    4.32608   4.36019   4.42108   4.44689   4.46879
 Alpha virt. eigenvalues --    4.54150   4.56996   4.57204   4.65240   4.67050
 Alpha virt. eigenvalues --    4.72526   4.77895   4.79937   4.83479
          Condensed to atoms (all electrons):
 Mulliken charges:
               1
     1  C   -0.453411
     2  C   -0.076993
     3  C   -0.450158
     4  C   -0.080644
     5  C   -0.296402
     6  C   -0.288851
     7  C   -0.079528
     8  C   -0.206632
     9  C    0.449684
    10  C   -0.346174
    11  C   -0.108494
    12  C   -0.264782
    13  C   -0.260760
    14  C   -0.267767
    15  C   -0.277677
    16  C    0.104129
    17  C   -0.484245
    18  C   -0.104402
    19  C   -0.289406
    20  C   -0.275968
    21  C    0.081413
    22  C   -0.479836
    23  O   -0.458110
    24  H    0.145404
    25  H    0.136325
    26  H    0.143234
    27  H    0.121684
    28  H    0.136898
    29  H    0.142863
    30  H    0.139127
    31  H    0.113374
    32  H    0.134710
    33  H    0.136285
    34  H    0.164774
    35  H    0.122760
    36  H    0.122768
    37  H    0.138891
    38  H    0.148383
    39  H    0.156166
    40  H    0.126029
    41  H    0.134384
    42  H    0.131188
    43  H    0.130669
    44  H    0.132303
    45  H    0.133533
    46  H    0.133362
    47  H    0.126482
    48  H    0.134749
    49  H    0.148593
    50  H    0.150655
    51  H    0.144155
    52  H    0.120571
    53  H    0.137918
    54  H    0.138777
    55  H    0.126723
    56  H    0.124455
    57  H    0.149793
    58  H    0.140961
    59  H    0.146067
 Sum of Mulliken charges =  -0.00000
 Mulliken charges with hydrogens summed into heavy atoms:
               1
     1  C   -0.028448
     2  C    0.044691
     3  C   -0.031270
     4  C    0.032730
     5  C   -0.025406
     6  C   -0.001316
     7  C    0.043240
     8  C   -0.067740
     9  C    0.449684
    10  C   -0.041625
    11  C    0.017535
    12  C    0.000790
    13  C    0.002212
    14  C   -0.000872
    15  C   -0.016446
    16  C    0.104129
    17  C   -0.040842
    18  C    0.016168
    19  C   -0.012712
    20  C   -0.024790
    21  C    0.081413
    22  C   -0.043015
    23  O   -0.458110
 APT charges:
               1
     1  C    0.043969
     2  C    0.136784
     3  C    0.073380
     4  C    0.076788
     5  C    0.059243
     6  C    0.074731
     7  C    0.064207
     8  C   -0.096536
     9  C    0.739519
    10  C   -0.101717
    11  C    0.096839
    12  C    0.100582
    13  C    0.111875
    14  C    0.120452
    15  C    0.071527
    16  C    0.068274
    17  C   -0.001991
    18  C    0.095753
    19  C    0.069760
    20  C    0.104831
    21  C    0.049965
    22  C    0.018902
    23  O   -0.653158
    24  H   -0.012507
    25  H   -0.039907
    26  H   -0.017836
    27  H   -0.072733
    28  H   -0.047199
    29  H   -0.020664
    30  H   -0.028657
    31  H   -0.066397
    32  H   -0.050090
    33  H   -0.038573
    34  H   -0.000140
    35  H   -0.047418
    36  H   -0.046592
    37  H   -0.011416
    38  H   -0.001623
    39  H   -0.034234
    40  H   -0.054063
    41  H   -0.056082
    42  H   -0.042882
    43  H   -0.045249
    44  H   -0.067658
    45  H   -0.043932
    46  H   -0.066767
    47  H   -0.043709
    48  H   -0.044249
    49  H   -0.006287
    50  H   -0.012704
    51  H   -0.012993
    52  H   -0.052425
    53  H   -0.027385
    54  H   -0.049756
    55  H   -0.063946
    56  H   -0.044101
    57  H   -0.007859
    58  H   -0.026391
    59  H   -0.019554
 Sum of APT charges =   0.00000
 APT charges with hydrogens summed into heavy atoms:
               1
     1  C   -0.026281
     2  C    0.064051
     3  C   -0.023140
     4  C    0.010391
     5  C   -0.029420
     6  C    0.027174
     7  C    0.017615
     8  C   -0.107952
     9  C    0.739519
    10  C   -0.137574
    11  C    0.042775
    12  C    0.001618
    13  C   -0.001032
    14  C    0.009754
    15  C   -0.016431
    16  C    0.068274
    17  C   -0.033975
    18  C    0.043328
    19  C   -0.007382
    20  C   -0.003217
    21  C    0.049965
    22  C   -0.034903
    23  O   -0.653158
 Electronic spatial extent (au):  <R**2>=           9091.9408
 Charge=             -0.0000 electrons
 Dipole moment (field-independent basis, Debye):
    X=              1.3934    Y=             -2.4720    Z=              1.1220  Tot=              3.0514
 Quadrupole moment (field-independent basis, Debye-Ang):
   XX=           -140.0762   YY=           -153.5568   ZZ=           -144.1821
   XY=             -0.3025   XZ=              0.7148   YZ=              3.8073
 Traceless Quadrupole moment (field-independent basis, Debye-Ang):
   XX=              5.8622   YY=             -7.6184   ZZ=              1.7563
   XY=             -0.3025   XZ=              0.7148   YZ=              3.8073
 Octapole moment (field-independent basis, Debye-Ang**2):
  XXX=             33.0462  YYY=            -24.7228  ZZZ=             -4.0028  XYY=             -1.6080
  XXY=              8.2408  XXZ=             -0.2886  XZZ=              5.8954  YZZ=              3.5807
  YYZ=             11.1320  XYZ=              3.6781
 Hexadecapole moment (field-independent basis, Debye-Ang**3):
 XXXX=          -9800.2248 YYYY=          -1992.4527 ZZZZ=           -836.8461 XXXY=             17.8750
 XXXZ=             -5.6563 YYYX=             -2.5116 YYYZ=             24.5214 ZZZX=             -3.7230
 ZZZY=             -0.6375 XXYY=          -1923.6042 XXZZ=          -1786.4289 YYZZ=           -458.2514
 XXYZ=             -9.9489 YYXZ=              5.1324 ZZXY=             -5.5398
 N-N= 2.163754280654D+03 E-N=-6.492812829555D+03  KE= 9.261041208810D+02
  Exact polarizability: 272.861  -1.472 208.512   0.474  -1.659 181.768
 Approx polarizability: 315.404  -5.288 317.071   3.804 -10.140 307.473
 Calling FoFJK, ICntrl=    100127 FMM=F ISym2X=0 I1Cent= 0 IOpClX= 0 NMat=1 NMatS=1 NMatT=0.
 Full mass-weighted force constant matrix:
 Low frequencies ---   -5.5358   -0.3105   -0.0009    0.0003    0.0011    4.4848
 Low frequencies ---   39.3110   49.4838   64.6086
 Diagonal vibrational polarizability:
       11.1818969       6.9294372      11.8808531
 Harmonic frequencies (cm**-1), IR intensities (KM/Mole), Raman scattering
 activities (A**4/AMU), depolarization ratios for plane and unpolarized
 incident light, reduced masses (AMU), force constants (mDyne/A),
 and normal coordinates:
                      1                      2                      3
                      A                      A                      A
 Frequencies --     39.3030                49.4789                64.6069
 Red. masses --      3.4213                 2.8013                 3.0899
 Frc consts  --      0.0031                 0.0040                 0.0076
 IR Inten    --      0.0802                 0.0845                 0.2176
  Atom  AN      X      Y      Z        X      Y      Z        X      Y      Z
     1   6     0.08  -0.09   0.11     0.03  -0.17  -0.06    -0.05   0.00  -0.07
     2   6    -0.01   0.00   0.03    -0.00   0.00  -0.11     0.03  -0.02  -0.00
     3   6    -0.10   0.12   0.10    -0.03   0.22  -0.08     0.11  -0.14  -0.07
     4   6    -0.02   0.01   0.02     0.02  -0.01  -0.00     0.00   0.04   0.03
     5   6    -0.01  -0.01   0.07    -0.00  -0.02   0.03    -0.01   0.01   0.14
     6   6     0.00  -0.01   0.03    -0.01  -0.02   0.05    -0.01   0.01   0.13
     7   6    -0.01   0.01  -0.04     0.00  -0.01   0.04    -0.00   0.04   0.04
     8   6    -0.00   0.00  -0.07     0.00   0.00   0.03     0.01   0.03   0.01
     9   6    -0.00  -0.00  -0.08    -0.01  -0.00  -0.02     0.00   0.03  -0.02
    10   6    -0.01   0.02  -0.05     0.01   0.01  -0.07     0.04   0.02  -0.12
    11   6     0.01   0.00   0.01    -0.01  -0.01  -0.04     0.01  -0.02  -0.07
    12   6    -0.00  -0.00   0.10     0.00   0.01  -0.09     0.01  -0.04  -0.07
    13   6     0.04  -0.01   0.15    -0.02  -0.02  -0.07    -0.02  -0.09  -0.01
    14   6     0.01  -0.01   0.12     0.00  -0.00   0.02    -0.04  -0.06   0.08
    15   6     0.02  -0.00   0.04    -0.01  -0.02   0.06    -0.03  -0.05   0.08
    16   6    -0.01   0.01  -0.01     0.01   0.01   0.03    -0.01   0.02   0.00
    17   6    -0.08   0.02  -0.00     0.04   0.07   0.04    -0.03   0.10   0.02
    18   6     0.01   0.01  -0.07     0.00  -0.01   0.05    -0.00   0.03  -0.02
    19   6     0.00   0.00  -0.15     0.01  -0.01   0.09    -0.00   0.02  -0.07
    20   6    -0.00   0.02  -0.12     0.01  -0.02   0.06     0.00   0.05  -0.07
    21   6     0.01  -0.01  -0.05    -0.00  -0.01   0.04     0.01   0.02  -0.01
    22   6     0.07  -0.06  -0.05    -0.02  -0.00   0.04     0.02  -0.05  -0.02
    23   8     0.00  -0.02  -0.12    -0.03  -0.02  -0.02    -0.04   0.06   0.06
    24   1     0.14  -0.18   0.07     0.04  -0.34  -0.06    -0.09   0.08  -0.04
    25   1     0.08  -0.09   0.09    -0.01  -0.15  -0.18    -0.01  -0.03  -0.06
    26   1     0.08  -0.08   0.23     0.07  -0.14   0.11    -0.09  -0.03  -0.14
    27   1    -0.02  -0.00  -0.08    -0.03  -0.02  -0.27     0.08   0.01   0.07
    28   1    -0.10   0.11   0.11    -0.04   0.23  -0.17     0.14  -0.18  -0.08
    29   1    -0.11   0.13   0.22    -0.00   0.26   0.09     0.07  -0.17  -0.15
    30   1    -0.17   0.19   0.04    -0.05   0.36  -0.14     0.19  -0.17  -0.01
    31   1    -0.06   0.04   0.01     0.07   0.03   0.01    -0.01   0.12   0.03
    32   1    -0.04   0.02   0.11    -0.00  -0.00   0.04    -0.05   0.05   0.20
    33   1     0.03  -0.04   0.10    -0.01  -0.05   0.03     0.02  -0.07   0.17
    34   1    -0.02   0.01   0.04    -0.00  -0.01   0.06    -0.03   0.04   0.16
    35   1     0.04  -0.04   0.03    -0.02  -0.03   0.05     0.02  -0.04   0.13
    36   1    -0.04   0.04  -0.04    -0.00  -0.00   0.04    -0.03   0.10   0.04
    37   1     0.01   0.01  -0.07     0.02   0.03   0.03     0.03   0.02   0.01
    38   1    -0.04   0.05  -0.05     0.05   0.05  -0.07     0.10   0.09  -0.12
    39   1    -0.01   0.01  -0.07    -0.01   0.00  -0.11     0.02  -0.00  -0.20
    40   1     0.07  -0.02   0.00    -0.04  -0.05  -0.04     0.00  -0.07  -0.07
    41   1     0.02  -0.01   0.11    -0.01  -0.00  -0.14     0.03  -0.07  -0.13
    42   1    -0.07   0.01   0.11     0.04   0.05  -0.10     0.01   0.02  -0.07
    43   1     0.10  -0.02   0.14    -0.06  -0.06  -0.07    -0.02  -0.16  -0.02
    44   1     0.02  -0.02   0.22    -0.01  -0.00  -0.10    -0.02  -0.10  -0.01
    45   1    -0.05  -0.01   0.13     0.04   0.05   0.02    -0.03   0.00   0.10
    46   1     0.03  -0.01   0.14    -0.01  -0.03   0.04    -0.05  -0.10   0.13
    47   1     0.07  -0.01   0.03    -0.04  -0.07   0.06    -0.04  -0.12   0.08
    48   1    -0.00   0.00   0.02     0.01  -0.01   0.12    -0.05  -0.02   0.15
    49   1    -0.14   0.05  -0.00     0.03   0.09   0.09    -0.13   0.17   0.08
    50   1    -0.09  -0.03   0.03     0.05   0.07   0.01    -0.02   0.01   0.01
    51   1    -0.05   0.06  -0.03     0.07   0.10   0.02     0.07   0.19  -0.02
    52   1     0.05   0.04  -0.07    -0.02  -0.04   0.05     0.02   0.06  -0.01
    53   1     0.01  -0.07  -0.17    -0.01   0.03   0.10    -0.00  -0.03  -0.09
    54   1     0.00   0.04  -0.20     0.01  -0.02   0.12    -0.01   0.05  -0.12
    55   1     0.00   0.01  -0.16     0.01  -0.02   0.07    -0.01   0.04  -0.12
    56   1    -0.02   0.08  -0.11     0.03  -0.03   0.06     0.00   0.11  -0.06
    57   1     0.07  -0.09  -0.01    -0.09  -0.03   0.02     0.03  -0.07   0.03
    58   1     0.10  -0.06  -0.10    -0.03   0.07   0.06     0.02  -0.09  -0.03
    59   1     0.11  -0.09  -0.06     0.04  -0.04   0.03     0.01  -0.06  -0.06
                      4                      5                      6
                      A                      A                      A
 Frequencies --     73.5405                99.9931               118.3608
 Red. masses --      5.6269                 3.0827                 3.1896
 Frc consts  --      0.0179                 0.0182                 0.0263
 IR Inten    --      1.5707                 0.3357                 0.6773
  Atom  AN      X      Y      Z        X      Y      Z        X      Y      Z
     1   6     0.11  -0.07   0.09    -0.05   0.21   0.01    -0.10   0.05  -0.04
     2   6     0.01  -0.04   0.02    -0.06   0.07   0.02    -0.04   0.02  -0.00
     3   6    -0.10   0.01   0.10    -0.07   0.08   0.03     0.03   0.07  -0.05
     4   6     0.00  -0.05  -0.07    -0.00  -0.03  -0.03    -0.01  -0.01   0.06
     5   6    -0.01  -0.02  -0.17     0.04  -0.00  -0.08     0.00  -0.03   0.10
     6   6    -0.02   0.01  -0.16     0.03  -0.07   0.08     0.02  -0.01  -0.05
     7   6     0.01   0.00  -0.10     0.01  -0.06   0.03    -0.00  -0.05  -0.02
     8   6    -0.00   0.01  -0.04     0.01  -0.06   0.02     0.01  -0.04  -0.07
     9   6     0.00   0.05   0.09    -0.03  -0.04   0.02    -0.03  -0.00  -0.04
    10   6     0.04  -0.02  -0.03    -0.02   0.00  -0.03    -0.01  -0.00  -0.11
    11   6     0.01  -0.02  -0.04    -0.01   0.01  -0.03     0.01  -0.00  -0.07
    12   6     0.01  -0.04  -0.08     0.00   0.06  -0.06    -0.00   0.02   0.04
    13   6    -0.02  -0.08  -0.03     0.02   0.05  -0.04     0.09   0.01   0.15
    14   6    -0.02  -0.05   0.06     0.07   0.05   0.05     0.04   0.00   0.05
    15   6    -0.02  -0.05   0.07     0.06  -0.01   0.07     0.06   0.02  -0.09
    16   6    -0.00  -0.00   0.01     0.03   0.00   0.02     0.02  -0.01  -0.08
    17   6    -0.02   0.06   0.02     0.03   0.06   0.03     0.02  -0.02  -0.09
    18   6     0.01   0.01  -0.02     0.03  -0.04   0.01     0.01  -0.04  -0.06
    19   6     0.01   0.00  -0.02     0.03  -0.05  -0.04     0.01  -0.03   0.02
    20   6     0.02  -0.01  -0.03     0.02  -0.04  -0.06    -0.02  -0.06   0.09
    21   6     0.01   0.00  -0.06    -0.00  -0.07  -0.02    -0.01  -0.03   0.05
    22   6     0.04   0.05  -0.05    -0.04  -0.13  -0.04     0.01   0.04   0.06
    23   8    -0.05   0.21   0.35    -0.07  -0.04   0.04    -0.10   0.07   0.11
    24   1     0.18  -0.10   0.05    -0.05   0.26   0.01    -0.14   0.01  -0.01
    25   1     0.12  -0.07   0.13    -0.08   0.25   0.08    -0.14   0.09  -0.08
    26   1     0.11  -0.07   0.16    -0.02   0.22  -0.07    -0.04   0.08  -0.06
    27   1     0.01  -0.04  -0.05    -0.14   0.04   0.08    -0.09   0.00   0.01
    28   1    -0.09   0.01   0.16    -0.14   0.18   0.08    -0.02   0.13  -0.10
    29   1    -0.12   0.01   0.18     0.04   0.11  -0.04     0.10   0.10  -0.08
    30   1    -0.19   0.04   0.04    -0.10  -0.04   0.04     0.06   0.04  -0.02
    31   1    -0.02  -0.12  -0.07    -0.01  -0.07  -0.03     0.00   0.02   0.06
    32   1     0.01  -0.07  -0.22     0.17   0.00  -0.16    -0.11  -0.02   0.18
    33   1    -0.04   0.04  -0.19    -0.06   0.06  -0.16     0.11  -0.07   0.18
    34   1    -0.02  -0.01  -0.19     0.10  -0.02   0.19    -0.01  -0.06  -0.15
    35   1    -0.04   0.05  -0.17    -0.04  -0.19   0.12     0.11   0.08  -0.08
    36   1     0.04  -0.04  -0.10     0.00  -0.01   0.03    -0.03  -0.10  -0.03
    37   1    -0.06  -0.01  -0.04     0.01  -0.07   0.02     0.03  -0.04  -0.06
    38   1     0.10  -0.01  -0.03     0.02   0.03  -0.03     0.02   0.03  -0.11
    39   1     0.03  -0.02  -0.05    -0.05   0.01  -0.07    -0.03  -0.00  -0.14
    40   1    -0.02  -0.04  -0.04    -0.03  -0.02  -0.02     0.07  -0.02  -0.08
    41   1     0.02  -0.06  -0.13    -0.04   0.06  -0.11     0.01   0.01   0.03
    42   1     0.03   0.01  -0.08     0.03   0.10  -0.07    -0.09   0.09   0.05
    43   1    -0.04  -0.14  -0.04    -0.03   0.00  -0.04     0.25  -0.01   0.14
    44   1    -0.01  -0.07  -0.05     0.03   0.10  -0.07     0.06   0.01   0.30
    45   1    -0.01   0.02   0.08     0.10   0.12   0.06    -0.06  -0.03   0.07
    46   1    -0.03  -0.10   0.11     0.08   0.03   0.09     0.10   0.02   0.07
    47   1    -0.02  -0.11   0.06     0.04  -0.08   0.07     0.16   0.07  -0.10
    48   1    -0.03  -0.03   0.12     0.10  -0.01   0.13     0.03   0.00  -0.17
    49   1    -0.02   0.07   0.05    -0.00   0.09   0.07     0.11  -0.07  -0.11
    50   1    -0.02   0.08   0.03     0.04   0.03   0.02     0.01   0.08  -0.06
    51   1    -0.03   0.09  -0.02     0.07   0.10   0.01    -0.07  -0.09  -0.09
    52   1     0.03  -0.01  -0.02     0.04  -0.02   0.01    -0.03  -0.07  -0.07
    53   1     0.01   0.01  -0.02     0.02  -0.08  -0.05     0.06   0.02   0.03
    54   1     0.02   0.00  -0.01     0.04  -0.03  -0.06    -0.02  -0.06   0.04
    55   1     0.02  -0.01  -0.01     0.03  -0.05  -0.10    -0.00  -0.05   0.18
    56   1     0.02  -0.04  -0.03     0.04  -0.00  -0.05    -0.08  -0.13   0.09
    57   1     0.02   0.06  -0.08    -0.01  -0.14  -0.01     0.06   0.09   0.04
    58   1     0.04   0.09  -0.06    -0.05  -0.20  -0.03     0.01   0.00   0.05
    59   1     0.06   0.04  -0.01    -0.08  -0.12  -0.09    -0.04   0.08   0.11
                      7                      8                      9
                      A                      A                      A
 Frequencies --    134.2534               163.2806               189.9683
 Red. masses --      2.2648                 1.4906                 2.8115
 Frc consts  --      0.0241                 0.0234                 0.0598
 IR Inten    --      0.0994                 0.2656                 0.5012
  Atom  AN      X      Y      Z        X      Y      Z        X      Y      Z
     1   6    -0.03   0.02  -0.01     0.01  -0.02   0.00     0.06  -0.04   0.01
     2   6    -0.01   0.01   0.01     0.00   0.00  -0.00     0.03   0.04  -0.02
     3   6     0.02   0.03  -0.02    -0.01  -0.02   0.01    -0.03  -0.08   0.02
     4   6    -0.01   0.02   0.03    -0.01   0.02  -0.01    -0.02   0.10  -0.04
     5   6     0.00  -0.02   0.15    -0.00   0.02  -0.00     0.02   0.09   0.05
     6   6     0.04   0.02  -0.14    -0.00   0.00   0.05     0.05   0.03   0.05
     7   6     0.01  -0.03  -0.07    -0.01   0.01   0.00     0.01   0.02  -0.02
     8   6    -0.01  -0.03  -0.03    -0.00  -0.00  -0.01     0.01  -0.05  -0.03
     9   6     0.00  -0.02   0.02     0.01  -0.01   0.02    -0.02  -0.04  -0.03
    10   6    -0.02  -0.02   0.09    -0.00  -0.03   0.06    -0.02  -0.04  -0.06
    11   6    -0.03  -0.00   0.04    -0.02   0.01  -0.03    -0.02  -0.05  -0.01
    12   6    -0.01   0.03  -0.05    -0.00   0.04  -0.10    -0.03   0.03   0.01
    13   6    -0.04   0.05  -0.10     0.01  -0.03   0.01     0.04   0.09  -0.01
    14   6     0.03   0.04   0.02     0.00   0.01   0.11     0.11   0.05   0.00
    15   6     0.02  -0.03   0.08     0.02   0.01  -0.02     0.09  -0.05   0.03
    16   6    -0.00  -0.01   0.04    -0.00  -0.00  -0.03     0.01  -0.07   0.02
    17   6    -0.04   0.01   0.05    -0.01  -0.02  -0.03     0.01  -0.07   0.01
    18   6     0.01  -0.03  -0.01    -0.01  -0.00  -0.02    -0.00  -0.09   0.01
    19   6    -0.00  -0.03  -0.05    -0.01   0.00   0.01    -0.07  -0.04   0.07
    20   6    -0.01  -0.02  -0.03    -0.01   0.01  -0.00    -0.04   0.03  -0.03
    21   6     0.01  -0.01  -0.02    -0.01   0.01  -0.01    -0.03   0.06  -0.06
    22   6     0.06   0.01  -0.02    -0.02   0.00  -0.01    -0.07   0.08  -0.06
    23   8     0.03  -0.02   0.01     0.05  -0.01  -0.01    -0.07  -0.02   0.04
    24   1    -0.05   0.01  -0.00     0.01  -0.02   0.00     0.08  -0.05  -0.00
    25   1    -0.05   0.04  -0.03     0.02  -0.03   0.00     0.09  -0.08   0.00
    26   1    -0.01   0.03  -0.02    -0.01  -0.03   0.01     0.02  -0.06   0.06
    27   1    -0.02   0.01   0.01     0.02   0.01  -0.01     0.12   0.07  -0.03
    28   1    -0.00   0.05  -0.04     0.02  -0.05   0.01     0.14  -0.29   0.02
    29   1     0.04   0.04  -0.03    -0.04  -0.03   0.02    -0.28  -0.16   0.11
    30   1     0.03   0.01  -0.00    -0.00   0.01  -0.00    -0.01   0.11  -0.02
    31   1    -0.04   0.09   0.03    -0.01   0.02  -0.01    -0.05   0.15  -0.05
    32   1    -0.22   0.00   0.31     0.03   0.03  -0.02     0.03   0.15   0.08
    33   1     0.21  -0.13   0.30    -0.03   0.03  -0.02     0.03   0.06   0.06
    34   1    -0.04  -0.07  -0.32     0.01   0.03   0.10     0.06   0.06   0.10
    35   1     0.18   0.21  -0.20    -0.02  -0.06   0.06     0.08  -0.03   0.07
    36   1     0.04  -0.09  -0.07    -0.02   0.04   0.00    -0.00   0.07  -0.02
    37   1    -0.05  -0.03  -0.03    -0.01  -0.02  -0.01     0.01  -0.03  -0.03
    38   1    -0.05  -0.07   0.09    -0.02  -0.13   0.06    -0.01   0.01  -0.06
    39   1    -0.01  -0.01   0.14     0.01  -0.00   0.15    -0.02  -0.05  -0.10
    40   1    -0.08   0.02   0.04    -0.07   0.04  -0.02    -0.01  -0.10  -0.01
    41   1    -0.06   0.04  -0.07    -0.04   0.01  -0.22    -0.08   0.07   0.03
    42   1     0.06   0.02  -0.06     0.05   0.16  -0.10    -0.04   0.02   0.01
    43   1    -0.17   0.02  -0.10     0.03  -0.13  -0.01     0.02   0.09  -0.01
    44   1    -0.02   0.09  -0.22     0.00   0.00   0.03     0.04   0.14  -0.01
    45   1     0.09   0.13   0.03    -0.08   0.12   0.15     0.14   0.07  -0.00
    46   1     0.03   0.02   0.06     0.05  -0.05   0.22     0.14   0.07  -0.00
    47   1    -0.02  -0.09   0.09     0.11   0.03  -0.03     0.06  -0.08   0.03
    48   1     0.06  -0.02   0.15    -0.01   0.01  -0.06     0.15  -0.07   0.06
    49   1    -0.00  -0.00   0.05     0.40  -0.22  -0.11    -0.09  -0.03   0.02
    50   1    -0.04   0.06   0.07    -0.03   0.43   0.05     0.01  -0.19  -0.00
    51   1    -0.08  -0.00   0.03    -0.39  -0.27  -0.04     0.10  -0.01   0.02
    52   1     0.05  -0.02  -0.00    -0.02  -0.01  -0.02    -0.00  -0.14   0.00
    53   1     0.01  -0.08  -0.06    -0.01   0.03   0.02    -0.16   0.05   0.10
    54   1    -0.01  -0.01  -0.08    -0.01  -0.01   0.03    -0.08  -0.11   0.17
    55   1    -0.01  -0.02  -0.01    -0.01   0.01  -0.01    -0.10   0.05  -0.07
    56   1    -0.03  -0.03  -0.03     0.01   0.01  -0.00     0.04   0.04  -0.03
    57   1     0.16   0.07   0.00    -0.05  -0.01  -0.01    -0.18   0.04  -0.10
    58   1     0.06  -0.08  -0.06    -0.02   0.03   0.00    -0.08   0.20  -0.01
    59   1    -0.03   0.07   0.01     0.01  -0.01  -0.02     0.02   0.02  -0.06
                     10                     11                     12
                      A                      A                      A
 Frequencies --    193.2142               210.8607               214.2910
 Red. masses --      3.3030                 2.5899                 2.1921
 Frc consts  --      0.0726                 0.0678                 0.0593
 IR Inten    --      0.6705                 1.1359                 0.6230
  Atom  AN      X      Y      Z        X      Y      Z        X      Y      Z
     1   6     0.13   0.01   0.01     0.13   0.06   0.01    -0.02   0.03  -0.00
     2   6     0.11   0.01  -0.00     0.06   0.02  -0.02    -0.02  -0.01   0.01
     3   6     0.16   0.04  -0.03     0.02   0.01   0.01     0.01   0.02  -0.00
     4   6     0.08   0.01   0.02     0.04   0.02  -0.05     0.00  -0.03   0.00
     5   6     0.07   0.04  -0.09     0.03  -0.02   0.07     0.00  -0.04   0.04
     6   6     0.06  -0.01   0.05     0.03   0.01  -0.06    -0.00  -0.05   0.08
     7   6     0.03  -0.01   0.01     0.03  -0.01  -0.01    -0.00   0.00  -0.06
     8   6     0.00  -0.04  -0.02    -0.01  -0.00   0.06     0.01   0.03  -0.11
     9   6    -0.05  -0.01  -0.01    -0.05  -0.00   0.01     0.01   0.05  -0.09
    10   6    -0.07   0.00  -0.00    -0.04   0.04  -0.04    -0.00   0.01  -0.03
    11   6    -0.08  -0.00   0.00    -0.04   0.01  -0.01     0.00  -0.02   0.04
    12   6    -0.09   0.02   0.01    -0.04   0.01  -0.00    -0.00  -0.04   0.07
    13   6    -0.08   0.04  -0.01    -0.04  -0.03   0.06    -0.04   0.02  -0.05
    14   6    -0.04   0.03   0.02    -0.09  -0.03  -0.03     0.00   0.01  -0.05
    15   6    -0.03  -0.02   0.01    -0.07   0.04  -0.05    -0.01  -0.01   0.03
    16   6    -0.06  -0.02  -0.02    -0.02   0.01   0.03    -0.01  -0.01   0.03
    17   6    -0.13  -0.03  -0.01     0.07  -0.01   0.02    -0.07  -0.03   0.03
    18   6    -0.03  -0.03  -0.05    -0.02  -0.01   0.09     0.01  -0.01  -0.01
    19   6    -0.01  -0.05  -0.08    -0.00  -0.01   0.10     0.01   0.01   0.10
    20   6    -0.04  -0.03   0.05     0.05  -0.00  -0.05     0.04  -0.03  -0.01
    21   6     0.04   0.01   0.06     0.03  -0.01  -0.06     0.02  -0.02  -0.04
    22   6     0.12   0.06   0.07     0.01  -0.07  -0.07     0.04  -0.01  -0.03
    23   8    -0.10  -0.02   0.01    -0.11  -0.04  -0.00     0.03   0.12  -0.01
    24   1     0.15   0.04  -0.01     0.19   0.24  -0.04    -0.03  -0.00   0.01
    25   1     0.15  -0.01   0.04     0.23  -0.01   0.16    -0.07   0.07  -0.01
    26   1     0.10  -0.01   0.01     0.02  -0.00  -0.06     0.02   0.06  -0.01
    27   1     0.11   0.01  -0.01     0.06   0.02  -0.02    -0.05  -0.02   0.03
    28   1     0.11   0.10  -0.07    -0.03   0.09   0.09    -0.10   0.16   0.04
    29   1     0.24   0.07  -0.07     0.10   0.03  -0.04     0.16   0.07  -0.09
    30   1     0.19  -0.01   0.00    -0.04  -0.09   0.01    -0.02  -0.13   0.03
    31   1     0.13  -0.04   0.03     0.02   0.09  -0.05    -0.03  -0.01  -0.00
    32   1     0.21   0.00  -0.20    -0.10   0.02   0.18     0.02  -0.02   0.05
    33   1    -0.05   0.14  -0.18     0.14  -0.12   0.15    -0.01  -0.06   0.03
    34   1     0.12   0.03   0.14    -0.00  -0.04  -0.15    -0.02   0.02   0.19
    35   1     0.01  -0.10   0.08     0.09   0.12  -0.09     0.02  -0.19   0.11
    36   1    -0.01  -0.01   0.01     0.09  -0.00  -0.00    -0.07   0.05  -0.06
    37   1     0.02  -0.05  -0.03    -0.04   0.04   0.06     0.02   0.09  -0.10
    38   1    -0.08   0.01  -0.00    -0.00   0.08  -0.04    -0.07   0.04  -0.02
    39   1    -0.05  -0.00  -0.01    -0.05   0.03  -0.09     0.04  -0.01  -0.02
    40   1    -0.08  -0.00   0.00    -0.05  -0.02  -0.01     0.04  -0.05   0.04
    41   1    -0.10   0.03   0.03    -0.03  -0.02  -0.05     0.01  -0.01   0.16
    42   1    -0.09  -0.00   0.01    -0.05   0.07   0.00    -0.00  -0.15   0.06
    43   1    -0.14   0.04  -0.01     0.06  -0.02   0.05    -0.13   0.08  -0.04
    44   1    -0.07   0.07  -0.06    -0.06  -0.06   0.14    -0.02   0.02  -0.14
    45   1    -0.03   0.08   0.03    -0.12  -0.11  -0.04     0.06  -0.00  -0.06
    46   1    -0.01   0.02   0.05    -0.10  -0.00  -0.07    -0.02   0.02  -0.08
    47   1    -0.03  -0.05   0.01    -0.06   0.13  -0.04    -0.06  -0.04   0.04
    48   1    -0.02  -0.02   0.03    -0.11   0.03  -0.12     0.02  -0.02   0.07
    49   1    -0.12  -0.04  -0.04     0.27  -0.11   0.00     0.15  -0.15  -0.03
    50   1    -0.14  -0.02   0.03     0.08   0.19   0.00    -0.09   0.20   0.12
    51   1    -0.17  -0.05  -0.03    -0.07  -0.13   0.04    -0.30  -0.18   0.02
    52   1    -0.02  -0.02  -0.05    -0.04  -0.02   0.09     0.03  -0.10  -0.02
    53   1     0.07  -0.12  -0.10    -0.08   0.03   0.11    -0.05   0.14   0.13
    54   1    -0.04  -0.01  -0.17     0.04  -0.03   0.16     0.04  -0.05   0.22
    55   1    -0.05  -0.01   0.12     0.01   0.00  -0.13     0.03  -0.02  -0.02
    56   1    -0.13  -0.06   0.05     0.17   0.04  -0.05     0.11  -0.04  -0.01
    57   1     0.19   0.10   0.08     0.03  -0.07  -0.04    -0.17  -0.11  -0.07
    58   1     0.14   0.02   0.01     0.00  -0.11  -0.07     0.04   0.22   0.01
    59   1     0.09   0.09   0.14    -0.01  -0.06  -0.12     0.23  -0.13  -0.03
                     13                     14                     15
                      A                      A                      A
 Frequencies --    233.7744               244.5862               247.8981
 Red. masses --      1.1594                 1.3589                 1.8887
 Frc consts  --      0.0373                 0.0479                 0.0684
 IR Inten    --      0.1323                 0.2634                 0.4343
  Atom  AN      X      Y      Z        X      Y      Z        X      Y      Z
     1   6     0.02  -0.03   0.00    -0.01  -0.01  -0.02    -0.05  -0.04   0.03
     2   6     0.00  -0.01  -0.01    -0.01   0.01  -0.02    -0.01  -0.01   0.05
     3   6    -0.01   0.02  -0.01    -0.04  -0.00   0.00     0.07   0.01  -0.00
     4   6    -0.01  -0.00  -0.01    -0.01   0.01   0.00    -0.01  -0.00   0.04
     5   6    -0.03  -0.01   0.01    -0.01   0.01  -0.02    -0.04   0.02  -0.05
     6   6    -0.04   0.00   0.02    -0.01   0.01  -0.01    -0.05   0.05  -0.06
     7   6    -0.02   0.02   0.00    -0.00   0.00   0.03    -0.01   0.04   0.03
     8   6    -0.01   0.00  -0.00     0.00   0.01   0.02    -0.01   0.02   0.05
     9   6     0.01  -0.00   0.00    -0.01   0.00  -0.02    -0.02  -0.01  -0.00
    10   6     0.01  -0.02   0.00     0.02   0.01  -0.07     0.00  -0.01  -0.07
    11   6     0.01  -0.01  -0.01     0.03  -0.02   0.02     0.01  -0.04   0.01
    12   6     0.01   0.00  -0.01     0.03  -0.03   0.05     0.01   0.00  -0.01
    13   6     0.02   0.01  -0.00     0.01   0.01  -0.03     0.03   0.02  -0.01
    14   6     0.03   0.01   0.01     0.02  -0.00  -0.04     0.04   0.01  -0.00
    15   6     0.03  -0.01   0.01     0.01  -0.01   0.03     0.03  -0.02   0.02
    16   6     0.01  -0.01  -0.01     0.01  -0.00   0.03     0.02  -0.03   0.04
    17   6     0.00  -0.02  -0.01    -0.01  -0.01   0.04     0.04  -0.09   0.03
    18   6    -0.00  -0.00  -0.01     0.02   0.02   0.01     0.00   0.00   0.05
    19   6    -0.01   0.00   0.00     0.02   0.00  -0.05    -0.02   0.01  -0.04
    20   6    -0.01   0.01   0.01    -0.01   0.01   0.02    -0.00   0.08  -0.07
    21   6    -0.01   0.01  -0.00    -0.01   0.00   0.03    -0.00   0.03   0.02
    22   6    -0.01   0.04  -0.00    -0.00  -0.00   0.03     0.02  -0.01   0.01
    23   8     0.02   0.00  -0.00    -0.04  -0.00   0.00    -0.05  -0.02   0.00
    24   1     0.08   0.37  -0.05     0.01   0.21  -0.04    -0.10  -0.31   0.07
    25   1     0.30  -0.26   0.23     0.13  -0.13   0.09    -0.20   0.08  -0.15
    26   1    -0.31  -0.22  -0.16    -0.18  -0.11  -0.11     0.13   0.06   0.15
    27   1     0.01  -0.01  -0.03     0.00   0.01  -0.03    -0.01  -0.01   0.06
    28   1    -0.21   0.30   0.13     0.08  -0.17  -0.06    -0.11   0.25   0.04
    29   1     0.29   0.11  -0.18    -0.22  -0.05   0.14     0.33   0.09  -0.19
    30   1    -0.11  -0.30   0.04    -0.02   0.20  -0.05     0.06  -0.26   0.08
    31   1    -0.01   0.01  -0.01     0.02  -0.00   0.00    -0.02  -0.04   0.03
    32   1    -0.04  -0.00   0.02     0.00   0.00  -0.03    -0.03  -0.04  -0.10
    33   1    -0.04  -0.04   0.01    -0.03   0.01  -0.03    -0.06   0.07  -0.07
    34   1    -0.05   0.02   0.03    -0.00  -0.00  -0.02    -0.05   0.02  -0.12
    35   1    -0.04  -0.01   0.02    -0.03   0.04  -0.01    -0.08   0.13  -0.07
    36   1    -0.02   0.03   0.00    -0.00  -0.01   0.02     0.02   0.01   0.03
    37   1    -0.00  -0.00  -0.00     0.01   0.02   0.02    -0.00   0.04   0.05
    38   1     0.01  -0.03   0.00     0.03   0.10  -0.06     0.03   0.06  -0.07
    39   1     0.01  -0.02   0.02     0.00  -0.01  -0.14    -0.00  -0.03  -0.14
    40   1    -0.00  -0.01  -0.01     0.07  -0.06   0.02     0.00  -0.09   0.00
    41   1    -0.01   0.01  -0.02     0.04  -0.01   0.13    -0.02   0.01  -0.02
    42   1     0.01   0.01  -0.01     0.03  -0.12   0.05     0.02   0.02  -0.01
    43   1     0.02  -0.00  -0.01    -0.05   0.06  -0.02     0.02   0.01  -0.01
    44   1     0.02   0.02  -0.00     0.02  -0.00  -0.09     0.03   0.03  -0.01
    45   1     0.03   0.03   0.02     0.07  -0.02  -0.05     0.06   0.01  -0.00
    46   1     0.04   0.00   0.03    -0.00   0.01  -0.08     0.05   0.01  -0.00
    47   1     0.03  -0.03   0.00    -0.04  -0.03   0.03     0.02  -0.02   0.02
    48   1     0.04  -0.02   0.01     0.03  -0.01   0.06     0.06  -0.03   0.01
    49   1    -0.07   0.02  -0.00     0.28  -0.16  -0.02     0.18  -0.17  -0.03
    50   1     0.00  -0.10  -0.02    -0.02   0.30   0.10     0.04   0.04   0.04
    51   1     0.07   0.03  -0.00    -0.29  -0.19   0.02    -0.08  -0.20   0.07
    52   1    -0.00  -0.01  -0.01     0.04   0.05   0.01     0.02   0.04   0.05
    53   1    -0.01   0.01   0.00     0.07  -0.07  -0.07    -0.05  -0.06  -0.06
    54   1    -0.02  -0.00   0.01     0.00   0.05  -0.13    -0.02   0.04  -0.08
    55   1    -0.02   0.01   0.02     0.01   0.00   0.04    -0.03   0.07  -0.18
    56   1    -0.02  -0.00   0.01    -0.05  -0.00   0.02     0.03   0.19  -0.05
    57   1     0.06   0.08   0.00     0.22   0.10   0.07    -0.06  -0.06   0.02
    58   1    -0.01  -0.03  -0.01    -0.00  -0.24  -0.03     0.03   0.08   0.01
    59   1    -0.08   0.08   0.02    -0.20   0.12   0.03     0.10  -0.07  -0.01
                     16                     17                     18
                      A                      A                      A
 Frequencies --    270.3292               275.7752               291.1275
 Red. masses --      2.0285                 2.6721                 2.2034
 Frc consts  --      0.0873                 0.1197                 0.1100
 IR Inten    --      0.4431                 0.2307                 0.3388
  Atom  AN      X      Y      Z        X      Y      Z        X      Y      Z
     1   6    -0.03   0.05  -0.03    -0.05   0.00  -0.03     0.11   0.10  -0.04
     2   6    -0.02  -0.01  -0.01    -0.05  -0.00  -0.02     0.01  -0.02  -0.07
     3   6    -0.02   0.03  -0.01    -0.06  -0.02  -0.02    -0.08  -0.03  -0.02
     4   6     0.00  -0.04   0.02    -0.03  -0.00  -0.01     0.01  -0.03  -0.05
     5   6    -0.04  -0.04  -0.02    -0.02  -0.01   0.01    -0.04  -0.07   0.05
     6   6    -0.06  -0.00   0.00    -0.02  -0.03   0.08    -0.06   0.00   0.01
     7   6    -0.01   0.02   0.00    -0.01   0.02  -0.05    -0.01   0.01   0.05
     8   6    -0.01   0.05   0.00    -0.02  -0.04  -0.01    -0.00   0.00   0.06
     9   6    -0.01   0.04  -0.03    -0.03  -0.05   0.03    -0.01  -0.01   0.03
    10   6    -0.02  -0.00  -0.01    -0.03  -0.01   0.05     0.02   0.02  -0.02
    11   6    -0.04  -0.02   0.01     0.01   0.02   0.01     0.04   0.01   0.01
    12   6    -0.03   0.04  -0.06     0.01  -0.00   0.02     0.05  -0.03   0.01
    13   6    -0.01   0.00   0.01     0.01  -0.03   0.03     0.01  -0.02  -0.05
    14   6     0.00   0.01   0.05    -0.02  -0.04  -0.05     0.02   0.01   0.05
    15   6     0.01  -0.01  -0.01    -0.02   0.00   0.01     0.03   0.01  -0.01
    16   6    -0.00  -0.03   0.03     0.02   0.01   0.02     0.01   0.01  -0.02
    17   6     0.04  -0.15   0.01     0.13   0.09   0.03    -0.08  -0.06  -0.03
    18   6    -0.00   0.00   0.05     0.01  -0.03   0.01     0.01   0.04  -0.02
    19   6     0.00   0.00   0.03     0.01  -0.04  -0.05     0.03   0.03  -0.04
    20   6     0.03   0.02  -0.03    -0.00   0.00  -0.03     0.01   0.01   0.04
    21   6     0.03  -0.00   0.01     0.01   0.02  -0.05    -0.00   0.00   0.02
    22   6     0.15  -0.01   0.02     0.16   0.19  -0.01    -0.02   0.06   0.03
    23   8     0.01   0.06  -0.02    -0.06  -0.08   0.02    -0.05  -0.06   0.00
    24   1    -0.01   0.25  -0.04    -0.04  -0.03  -0.03     0.17   0.02  -0.08
    25   1     0.06  -0.01   0.09    -0.07   0.03  -0.04     0.00   0.21   0.02
    26   1    -0.13  -0.01  -0.15    -0.02   0.02  -0.01     0.25   0.18  -0.01
    27   1    -0.05  -0.02  -0.00    -0.05  -0.01  -0.01    -0.03  -0.03  -0.06
    28   1     0.13  -0.19  -0.15    -0.08   0.02   0.03    -0.08  -0.01   0.08
    29   1    -0.25  -0.03   0.19    -0.02  -0.01  -0.06    -0.07  -0.03  -0.03
    30   1     0.05   0.33  -0.07    -0.08  -0.09  -0.01    -0.16  -0.08  -0.05
    31   1     0.03  -0.05   0.02    -0.04   0.01  -0.01     0.06   0.02  -0.04
    32   1    -0.04  -0.07  -0.04     0.03   0.02  -0.00    -0.14  -0.04   0.14
    33   1    -0.06  -0.04  -0.03    -0.06  -0.00  -0.01     0.03  -0.18   0.10
    34   1    -0.08   0.01   0.01    -0.03   0.04   0.20    -0.10  -0.03  -0.05
    35   1    -0.08  -0.01   0.01    -0.02  -0.17   0.11    -0.06   0.08  -0.01
    36   1    -0.01   0.03   0.00    -0.01   0.10  -0.05     0.02   0.02   0.06
    37   1     0.01   0.10   0.01    -0.05  -0.05  -0.01     0.03  -0.04   0.06
    38   1    -0.04  -0.01  -0.01    -0.04  -0.05   0.05     0.07   0.08  -0.02
    39   1     0.02  -0.02   0.00    -0.05   0.01   0.08    -0.01   0.02  -0.08
    40   1    -0.09  -0.05   0.01     0.00   0.04   0.01     0.06   0.01   0.01
    41   1    -0.08   0.02  -0.16     0.03  -0.02  -0.01     0.07  -0.02   0.05
    42   1     0.01   0.14  -0.06     0.01   0.02   0.01     0.06  -0.10   0.00
    43   1     0.01  -0.06   0.00     0.07   0.00   0.03    -0.10  -0.04  -0.05
    44   1    -0.01   0.03   0.04    -0.00  -0.05   0.09     0.03  -0.01  -0.16
    45   1    -0.03   0.04   0.07     0.01  -0.14  -0.09    -0.00   0.11   0.08
    46   1     0.03  -0.01   0.09    -0.05   0.01  -0.15     0.03  -0.05   0.14
    47   1     0.04   0.03  -0.01    -0.06   0.00   0.02     0.08   0.01  -0.01
    48   1     0.00  -0.02  -0.05    -0.03   0.01   0.03     0.01   0.01  -0.02
    49   1    -0.11  -0.09  -0.04     0.26   0.05   0.11    -0.12  -0.06  -0.11
    50   1     0.06  -0.35  -0.05     0.15   0.24  -0.03    -0.10  -0.10   0.04
    51   1     0.21  -0.10   0.10     0.07   0.06   0.02    -0.10  -0.07  -0.02
    52   1     0.00  -0.01   0.05     0.04  -0.01   0.02    -0.01   0.10  -0.01
    53   1    -0.03  -0.02   0.02     0.04  -0.12  -0.07     0.08   0.01  -0.05
    54   1     0.03   0.02   0.02    -0.01  -0.00  -0.13     0.02   0.05  -0.08
    55   1     0.01   0.02  -0.09    -0.02   0.01  -0.01     0.04  -0.00   0.09
    56   1     0.07   0.08  -0.02    -0.01  -0.01  -0.03    -0.05  -0.02   0.04
    57   1     0.15  -0.03   0.06     0.10   0.20  -0.08    -0.27  -0.04  -0.05
    58   1     0.19   0.05  -0.06     0.22   0.38  -0.08     0.00   0.38   0.08
    59   1     0.21  -0.03   0.08     0.29   0.15   0.18     0.23  -0.08   0.09
                     19                     20                     21
                      A                      A                      A
 Frequencies --    291.7451               304.0420               315.4322
 Red. masses --      1.2584                 2.6777                 2.3604
 Frc consts  --      0.0631                 0.1458                 0.1384
 IR Inten    --      0.0240                 1.2242                 0.3539
  Atom  AN      X      Y      Z        X      Y      Z        X      Y      Z
     1   6    -0.04  -0.01   0.01     0.12   0.08  -0.00     0.06   0.01  -0.01
     2   6    -0.00   0.01   0.03     0.02  -0.01  -0.04    -0.00   0.02  -0.05
     3   6     0.04   0.03   0.00     0.02   0.00  -0.03    -0.05  -0.04  -0.02
     4   6    -0.00   0.00   0.03     0.00  -0.02  -0.01    -0.01   0.03  -0.01
     5   6     0.00   0.01  -0.02    -0.08  -0.04   0.00     0.03   0.03   0.01
     6   6     0.01   0.02  -0.05    -0.10   0.02   0.00     0.05  -0.01  -0.01
     7   6    -0.00  -0.01   0.01    -0.05   0.03   0.03    -0.00  -0.04   0.02
     8   6    -0.00  -0.02   0.00    -0.04   0.02   0.02     0.01   0.03  -0.03
     9   6    -0.00  -0.02   0.02     0.03  -0.02   0.01    -0.00   0.06  -0.05
    10   6     0.00  -0.01   0.01     0.02  -0.09  -0.01    -0.03   0.00   0.00
    11   6     0.01   0.00  -0.01    -0.03  -0.06  -0.07    -0.03  -0.01   0.02
    12   6     0.01  -0.01   0.02    -0.04   0.01  -0.00    -0.04   0.04  -0.00
    13   6     0.01   0.00  -0.00     0.08   0.06   0.05    -0.03   0.01   0.04
    14   6     0.01  -0.00  -0.02     0.05   0.03  -0.10    -0.02  -0.02  -0.01
    15   6     0.00  -0.00  -0.00     0.01  -0.04   0.02    -0.02  -0.04   0.04
    16   6    -0.00   0.01  -0.02    -0.03  -0.03  -0.02     0.01  -0.02   0.04
    17   6    -0.02   0.06  -0.01    -0.04   0.11   0.01     0.15  -0.04   0.03
    18   6    -0.00  -0.01  -0.02    -0.06  -0.03   0.02     0.01   0.02  -0.00
    19   6    -0.01  -0.00  -0.01    -0.06  -0.03   0.02    -0.00  -0.01  -0.12
    20   6    -0.00   0.02  -0.02    -0.04   0.01   0.00    -0.07  -0.04   0.06
    21   6    -0.00  -0.00   0.03    -0.02   0.01   0.02    -0.04  -0.02   0.05
    22   6     0.00  -0.04   0.02     0.05  -0.05   0.03    -0.06  -0.05   0.05
    23   8    -0.01  -0.03   0.01     0.11   0.02   0.01     0.04   0.10  -0.03
    24   1    -0.03   0.26  -0.00     0.18  -0.02  -0.04     0.12   0.00  -0.05
    25   1     0.15  -0.17   0.13     0.00   0.20   0.05     0.08   0.00   0.03
    26   1    -0.26  -0.13  -0.12     0.27   0.16   0.04     0.06   0.01   0.03
    27   1     0.00   0.01   0.03    -0.00  -0.02  -0.03     0.02   0.03  -0.06
    28   1     0.10  -0.06  -0.09     0.05  -0.03  -0.07    -0.07   0.01   0.09
    29   1    -0.05   0.01   0.08    -0.01  -0.01   0.00    -0.01  -0.04  -0.12
    30   1     0.10   0.16  -0.00     0.04   0.06  -0.04    -0.10  -0.17  -0.01
    31   1     0.01  -0.02   0.03     0.05  -0.00  -0.00     0.04   0.05  -0.00
    32   1     0.00  -0.02  -0.04    -0.13  -0.06   0.02     0.02   0.06   0.04
    33   1     0.00   0.05  -0.02    -0.06  -0.08   0.02     0.05   0.04   0.03
    34   1     0.02  -0.02  -0.11    -0.12   0.01  -0.02     0.08  -0.03  -0.04
    35   1     0.01   0.07  -0.07    -0.13   0.06  -0.00     0.07   0.01  -0.02
    36   1     0.01  -0.05   0.01    -0.05   0.03   0.03    -0.03  -0.09   0.01
    37   1     0.00  -0.04   0.00    -0.04   0.03   0.02     0.05   0.07  -0.03
    38   1     0.01  -0.02   0.01     0.05  -0.15  -0.02    -0.09  -0.02   0.01
    39   1    -0.01   0.00   0.02     0.03  -0.08   0.03     0.02  -0.01   0.05
    40   1     0.02   0.02  -0.01    -0.02  -0.07  -0.07    -0.04  -0.03   0.02
    41   1     0.02  -0.00   0.05    -0.09   0.04   0.02    -0.06   0.02  -0.08
    42   1    -0.01  -0.04   0.02    -0.11   0.04   0.01    -0.01   0.12  -0.00
    43   1     0.02   0.02   0.00     0.27   0.12   0.05    -0.00   0.01   0.04
    44   1     0.01  -0.00   0.01     0.04   0.05   0.23    -0.04   0.01   0.06
    45   1     0.01  -0.02  -0.02     0.11  -0.10  -0.14     0.03  -0.09  -0.04
    46   1    -0.00   0.01  -0.03     0.03   0.10  -0.22    -0.02   0.03  -0.08
    47   1    -0.01  -0.02   0.00    -0.09  -0.13   0.04    -0.07  -0.08   0.05
    48   1     0.01   0.00   0.02     0.11  -0.06   0.12    -0.01  -0.02   0.10
    49   1     0.02   0.05   0.02     0.06   0.09   0.09     0.24  -0.07   0.06
    50   1    -0.03   0.12   0.02    -0.04   0.26   0.03     0.19   0.01  -0.09
    51   1    -0.07   0.05  -0.05    -0.14   0.11  -0.08     0.17  -0.08   0.11
    52   1    -0.01  -0.00  -0.02    -0.08  -0.03   0.02     0.09   0.05   0.00
    53   1    -0.03   0.02   0.00    -0.06  -0.04   0.02     0.12  -0.16  -0.16
    54   1    -0.02  -0.02   0.01    -0.05  -0.02   0.01    -0.04   0.08  -0.28
    55   1    -0.01   0.01  -0.08    -0.08   0.02  -0.03    -0.01  -0.04   0.19
    56   1     0.01   0.08  -0.02    -0.02   0.04   0.01    -0.22  -0.12   0.05
    57   1    -0.38  -0.25  -0.03     0.13  -0.05   0.10    -0.29  -0.18   0.04
    58   1     0.02   0.39   0.10     0.08  -0.12  -0.05    -0.05   0.18   0.08
    59   1     0.37  -0.28  -0.00     0.03  -0.04   0.02     0.15  -0.20   0.01
                     22                     23                     24
                      A                      A                      A
 Frequencies --    321.0470               334.5654               352.3912
 Red. masses --      2.6624                 2.3069                 2.9277
 Frc consts  --      0.1617                 0.1521                 0.2142
 IR Inten    --      0.0768                 0.1197                 0.0694
  Atom  AN      X      Y      Z        X      Y      Z        X      Y      Z
     1   6     0.06   0.05   0.04     0.01  -0.02  -0.03     0.08   0.01   0.05
     2   6     0.05  -0.02   0.05    -0.04   0.03  -0.06    -0.02   0.03  -0.01
     3   6     0.13   0.06   0.01    -0.09  -0.05  -0.04     0.05  -0.00  -0.07
     4   6     0.01  -0.03   0.00    -0.02   0.04   0.01    -0.06   0.04   0.02
     5   6    -0.07  -0.05   0.01     0.00   0.07  -0.02    -0.05   0.05  -0.01
     6   6    -0.09   0.00   0.01     0.01   0.05  -0.02    -0.04  -0.01  -0.00
     7   6    -0.05   0.02  -0.02    -0.01   0.01   0.03    -0.06  -0.02  -0.05
     8   6    -0.03   0.00  -0.06     0.00  -0.00  -0.00    -0.04  -0.02  -0.08
     9   6    -0.06   0.00  -0.03    -0.01  -0.00  -0.00    -0.03  -0.01  -0.05
    10   6    -0.07  -0.03   0.07    -0.02  -0.01   0.02    -0.01   0.03   0.04
    11   6     0.01   0.02   0.01     0.01   0.02  -0.02     0.07   0.03   0.09
    12   6     0.01  -0.04   0.06    -0.02  -0.05   0.09     0.14  -0.03  -0.05
    13   6    -0.04  -0.03  -0.02    -0.07   0.01  -0.03     0.10  -0.08  -0.06
    14   6     0.04  -0.05   0.04     0.02   0.00   0.07     0.03  -0.02  -0.00
    15   6     0.04  -0.07   0.03     0.03  -0.03  -0.02     0.04   0.12  -0.04
    16   6     0.04  -0.00  -0.05     0.01   0.00  -0.08     0.02   0.03   0.08
    17   6     0.15   0.01  -0.06     0.07   0.05  -0.08    -0.02   0.01   0.09
    18   6     0.02   0.01  -0.06    -0.01  -0.02  -0.02    -0.01  -0.03   0.02
    19   6     0.02   0.03  -0.01    -0.03   0.01   0.08    -0.06  -0.03   0.02
    20   6     0.02   0.03  -0.01    -0.00   0.03   0.01    -0.09  -0.03   0.03
    21   6    -0.01   0.01  -0.01    -0.01   0.01   0.04    -0.06  -0.00   0.00
    22   6    -0.10   0.02  -0.02     0.14  -0.11   0.04     0.04  -0.08   0.01
    23   8    -0.06   0.01  -0.02    -0.01  -0.00   0.00    -0.05   0.01   0.00
    24   1     0.07   0.06   0.04     0.05  -0.08  -0.06     0.19  -0.02  -0.02
    25   1     0.03   0.09   0.08    -0.01  -0.01  -0.03     0.08   0.02   0.13
    26   1     0.10   0.07   0.01     0.03   0.00   0.05     0.09   0.03   0.14
    27   1     0.02  -0.03   0.06    -0.00   0.04  -0.07     0.01   0.04  -0.02
    28   1     0.17  -0.03  -0.18    -0.11   0.00   0.11     0.07  -0.04  -0.15
    29   1     0.06   0.06   0.14    -0.05  -0.06  -0.16     0.03  -0.02  -0.13
    30   1     0.24   0.26   0.01    -0.15  -0.22  -0.02     0.16  -0.00  -0.01
    31   1    -0.01  -0.02   0.00     0.03   0.03   0.02    -0.04   0.06   0.02
    32   1    -0.10  -0.06   0.01     0.02   0.05  -0.04    -0.01   0.05  -0.04
    33   1    -0.07  -0.07   0.01    -0.00   0.10  -0.03    -0.07   0.10  -0.02
    34   1    -0.13   0.02   0.02     0.04   0.02  -0.06    -0.01   0.02   0.05
    35   1    -0.10  -0.01   0.01    -0.00   0.10  -0.03    -0.02  -0.07   0.01
    36   1    -0.09   0.04  -0.02    -0.02  -0.02   0.03    -0.11  -0.04  -0.06
    37   1    -0.02  -0.03  -0.06     0.03  -0.01  -0.01    -0.06   0.02  -0.07
    38   1    -0.19  -0.13   0.07    -0.04  -0.05   0.02    -0.11   0.07   0.04
    39   1    -0.05   0.01   0.21    -0.01   0.01   0.07    -0.04   0.05   0.06
    40   1     0.06   0.09   0.01     0.07   0.08  -0.02     0.03   0.01   0.09
    41   1     0.07  -0.04   0.13     0.05  -0.02   0.25     0.12  -0.05  -0.13
    42   1    -0.01  -0.13   0.06    -0.08  -0.21   0.09     0.25   0.00  -0.07
    43   1    -0.19  -0.02  -0.01    -0.26   0.02  -0.02     0.09  -0.11  -0.06
    44   1    -0.01   0.01  -0.16    -0.03   0.04  -0.21     0.10  -0.10  -0.07
    45   1     0.06  -0.01   0.04    -0.01   0.12   0.11    -0.01  -0.00   0.01
    46   1     0.06  -0.06   0.06     0.07  -0.04   0.17    -0.04  -0.08   0.03
    47   1     0.05  -0.18   0.02     0.09  -0.09  -0.03     0.12   0.35  -0.04
    48   1     0.02  -0.03   0.13     0.00  -0.01   0.01    -0.04   0.08  -0.27
    49   1     0.18   0.01  -0.01     0.08   0.05  -0.03    -0.09   0.05   0.08
    50   1     0.18   0.02  -0.16     0.08   0.06  -0.12    -0.02  -0.05   0.11
    51   1     0.20   0.01  -0.01     0.09   0.06  -0.08     0.02   0.06   0.06
    52   1     0.04  -0.01  -0.06    -0.07  -0.06  -0.03     0.05  -0.08   0.01
    53   1     0.02   0.10   0.01    -0.06   0.09   0.10    -0.06  -0.04   0.01
    54   1     0.01  -0.00   0.03    -0.03  -0.05   0.16    -0.09  -0.04   0.02
    55   1     0.03   0.02  -0.02    -0.03   0.03  -0.05    -0.08  -0.02   0.11
    56   1     0.03   0.04  -0.01     0.06   0.07   0.01    -0.12  -0.10   0.02
    57   1    -0.06   0.06  -0.05     0.23  -0.14   0.19     0.08  -0.12   0.12
    58   1    -0.14  -0.07   0.04     0.19  -0.19  -0.09     0.09  -0.11  -0.09
    59   1    -0.19   0.07  -0.06     0.14  -0.11   0.03     0.08  -0.10  -0.01
                     25                     26                     27
                      A                      A                      A
 Frequencies --    358.4393               389.8246               410.6839
 Red. masses --      2.4885                 2.2090                 2.3245
 Frc consts  --      0.1884                 0.1978                 0.2310
 IR Inten    --      1.2788                 0.2673                 0.0336
  Atom  AN      X      Y      Z        X      Y      Z        X      Y      Z
     1   6     0.00   0.01   0.03     0.03   0.01  -0.05    -0.05  -0.01  -0.09
     2   6     0.00  -0.01   0.03     0.03  -0.04  -0.03     0.09  -0.01   0.01
     3   6     0.05   0.02  -0.00    -0.05  -0.01   0.02    -0.01   0.01   0.11
     4   6    -0.01  -0.02  -0.01     0.04  -0.04   0.02     0.05   0.02  -0.03
     5   6    -0.02  -0.03   0.00     0.03  -0.04   0.00    -0.01   0.01  -0.00
     6   6    -0.02  -0.03   0.01     0.03  -0.01   0.00    -0.04   0.07   0.01
     7   6     0.00  -0.01  -0.01     0.01  -0.03   0.05     0.01   0.08   0.00
     8   6    -0.00  -0.01   0.04     0.03  -0.03  -0.06    -0.01   0.04   0.01
     9   6     0.07  -0.02   0.02     0.01  -0.00  -0.07    -0.02   0.02  -0.02
    10   6     0.08   0.01  -0.09    -0.03  -0.01   0.02    -0.04  -0.03   0.02
    11   6     0.01  -0.02  -0.01    -0.02  -0.01   0.03    -0.05  -0.04   0.01
    12   6    -0.02  -0.02   0.08    -0.01  -0.02  -0.00    -0.05  -0.07  -0.01
    13   6    -0.07   0.05  -0.04    -0.01  -0.01  -0.01     0.02  -0.03  -0.03
    14   6    -0.05   0.08   0.09    -0.00  -0.01   0.00     0.07  -0.03   0.01
    15   6    -0.02   0.07  -0.07     0.02   0.05  -0.06     0.07   0.02  -0.06
    16   6    -0.03  -0.01   0.01     0.00  -0.02   0.03    -0.00  -0.03   0.02
    17   6     0.10   0.03   0.00     0.00   0.06   0.05    -0.01   0.05   0.04
    18   6    -0.05  -0.04   0.06     0.02  -0.07  -0.01    -0.01  -0.02   0.04
    19   6    -0.07  -0.08  -0.03    -0.04  -0.05  -0.02     0.04  -0.06  -0.02
    20   6    -0.08  -0.06  -0.02     0.02   0.11  -0.09     0.01  -0.04   0.08
    21   6    -0.01  -0.01  -0.04     0.00  -0.01   0.09     0.05   0.05  -0.03
    22   6    -0.02   0.04  -0.04    -0.07   0.05   0.11     0.01  -0.04  -0.06
    23   8     0.11   0.00   0.02     0.01   0.05   0.00    -0.04   0.02  -0.02
    24   1     0.01   0.03   0.02    -0.00   0.03  -0.04    -0.23  -0.01   0.03
    25   1     0.01   0.01   0.05    -0.01   0.05  -0.04    -0.08   0.00  -0.24
    26   1     0.00   0.01   0.01     0.07   0.03  -0.11    -0.04  -0.01  -0.20
    27   1    -0.01  -0.02   0.04     0.00  -0.05  -0.04     0.10  -0.00   0.02
    28   1     0.06  -0.00  -0.10    -0.06   0.02   0.10    -0.03   0.06   0.23
    29   1     0.04   0.03   0.05    -0.03   0.00   0.07     0.02   0.04   0.19
    30   1     0.12   0.10   0.01    -0.14  -0.02  -0.03    -0.16   0.00   0.03
    31   1    -0.04  -0.01  -0.01     0.09  -0.06   0.03     0.03   0.03  -0.03
    32   1    -0.03  -0.02   0.01     0.02  -0.05  -0.00    -0.05   0.00   0.01
    33   1    -0.02  -0.04   0.00     0.03  -0.04   0.00    -0.01  -0.05   0.00
    34   1    -0.03  -0.01   0.04     0.03  -0.04  -0.05    -0.07   0.08   0.00
    35   1    -0.02  -0.06   0.01     0.01   0.06  -0.01    -0.06   0.08   0.01
    36   1     0.04   0.02  -0.01    -0.06  -0.08   0.04     0.02   0.11   0.00
    37   1    -0.03   0.02   0.04     0.09   0.01  -0.06    -0.02   0.08   0.02
    38   1     0.20   0.16  -0.09    -0.11  -0.02   0.02    -0.11  -0.08   0.03
    39   1     0.04  -0.03  -0.26     0.01  -0.01   0.07     0.02  -0.04   0.09
    40   1     0.06  -0.05  -0.01    -0.03  -0.01   0.04    -0.08  -0.03   0.01
    41   1    -0.01   0.02   0.20    -0.02  -0.02  -0.02    -0.05  -0.05   0.06
    42   1    -0.06  -0.15   0.07     0.02  -0.01  -0.01    -0.07  -0.12  -0.01
    43   1    -0.25   0.05  -0.02    -0.04  -0.03  -0.01    -0.00  -0.05  -0.03
    44   1    -0.03   0.05  -0.20    -0.01   0.01  -0.04     0.02   0.06  -0.03
    45   1    -0.14   0.25   0.15    -0.04   0.00   0.02     0.04  -0.00   0.02
    46   1     0.02  -0.00   0.25     0.00  -0.02   0.02     0.07  -0.05   0.03
    47   1     0.09   0.21  -0.07     0.09   0.23  -0.05     0.16   0.20  -0.06
    48   1    -0.05   0.03  -0.23    -0.04   0.02  -0.24     0.03  -0.02  -0.25
    49   1     0.14   0.02   0.07    -0.01   0.09   0.13    -0.03   0.09   0.12
    50   1     0.12   0.08  -0.07    -0.00   0.09   0.06    -0.02   0.07   0.06
    51   1     0.12   0.04   0.01     0.00   0.11  -0.02    -0.01   0.11  -0.04
    52   1    -0.06  -0.02   0.06     0.05  -0.12  -0.01    -0.01  -0.00   0.04
    53   1    -0.06  -0.19  -0.06    -0.11  -0.06  -0.02     0.14  -0.19  -0.06
    54   1    -0.06  -0.02  -0.12    -0.07  -0.07  -0.01     0.02   0.03  -0.16
    55   1    -0.11  -0.03   0.02    -0.05   0.07  -0.43    -0.01   0.02   0.27
    56   1    -0.10  -0.09  -0.03     0.13   0.44  -0.06    -0.06  -0.21   0.06
    57   1    -0.05   0.04  -0.08    -0.02   0.13   0.02    -0.08  -0.13   0.01
    58   1    -0.01   0.10  -0.03    -0.10   0.00   0.17     0.00  -0.03  -0.03
    59   1     0.02   0.03  -0.00    -0.16   0.12   0.15     0.07  -0.11  -0.17
                     28                     29                     30
                      A                      A                      A
 Frequencies --    422.8691               429.4269               447.9602
 Red. masses --      3.3636                 3.2327                 3.0146
 Frc consts  --      0.3544                 0.3512                 0.3564
 IR Inten    --      0.0881                 0.9186                 0.2211
  Atom  AN      X      Y      Z        X      Y      Z        X      Y      Z
     1   6     0.01  -0.01   0.09    -0.01   0.01  -0.07    -0.00  -0.00   0.09
     2   6    -0.08   0.03   0.01     0.07  -0.06   0.01    -0.09   0.05  -0.00
[...]
 00006335,0.00000126,-0.00003070,0.00001822,0.00000733,0.00001088,0.000
 01717,-0.00001948,0.00000549,-0.00003469,0.00026176,-0.00023288,0.0001
 8930,0.00012456,-0.00001749,0.00009196,-0.00090693,0.00032115,0.000031
 01,0.00000432,0.00010666,-0.00006624,-0.00093608,-0.00064887,-0.000198
 88,0.00009654,0.00022649,0.00008833,-0.00004433,-0.00001104,0.00002762
 ,-0.00001063,0.00000470,0.00000178,0.00000381,0.00000696,-0.00000163,0
 .00000399,0.00000264,-0.00000400,0.00000291,0.00000705,0.00000131,-0.0
 0000386,-0.00000162,0.00000054,0.00000223,-0.00000095,0.00000058,-0.00
 000209,0.00000713,0.00000214,0.00000101,0.00000040,-0.00000193,-0.0000
 0324,0.00000473,0.00000565,0.00000333,0.00000160,0.00000197,0.00000752
 ,0.00000038,-0.00000582,0.00005012,-0.00000907,-0.00001766,0.00000299,
 0.00002811,0.00000749,0.00000346,-0.00002478,0.00001973,0.00006660,0.0
 0010311,-0.00001260,0.00047633,-0.00017163,0.00019119,0.00018408,-0.00
 003673,0.00016125,-0.00002806,0.00019806,-0.00006954,0.00052342,-0.000
 08582,-0.00131977,0.12789419,0.00033059,-0.00036775,0.00034348,-0.0002
 5606,-0.00003407,0.00054428,0.00011365,-0.00005002,-0.00020349,-0.0000
 1358,0.00032760,0.00063537,0.00002044,0.00048494,0.00023904,-0.0005594
 4,0.00020113,-0.00064897,0.00050141,0.00004526,-0.00034281,-0.00012124
 ,-0.00011170,-0.00001637,0.00006611,-0.00008279,0.00000225,-0.00002474
 ,0.00001106,-0.00001085,0.00003522,0.00000091,-0.00003305,-0.00001343,
 -0.00001233,0.00001175,0.00000403,0.00000460,-0.00000354,-0.00000675,0
 .00000158,0.00000793,0.00000330,0.00001240,-0.00000643,-0.00002367,0.0
 0000588,0.00004930,0.00004846,-0.00000028,-0.00002026,0.00012478,0.000
 23247,0.00003739,0.00042641,0.00012388,0.00002805,-0.00045919,0.000063
 03,-0.00004832,0.00239241,-0.00152647,-0.00277388,0.00814520,-0.049698
 47,-0.01411589,-0.00009448,0.00004722,0.00001745,-0.00010724,-0.001116
 99,-0.00008329,-0.00012482,0.00016983,-0.00012836,-0.00007042,0.000035
 84,-0.00006477,0.00014854,0.00002203,-0.00013796,-0.00000133,-0.000014
 75,0.00001593,0.00003188,-0.00000550,0.00002268,-0.00005259,0.00001988
 ,-0.00005802,-0.00001810,-0.00006701,-0.00010381,-0.00003143,-0.000189
 75,0.00000024,0.00036956,-0.00002551,-0.00016822,0.00014899,-0.0001422
 0,0.00017578,-0.00075437,-0.00062779,0.00041001,-0.00002684,0.00005601
 ,0.00016362,0.00018391,-0.00003636,-0.00003865,0.00001166,-0.00000113,
 -0.00000144,-0.00000390,0.00000135,0.00000638,-0.00000391,-0.00000460,
 0.00000563,-0.00000142,-0.00000804,-0.00000224,0.00000121,0.00000311,-
 0.00000111,-0.00000091,-0.00000029,0.00000048,-0.00000334,-0.00000298,
 0.00000296,-0.00000083,-0.00000113,0.00000002,-0.00000198,-0.00000100,
 -0.00000044,0.00000156,0.00000206,-0.00000073,-0.00002063,-0.00000306,
 0.00000946,-0.00006305,0.00000329,0.00002150,-0.00001011,-0.00002688,-
 0.00000691,0.00001129,0.00002446,-0.00000904,-0.00007183,-0.00005204,0
 .00003288,-0.00045829,-0.00002996,-0.00015445,-0.00019778,0.00000399,-
 0.00016057,0.00029230,0.00022645,-0.00029840,0.00015667,0.00037057,-0.
 00010442,-0.00897761,0.05007040,-0.00063365,-0.00020384,-0.00037342,-0
 .00003848,0.00008448,-0.00040696,-0.00002069,0.00011117,0.00010913,0.0
 0112138,-0.00022878,0.00004291,-0.00014809,0.00017180,-0.00025020,0.00
 031214,0.00000118,-0.00039236,0.00087055,0.00051815,-0.00012203,-0.000
 25568,-0.00021869,0.00004840,0.00029584,0.00002082,-0.00001286,-0.0000
 4652,-0.00001449,-0.00002282,0.00007450,-0.00001830,-0.00002523,-0.000
 03088,-0.00001285,0.00000894,0.00001236,0.00000265,0.00000159,-0.00002
 165,0.00000952,0.00000903,0.00001758,0.00000870,-0.00000047,-0.0001131
 6,-0.00001376,0.00006417,0.00003913,-0.00001942,-0.00003507,0.00018004
 ,0.00016617,-0.00008370,-0.00044378,0.00054217,0.00022231,-0.00528546,
 -0.00053157,-0.00292557,0.01408980,-0.00096847,-0.02079371,0.11486692,
 -0.01337730,-0.24602964,-0.00024399,0.00003596,0.00006327,0.00051770,-
 0.00003373,0.00050451,0.00018847,-0.00020600,0.00020975,0.00004441,0.0
 0001501,0.00007371,-0.00012996,-0.00016470,0.00010573,-0.00002075,0.00
 003088,-0.00002576,-0.00004315,0.00002681,-0.00000851,0.00005772,-0.00
 001398,0.00007902,0.00009269,-0.00007245,0.00021203,0.00008327,0.00005
 353,0.00039512,-0.00019280,0.00031073,0.00064594,0.00012732,-0.0000570
 4,0.00047971,0.00025562,-0.00023150,0.00094419,-0.00008152,0.00000323,
 0.00008479,0.00008513,-0.00009330,-0.00006262,0.00000742,0.00000598,0.
 00000095,-0.00000472,-0.00001674,0.00000562,0.00000221,0.00000336,0.00
 000696,-0.00000227,-0.00002053,-0.00000206,0.00000600,0.00000130,0.000
 00142,-0.00000273,0.00000248,-0.00000010,-0.00000096,-0.00001326,0.000
 00084,0.00000425,-0.00000769,0.00000415,0.00000201,-0.00000484,-0.0000
 0574,0.00000625,0.00000922,0.00001006,-0.00004085,-0.00000777,0.000008
 62,-0.00003785,0.00000052,-0.00000342,0.00000597,-0.00002157,0.0000139
 0,-0.00000583,0.00000141,0.00001535,-0.00000910,0.00000332,0.00003637,
 0.00008153,-0.00001159,0.00011806,0.00009804,-0.00008593,0.00003570,-0
 .00006148,0.00002897,0.00036207,0.00081369,-0.00033938,-0.00172787,-0.
 12659926,0.01523147,0.26778273,0.00030067,0.00001887,-0.00006577,-0.00
 012955,-0.00044140,0.00008343,0.00016041,0.00014964,-0.00001091,-0.000
 95883,-0.00222336,-0.00442817,0.00050110,0.00022288,-0.00015082,-0.000
 13184,0.00010393,-0.00000115,0.00045334,0.00141057,0.00036022,-0.00030
 510,0.00060014,-0.00090014,-0.00036726,-0.00089395,0.00052699,-0.00004
 933,0.00004971,-0.00007357,0.00001770,-0.00000695,-0.00005526,0.000005
 07,-0.00001870,0.00001065,-0.00000803,0.00000565,-0.00001626,-0.000000
 84,-0.00001610,0.00001537,0.00000808,0.00003363,-0.00002203,-0.0000027
 5,-0.00010754,0.00002565,0.00006945,0.00005114,-0.00012075,0.00020371,
 -0.00018336,-0.00016485,-0.00049572,0.00030558,0.00059698,-0.00023581,
 0.00015064,0.00068739,-0.01409328,0.01527656,-0.00018522,-0.15797537,0
 .12960373,-0.01172435,0.00060150,0.00024763,-0.00015419,-0.00012437,0.
 00001832,0.00012277,-0.00001755,0.00007102,0.00001172,0.00005714,-0.00
 006523,0.00002346,0.00010639,0.00015270,-0.00014446,-0.00001799,0.0001
 0815,-0.00000704,0.00002410,-0.00005679,0.00001967,0.00000529,-0.00002
 892,0.00005253,-0.00137352,0.00093480,-0.00014829,-0.00005125,-0.00010
 355,-0.00001077,0.00007309,-0.00018509,-0.00003713,-0.00004325,-0.0000
 4718,0.00003332,-0.00004690,-0.00002340,0.00013424,0.00015585,-0.00006
 828,-0.00000938,0.00028083,-0.00116634,0.00051683,0.00001123,-0.000001
 87,0.00001992,0.00000861,0.00002438,0.00001095,0.00000214,-0.00000550,
 0.00001326,0.00000327,0.00000919,0.00000124,-0.00000173,-0.00000251,0.
 00000276,0.00000439,-0.00000349,0.00000508,-0.00000885,0.00001178,0.00
 000821,0.00000356,0.00000226,-0.00000595,-0.00000998,0.00001117,0.0000
 1630,0.00000128,0.00000125,0.00000669,-0.00000603,-0.00000955,-0.00000
 096,-0.00001220,-0.00000558,0.00003805,-0.00004223,0.00001884,0.000035
 12,0.00003176,-0.00005175,0.00008095,-0.00005119,0.00006471,0.00017645
 ,0.00055135,0.00029149,0.00144502,0.00024754,-0.00010673,0.00027201,0.
 00006586,-0.00005575,-0.00005193,-0.00001960,-0.00005645,-0.00006406,-
 0.01103595,0.01325248,-0.00131365,0.17072229,-0.00017464,0.00013908,-0
 .00051227,-0.00016372,0.00014112,-0.00023067,0.00002539,0.00010118,-0.
 00000620,-0.00091365,0.00033342,-0.00039254,-0.00008164,0.00000705,0.0
 0003203,0.00001671,0.00006247,0.00003799,0.00003855,-0.00005096,0.0006
 4393,-0.00077279,-0.00135844,-0.00015062,0.00000647,0.00024774,-0.0000
 4275,0.00002880,0.00004626,-0.00000510,0.00001827,0.00000235,-0.000021
 20,-0.00000442,-0.00000514,0.00000822,0.00000675,0.00000148,-0.0000005
 6,-0.00001132,-0.00000077,0.00001572,0.00001982,0.00003799,-0.00000742
 ,-0.00003314,-0.00001305,0.00003015,0.00002833,0.00006991,-0.00007044,
 -0.00002871,0.00011588,-0.00029937,0.00139247,-0.00015808,-0.00064775,
 0.00077833,-0.00011211,0.00012776,-0.00317606,0.00433445,0.00070029,0.
 12964987,-0.20161317,0.01496069,-0.00016575,-0.00003847,0.00004740,0.0
 0030492,-0.00020195,0.00052639,0.00009657,-0.00012977,0.00007611,0.000
 19079,-0.00016041,0.00007601,-0.00002567,0.00015760,-0.00018258,-0.000
 00478,-0.00000828,-0.00000911,0.00003511,-0.00003670,0.00002226,0.0000
 4230,-0.00000186,0.00007235,-0.00006254,0.00005468,-0.00017090,0.00004
 290,0.00002183,-0.00004027,-0.00006216,-0.00002859,0.00001359,0.000018
 71,-0.00000624,0.00000349,0.00000756,0.00001821,0.00001177,0.00023521,
 0.00018262,-0.00002536,-0.00121958,-0.00160498,-0.00076309,-0.00000596
 ,0.00000571,-0.00000467,-0.00001282,0.00001519,-0.00000169,-0.00000450
 ,-0.00000126,0.00000063,-0.00000331,-0.00000800,-0.00000033,-0.0000006
 4,0.00000398,-0.00000201,-0.00000410,0.00000013,-0.00000238,-0.0000019
 5,-0.00000518,0.00000218,-0.00000263,0.00000082,-0.00000200,0.,0.00000
 044,-0.00000121,-0.00000677,0.00000167,-0.00000128,-0.00002422,-0.0000
 0670,0.00001713,-0.00002496,-0.00000565,-0.00000779,-0.00001254,-0.000
 00958,0.00003194,0.00000635,-0.00005713,0.00003412,-0.00009359,-0.0000
 9374,-0.00000782,-0.00051457,0.00013372,-0.00143137,-0.00036404,-0.000
 01140,-0.00027936,0.00007866,-0.00006069,-0.00001646,-0.00014896,0.000
 04111,0.00015477,-0.00009465,-0.00098734,-0.00038419,-0.14343353,0.221
 75104,-0.00029962,-0.00014522,-0.00038397,-0.00000865,-0.00054723,-0.0
 0021332,0.00006772,0.00011686,0.00009413,-0.00180951,-0.00173977,-0.00
 467630,0.00024852,-0.00006397,-0.00044034,0.00003491,-0.00011603,0.000
 03724,0.00068612,0.00055064,0.00100068,-0.00005385,-0.00028715,0.00017
 757,-0.00012560,-0.00024677,0.00006646,-0.00000392,-0.00000395,0.00001
 622,-0.00006681,0.00001495,0.00001948,0.00003221,0.00000918,-0.0000087
 1,-0.00001561,-0.00000196,-0.00000600,0.00001956,-0.00001335,-0.000001
 22,-0.00003161,0.00000593,-0.00001245,0.00009585,-0.00008392,-0.000077
 36,-0.00012736,0.00001320,0.00003292,-0.00009197,-0.00037840,0.0000261
 6,-0.00040023,-0.00046663,-0.00154489,0.00002091,0.00064127,0.00091300
 ,-0.01598607,0.02121007,-0.00000558,-0.01143187,0.01421020,-0.05022219
 ,0.00025325,0.00008428,-0.00002856,0.00031945,0.00002557,0.00029982,0.
 00014614,-0.00011047,0.00016271,0.00002327,-0.00001527,0.00004193,0.00
 011180,-0.00002281,0.00009937,-0.00001548,0.00009934,-0.00001643,-0.00
 000891,-0.00001582,-0.00002057,0.00001636,-0.00002520,0.00007410,-0.00
 156369,0.00087137,-0.00011579,-0.00001777,-0.00001430,0.00026247,-0.00
 014160,0.00011915,0.00032498,-0.00001055,0.00000858,0.00004627,0.00000
 744,-0.00009490,-0.00000068,0.00012758,0.00014661,-0.00011523,-0.00020
 883,-0.00039520,0.00030355,-0.00001527,0.00000479,0.00000231,0.0000132
 1,0.00000437,-0.00001028,0.00000220,0.00000230,-0.00000729,0.00000346,
 0.00002221,0.00000374,-0.00000704,-0.00000289,0.00000086,0.00000430,-0
 .00000241,0.00000139,-0.00000054,0.00001561,0.00000126,-0.00000103,0.0
 0000590,-0.00000459,-0.00000518,0.00000943,0.00001092,-0.00000178,-0.0
 0000399,-0.00000571,0.00003820,0.00000237,-0.00001351,0.00011674,-0.00
 002713,-0.00001006,0.00000597,0.00006202,0.,0.00002397,-0.00003151,0.0
 0002565,0.00007781,0.00017851,0.00001451,0.00125465,-0.00078387,-0.001
 65317,0.00026451,0.00001918,0.00028808,0.00003972,0.00001376,-0.000167
 71,0.00002169,-0.00017741,0.00020397,0.01777414,-0.02327867,0.00308667
 ,0.01336742,-0.01301138,0.05318722,-0.00024379,0.00069331,-0.00045069,
 -0.00076791,-0.00014578,-0.00005027,0.00018237,0.00027283,-0.00006579,
 0.00060588,-0.00118697,0.00055956,-0.00004780,-0.00005086,0.00008652,0
 .00045830,-0.00012038,-0.00011886,-0.00148725,0.00158957,-0.00385972,-
 0.00018182,0.00081410,-0.00020139,-0.00011156,-0.00013434,0.00017921,-
 0.00002686,-0.00005218,-0.00003678,-0.00000923,-0.00000861,0.00002610,
 0.00000253,0.00001299,-0.00001226,0.00000413,-0.00000543,0.00000706,-0
 .00000366,0.00000593,-0.00001033,0.00002097,-0.00002228,0.00001811,0.0
 0000665,0.00003617,-0.00005206,0.00002039,0.00000033,-0.00003430,-0.00
 010991,-0.00006698,-0.00002041,0.00005412,-0.00003349,-0.00008051,0.00
 054805,0.00031995,0.00138526,-0.01229757,-0.01800973,0.00232680,-0.121
 62259,-0.11635166,0.01643969,0.00022002,-0.00009963,-0.00001573,-0.000
 27460,0.00037269,0.00101025,0.00009288,-0.00009692,0.00011122,0.000328
 53,-0.00029894,0.00008673,0.00016518,0.00045988,-0.00058009,-0.0000193
 1,0.00003119,-0.00002624,0.00012429,-0.00010973,0.00005326,0.00006694,
 -0.00002185,0.00012827,0.00018418,0.00012454,-0.00000799,-0.00007094,0
 .00000579,-0.00007740,-0.00003583,-0.00006396,0.00000845,-0.00008416,0
 .00008232,-0.00005532,-0.00004509,0.00021342,-0.00013669,-0.00083946,-
 0.00113961,-0.00012469,0.00013532,-0.00019103,0.00030883,0.00000417,-0
 .00000237,0.00000755,0.00001064,-0.00002400,-0.00000248,0.00000266,0.0
 0000439,0.00000405,-0.00000085,-0.00000097,0.00000123,0.00000454,-0.00
 000355,0.00000179,-0.00000133,0.00000197,-0.00000051,0.00000483,-0.000
 00572,-0.00000462,0.00000275,-0.00000208,0.00000288,0.00000610,-0.0000
 0495,-0.00000607,-0.00000361,0.00000072,0.00000701,0.00000264,0.000001
 96,-0.00000232,0.00001605,0.00000236,-0.00001085,0.00000595,0.00000212
 ,0.00001986,-0.00001301,-0.00002866,0.00001469,-0.00000104,-0.00001267
 ,0.00005666,-0.00004534,-0.00002387,-0.00005702,0.00002113,-0.00002883
 ,0.00000498,0.00065136,0.00026803,-0.00046211,0.00002930,0.00034222,0.
 00014499,-0.00914416,-0.01424675,0.00146898,0.01293928,0.01858548,-0.0
 0276871,0.13056655,0.00058933,-0.00034395,-0.00059324,0.00006243,0.000
 00111,-0.00001793,0.00008845,0.00009215,0.00000434,0.00026631,-0.00005
 049,-0.00027788,0.00004670,-0.00000128,-0.00008686,0.00023423,-0.00002
 867,-0.00003452,0.00031620,0.00102532,-0.00087474,-0.00011612,-0.00008
 793,0.00032027,0.00013636,0.00049730,-0.00020825,0.00001302,-0.0000755
 6,0.00001706,-0.00003197,0.00000786,0.00005772,0.00000457,0.00002461,-
 0.00001862,0.00000241,-0.00000840,0.00001491,0.00000522,0.00001314,-0.
 00002184,-0.00001419,-0.00005277,0.00002258,0.00004883,0.00007922,-0.0
 0004496,-0.00004789,-0.00006713,0.00008514,-0.00015823,0.00004376,0.00
 027384,0.00021162,-0.00006912,-0.00020429,-0.00030366,0.00007604,0.000
 70452,-0.00210864,-0.00304124,-0.00020680,-0.11739809,-0.23344898,0.02
 521263,-0.00018397,-0.00025351,0.00008724,0.00095785,-0.00085433,0.000
 00148,0.00006940,-0.00010488,0.00006081,0.00013526,-0.00012149,0.00004
 983,0.00013777,0.00010728,-0.00002132,-0.00001460,0.00004190,-0.000022
 71,0.00001577,-0.00004102,0.00002413,-0.00000290,-0.00000513,0.0000209
 2,-0.00012555,0.00007256,-0.00006145,-0.00001395,0.00004042,0.00001275
 ,0.00000326,0.00002498,0.00003646,-0.00003601,0.00001827,0.00006358,0.
 00002168,-0.00000644,-0.00001788,-0.00022893,-0.00018369,0.00001504,-0
 .00017866,0.00030336,-0.00031116,-0.00000279,-0.00000194,-0.00000684,0
 .00000285,-0.00003093,-0.00001354,-0.00000294,0.00000445,-0.00000618,-
 0.00000169,-0.00000070,-0.00000063,0.00000329,-0.00000068,-0.00000025,
 -0.00000100,0.00000347,-0.00000231,0.00000984,-0.00000784,-0.00000936,
 -0.00000093,-0.00000258,0.00000742,0.00000920,-0.00001004,-0.00001501,
 0.00000176,-0.00000029,-0.00000377,0.00001870,0.00001113,-0.00000789,0
 .00000477,0.00001484,-0.00000124,0.00002777,-0.00001765,-0.00003254,-0
 .00000293,0.00005720,-0.00007239,0.00008814,0.00004300,-0.00008849,-0.
 00000387,-0.00022871,-0.00001097,-0.00000005,0.00000896,-0.00007926,0.
 00032304,0.00039610,-0.00061307,0.00020998,0.00028903,-0.00007197,0.00
 239703,0.00265697,-0.00000736,-0.01383403,-0.02125347,0.00363996,0.128
 35052,0.25444639,0.00033001,-0.00006707,0.00041899,-0.00069657,0.00018
 604,0.00062552,0.00013720,0.00001092,-0.00024401,0.00081343,0.00003984
 ,0.00077060,0.00017979,0.00005988,-0.00005186,0.00043014,0.00025986,-0
 .00070936,-0.00259725,0.00052805,-0.00491544,-0.00043919,0.00061520,-0
 .00021547,-0.00004748,-0.00001585,0.00001150,-0.00002883,-0.00003923,-
 0.00001752,-0.00002987,0.00001007,0.00001745,0.00001125,0.00000712,-0.
 00000739,-0.00000259,-0.00000214,0.00000074,0.00000801,-0.00000040,-0.
 00000849,0.00000223,-0.00002058,0.00000614,0.00005848,0.00002845,-0.00
 004692,-0.00000537,-0.00000457,-0.00000872,-0.00006230,0.00007389,0.00
 018029,0.00008911,0.00000306,-0.00002817,-0.00085798,-0.00129610,0.001
 53811,-0.01377349,-0.02342694,0.00206300,0.01612578,0.02444110,-0.0510
 6683,0.00006445,-0.00011050,0.00008224,0.00030858,-0.00030075,-0.00042
 803,-0.00009183,0.00009915,-0.00004150,-0.00011844,0.00007517,-0.00014
 957,0.00010481,0.00031925,-0.00033159,-0.00000185,-0.00002259,0.000013
 30,0.00006375,-0.00003850,0.00003253,-0.00003938,0.00001416,-0.0000352
 2,0.00023729,-0.00011690,-0.00002647,0.00004499,0.00003262,0.00006885,
 -0.00003768,0.00015664,0.00005820,0.00003927,-0.00003491,0.00028676,0.
 00003671,-0.00021824,0.00050283,-0.00112427,-0.00135962,0.00009394,0.0
 0020710,-0.00004890,0.00009813,0.00000629,-0.00000517,0.00000221,0.000
 01055,-0.00001520,-0.00000330,-0.00000076,0.00000076,0.00000279,0.0000
 0056,0.00000658,0.00000057,0.00000056,-0.00000186,0.00000053,0.0000007
 0,-0.00000026,0.00000054,0.00000145,0.00000311,-0.00000140,-0.00000005
 ,0.00000151,-0.00000048,0.00000104,-0.00000098,0.00000041,-0.00000250,
 -0.00000154,0.00000018,0.00001421,0.00000320,-0.00000451,0.00001867,0.
 00000016,0.00000093,0.00000281,0.00000784,0.00000052,-0.00000323,-0.00
 000630,-0.00000464,-0.00001344,0.00003023,0.00004909,0.00009095,-0.000
 03245,0.00001615,0.00005936,-0.00000663,0.00000138,0.00038499,0.000474
 13,-0.00041314,0.00011037,0.00027601,0.00038002,0.01397089,0.02501005,
 -0.00248358,0.00114638,0.00108523,-0.00106371,-0.01513779,-0.02666509,
 0.05498288\\0.00002697,0.00001655,-0.00002905,0.00001248,-0.00004169,-
 0.00000809,-0.00000312,-0.00000547,0.00000628,0.00000445,-0.00003188,0
 .00003168,-0.00001210,-0.00000530,0.00000182,0.00001176,0.00002241,-0.
 00002267,0.00004099,0.00000793,0.00000920,0.00000400,-0.00001883,-0.00
 000702,-0.00003036,0.00000805,-0.00000486,-0.00000640,-0.00000188,0.00
 001248,-0.00001956,-0.00002378,-0.00000001,0.00001041,-0.00001577,0.00
 000942,0.00000660,0.00001282,0.00001212,0.00000587,0.00001135,0.000003
 94,-0.00001208,0.00001130,-0.00001501,0.00001650,-0.00001956,0.0000090
 5,-0.00002374,-0.00002013,-0.00000343,-0.00001053,-0.00001025,0.000019
 58,-0.00001096,-0.00001588,-0.00001095,-0.00003111,0.00000359,0.000048
 45,-0.00001068,0.00003176,0.00001326,-0.00004357,0.00002472,-0.0000277
 7,0.00007677,0.00002243,-0.00000329,0.00000908,0.00001324,-0.00000175,
 -0.00000329,0.00000729,0.00001181,-0.00000781,-0.00000977,-0.00000238,
 -0.00000623,0.00000210,0.00000491,0.00001183,0.00000428,-0.00000415,0.
 00000148,-0.00000123,0.00000389,0.00000305,-0.00000278,-0.00000243,-0.
 00000593,0.00000961,0.00000080,-0.00000339,-0.00000115,-0.00000511,-0.
 00000411,-0.00000082,-0.00000876,-0.00001265,-0.00000355,0.00000251,-0
 .00000681,-0.00001279,-0.00001102,-0.00000486,0.00000404,-0.00000208,-
 0.00000225,-0.00000834,0.00001164,0.00000766,-0.00000258,-0.00001203,-
 0.00000753,-0.00001088,-0.00000217,0.00000773,-0.00003186,-0.00000502,
 -0.00000325,-0.00000074,0.00000355,-0.00001130,-0.00000015,-0.00000653
 ,0.00000231,0.00000322,-0.00000284,-0.00000146,-0.00000705,-0.00000145
 ,-0.00000063,0.00001258,0.00001128,0.00000423,-0.00000644,-0.00000297,
 0.00000134,0.00000096,-0.00000524,-0.00001046,0.00000082,0.00000465,0.
 00001970,0.00001779,0.00000224,0.00000443,-0.00000155,-0.00002123,-0.0
 0000521,0.00002345,-0.00000683,-0.00001548,-0.00000002,-0.00002088,0.0
 0001301,-0.00000211,0.00000623,0.00001081,-0.00000352,-0.00000148,0.00
 000239,0.00000201,0.00000218,-0.00000409,0.00000290,-0.00000245,0.0000
 0570,-0.00000438,0.00000559,0.00000242,0.00002382,0.00000085,0.0000070
 1,0.00002113,0.00001153\\\@


 CHRISTMAS IS ON TOP OF A STEEP HILL.
 THE CLOSER YOU GET, THE STEEPER THE HILL IS.
          -- LINUS, OF PEANUTS
 Job cpu time:       0 days  0 hours 18 minutes 56.4 seconds.
 Elapsed time:       0 days  2 hours  6 minutes 18.8 seconds.
 File lengths (MBytes):  RWF=   1168 Int=      0 D2E=      0 Chk=     16 Scr=      1
 Normal termination of Gaussian 16 at Fri Feb 23 16:35:11 2024.
