 Entering Gaussian System, Link 0=g16
 Input=/Volumes/SSD-PMU3/b3lyp_6-31gd_freq/OXOYGYLXOZBYLS-ZVLKMEQASA-N_calculating/gaussianinput0.gjf
 Output=/Volumes/SSD-PMU3/b3lyp_6-31gd_freq/OXOYGYLXOZBYLS-ZVLKMEQASA-N_calculating/gaussianinput0.log
 Initial command:
 /Applications/g16/l1.exe "/Users/macmini_m1_2022/PycharmProjects/sphere_model/sphere_model_lib/Gau-67611.inp" -scrdir="/Users/macmini_m1_2022/PycharmProjects/sphere_model/sphere_model_lib/"
 Entering Link 1 = /Applications/g16/l1.exe PID=     67612.
  
 Copyright (c) 1988,1990,1992,1993,1995,1998,2003,2009,2016,
            Gaussian, Inc.  All Rights Reserved.
  
 This is part of the Gaussian(R) 16 program.  It is based on
 the Gaussian(R) 09 system (copyright 2009, Gaussian, Inc.),
 the Gaussian(R) 03 system (copyright 2003, Gaussian, Inc.),
 the Gaussian(R) 98 system (copyright 1998, Gaussian, Inc.),
 the Gaussian(R) 94 system (copyright 1995, Gaussian, Inc.),
 the Gaussian 92(TM) system (copyright 1992, Gaussian, Inc.),
 the Gaussian 90(TM) system (copyright 1990, Gaussian, Inc.),
 the Gaussian 88(TM) system (copyright 1988, Gaussian, Inc.),
 the Gaussian 86(TM) system (copyright 1986, Carnegie Mellon
 University), and the Gaussian 82(TM) system (copyright 1983,
 Carnegie Mellon University). Gaussian is a federally registered
 trademark of Gaussian, Inc.
  
 This software contains proprietary and confidential information,
 including trade secrets, belonging to Gaussian, Inc.
  
 This software is provided under written license and may be
 used, copied, transmitted, or stored only in accord with that
 written license.
  
 The following legend is applicable only to US Government
 contracts under FAR:
  
                    RESTRICTED RIGHTS LEGEND
  
 Use, reproduction and disclosure by the US Government is
 subject to restrictions as set forth in subparagraphs (a)
 and (c) of the Commercial Computer Software - Restricted
 Rights clause in FAR 52.227-19.
  
 Gaussian, Inc.
 340 Quinnipiac St., Bldg. 40, Wallingford CT 06492
  
  
 ---------------------------------------------------------------
 Warning -- This program may not be used in any manner that
 competes with the business of Gaussian, Inc. or will provide
 assistance to any competitor of Gaussian, Inc.  The licensee
 of this program is prohibited from giving any competitor of
 Gaussian, Inc. access to this program.  By using this program,
 the user acknowledges that Gaussian, Inc. is engaged in the
 business of creating and licensing software in the field of
 computational chemistry and represents and warrants to the
 licensee that it is not a competitor of Gaussian, Inc. and that
 it will not use this program in any manner prohibited above.
 ---------------------------------------------------------------
  

 Cite this work as:
 Gaussian 16, Revision A.03,
 M. J. Frisch, G. W. Trucks, H. B. Schlegel, G. E. Scuseria, 
 M. A. Robb, J. R. Cheeseman, G. Scalmani, V. Barone, 
 G. A. Petersson, H. Nakatsuji, X. Li, M. Caricato, A. V. Marenich, 
 J. Bloino, B. G. Janesko, R. Gomperts, B. Mennucci, H. P. Hratchian, 
 J. V. Ortiz, A. F. Izmaylov, J. L. Sonnenberg, D. Williams-Young, 
 F. Ding, F. Lipparini, F. Egidi, J. Goings, B. Peng, A. Petrone, 
 T. Henderson, D. Ranasinghe, V. G. Zakrzewski, J. Gao, N. Rega, 
 G. Zheng, W. Liang, M. Hada, M. Ehara, K. Toyota, R. Fukuda, 
 J. Hasegawa, M. Ishida, T. Nakajima, Y. Honda, O. Kitao, H. Nakai, 
 T. Vreven, K. Throssell, J. A. Montgomery, Jr., J. E. Peralta, 
 F. Ogliaro, M. J. Bearpark, J. J. Heyd, E. N. Brothers, K. N. Kudin, 
 V. N. Staroverov, T. A. Keith, R. Kobayashi, J. Normand, 
 K. Raghavachari, A. P. Rendell, J. C. Burant, S. S. Iyengar, 
 J. Tomasi, M. Cossi, J. M. Millam, M. Klene, C. Adamo, R. Cammi, 
 J. W. Ochterski, R. L. Martin, K. Morokuma, O. Farkas, 
 J. B. Foresman, and D. J. Fox, Gaussian, Inc., Wallingford CT, 2016.
 
 ******************************************
 Gaussian 16:  EM64M-G16RevA.03 25-Dec-2016
                23-Feb-2024 
 ******************************************
 %nprocshared=10
 Will use up to   10 processors via shared memory.
 %mem=12GB
 %chk= 0.chk
 ---------------------
 # freq b3lyp/6-31g(d)
 ---------------------
 1/10=4,30=1,38=1/1,3;
 2/12=2,17=6,18=5,40=1/2;
 3/5=1,6=6,7=1,11=2,25=1,30=1,71=2,74=-5,140=1/1,2,3;
 4//1;
 5/5=2,38=5,98=1/2;
 8/6=4,10=90,11=11/1;
 11/6=1,8=1,9=11,15=111,16=1/1,2,10;
 10/6=1/2;
 6/7=2,8=2,9=2,10=2,28=1/1;
 7/8=1,10=1,25=1/1,2,3,16;
 1/10=4,30=1/3;
 99//99;
 ---------
 good luck
 ---------
 Symbolic Z-matrix:
 Charge =  0 Multiplicity = 1
 C                    -0.9879   -7.03573   0.80457 
 C                    -0.01909  -6.40969  -0.21223 
 C                     1.27092  -7.25087  -0.25843 
 C                     0.31501  -4.9237    0.06416 
 C                     1.28696  -4.32541  -1.00745 
 C                     0.96624  -2.81058  -1.12463 
 C                    -0.00095  -2.55578   0.04173 
 C                    -0.84064  -1.27466   0.05351 
 C                     0.        0.        0. 
 C                    -0.79719   1.29157   0.05351 
 C                    -1.66202   1.30473   1.33257 
 C                    -2.37143   2.65261   1.54556 
 C                    -3.10256   2.68507   2.89552 
 C                    -4.05461   1.49108   3.04809 
 C                    -3.34713   0.14979   2.78557 
 C                    -2.62394   0.07541   1.4114 
 C                    -3.68057   0.0909    0.28268 
 C                    -1.73883  -1.21841   1.34232 
 C                    -2.5155   -2.53887   1.53662 
 C                    -1.63197  -3.80038   1.45489 
 C                    -0.8383   -3.86563   0.13607 
 C                    -1.7973   -4.04646  -1.06278 
 O                     1.21875   0.        0. 
 H                    -1.98673  -6.5926    0.75949 
 H                    -1.09914  -8.11036   0.61521 
 H                    -0.61534  -6.91907   1.83048 
 H                    -0.48653  -6.47324  -1.20625 
 H                     1.04088  -8.30142  -0.4723 
 H                     1.96771  -6.9008   -1.0262 
 H                     1.79309  -7.21693   0.70713 
 H                     0.82389  -4.88967   1.04107 
 H                     1.14979  -4.83146  -1.97112 
 H                     2.33034  -4.49044  -0.72053 
 H                     1.85283  -2.17918  -1.05536 
 H                     0.48614  -2.58308  -2.08521 
 H                     0.61486  -2.52493   0.95437 
 H                    -1.4972   -1.25448  -0.82879 
 H                    -0.09519   2.13135   0.04695 
 H                    -1.43622   1.37702  -0.83629 
 H                    -0.96308   1.19097   2.17777 
 H                    -3.07904   2.84525   0.72731 
 H                    -1.62801   3.45933   1.50137 
 H                    -2.3566    2.65681   3.70341 
 H                    -3.65078   3.62864   3.01117 
 H                    -4.90172   1.60771   2.35894 
 H                    -4.48573   1.47967   4.05735 
 H                    -2.60383  -0.01876   3.57955 
 H                    -4.07896  -0.66219   2.86908 
 H                    -4.25418   1.02162   0.27454 
 H                    -3.23978  -0.02049  -0.71285 
 H                    -4.39967  -0.72463   0.41339 
 H                    -1.03578  -1.14647   2.18896 
 H                    -3.00847  -2.52657   2.51529 
 H                    -3.31902  -2.6141    0.79432 
 H                    -0.92262  -3.79987   2.29565 
 H                    -2.27125  -4.67953   1.58936 
 H                    -2.49535  -3.2113   -1.17347 
 H                    -1.25754  -4.14269  -2.0102 
 H                    -2.40047  -4.95302  -0.93875 
 

 GradGradGradGradGradGradGradGradGradGradGradGradGradGradGradGradGradGrad
 Berny optimization.
 Initialization pass.
 Trust Radius=3.00D-01 FncErr=1.00D-07 GrdErr=1.00D-07 EigMax=2.50D+02 EigMin=1.00D-04
 Number of steps in this run=      2 maximum allowed number of steps=      2.
 GradGradGradGradGradGradGradGradGradGradGradGradGradGradGradGradGradGrad

 Stoichiometry    C22H36O
 Framework group  C1[X(C22H36O)]
 Deg. of freedom   171
 Full point group                 C1      NOp   1
 Largest Abelian subgroup         C1      NOp   1
 Largest concise Abelian subgroup C1      NOp   1
                         Standard orientation:                         
 ---------------------------------------------------------------------
 Center     Atomic      Atomic             Coordinates (Angstroms)
 Number     Number       Type             X           Y           Z
 ---------------------------------------------------------------------
      1          6           0       -4.657532   -2.157529   -0.319393
      2          6           0       -4.696729   -0.656119    0.010194
      3          6           0       -5.926355   -0.025684   -0.671286
      4          6           0       -3.410366    0.111235   -0.380473
      5          6           0       -3.489416    1.629587   -0.007202
      6          6           0       -2.041794    2.106064    0.290549
      7          6           0       -1.173407    0.917924   -0.151054
      8          6           0        0.282125    0.837028    0.319469
      9          6           0        1.114277    2.055756   -0.076140
     10          6           0        2.574491    1.991234    0.336358
     11          6           0        3.217273    0.720015   -0.259423
     12          6           0        4.736816    0.668801   -0.027516
     13          6           0        5.366947   -0.527401   -0.755546
     14          6           0        4.672107   -1.843379   -0.380478
     15          6           0        3.146730   -1.766623   -0.569781
     16          6           0        2.475649   -0.582946    0.182170
     17          6           0        2.583830   -0.825441    1.705391
     18          6           0        0.978044   -0.445341   -0.265506
     19          6           0        0.117211   -1.704275   -0.023428
     20          6           0       -1.353952   -1.547583   -0.459147
     21          6           0       -2.028121   -0.333579    0.208044
     22          6           0       -2.149051   -0.553878    1.733314
     23          8           0        0.678264    2.977370   -0.743873
     24          1           0       -3.913007   -2.697252    0.272581
     25          1           0       -5.631797   -2.618998   -0.117113
     26          1           0       -4.427990   -2.324505   -1.379741
     27          1           0       -4.836552   -0.553219    1.096683
     28          1           0       -6.842629   -0.554526   -0.383026
     29          1           0       -6.053818    1.028149   -0.405329
     30          1           0       -5.839906   -0.086276   -1.764428
     31          1           0       -3.316224    0.035104   -1.475829
     32          1           0       -4.137720    1.774103    0.865944
     33          1           0       -3.938976    2.206728   -0.821449
     34          1           0       -1.773717    3.018656   -0.243124
     35          1           0       -1.906925    2.310285    1.360632
     36          1           0       -1.136536    0.952568   -1.251287
     37          1           0        0.313346    0.779086    1.417460
     38          1           0        3.076945    2.892231   -0.029462
     39          1           0        2.656259    1.978723    1.432050
     40          1           0        3.077400    0.787183   -1.351096
     41          1           0        4.957503    0.616425    1.047610
     42          1           0        5.185257    1.605009   -0.385077
     43          1           0        5.277765   -0.369148   -1.840414
     44          1           0        6.440736   -0.585989   -0.536944
     45          1           0        4.906798   -2.097348    0.661905
     46          1           0        5.069801   -2.665956   -0.988599
     47          1           0        2.928827   -1.664911   -1.643784
     48          1           0        2.699289   -2.715510   -0.251550
     49          1           0        3.624032   -0.848552    2.041238
     50          1           0        2.075695   -0.055909    2.294792
     51          1           0        2.140524   -1.789241    1.977116
     52          1           0        1.004065   -0.294626   -1.357687
     53          1           0        0.550670   -2.548356   -0.571713
     54          1           0        0.150403   -1.983226    1.036468
     55          1           0       -1.395904   -1.420455   -1.550994
     56          1           0       -1.882090   -2.480659   -0.235308
     57          1           0       -1.176050   -0.662896    2.221598
     58          1           0       -2.666872    0.273693    2.228490
     59          1           0       -2.717382   -1.466540    1.945673
 ---------------------------------------------------------------------
 Rotational constants (GHZ):           0.5864980           0.1441716           0.1255899
 Standard basis: 6-31G(d) (6D, 7F)
 There are   417 symmetry adapted cartesian basis functions of A   symmetry.
 There are   417 symmetry adapted basis functions of A   symmetry.
   417 basis functions,   788 primitive gaussians,   417 cartesian basis functions
    88 alpha electrons       88 beta electrons
       nuclear repulsion energy      2166.1866631738 Hartrees.
 NAtoms=   59 NActive=   59 NUniq=   59 SFac= 1.00D+00 NAtFMM=   60 NAOKFM=F Big=F
 Integral buffers will be    131072 words long.
 Raffenetti 2 integral format.
 Two-electron integral symmetry is turned on.
 One-electron integrals computed using PRISM.
 NBasis=   417 RedAO= T EigKep=  1.50D-03  NBF=   417
 NBsUse=   417 1.00D-06 EigRej= -1.00D+00 NBFU=   417
 ExpMin= 1.61D-01 ExpMax= 5.48D+03 ExpMxC= 8.25D+02 IAcc=3 IRadAn=         5 AccDes= 0.00D+00
 Harris functional with IExCor=  402 and IRadAn=       5 diagonalized for initial guess.
 HarFok:  IExCor=  402 AccDes= 0.00D+00 IRadAn=         5 IDoV= 1 UseB2=F ITyADJ=14
 ICtDFT=  3500011 ScaDFX=  1.000000  1.000000  1.000000  1.000000
 FoFCou: FMM=F IPFlag=           0 FMFlag=      100000 FMFlg1=           0
         NFxFlg=           0 DoJE=T BraDBF=F KetDBF=T FulRan=T
         wScrn=  0.000000 ICntrl=       500 IOpCl=  0 I1Cent=   200000004 NGrid=           0
         NMat0=    1 NMatS0=      1 NMatT0=    0 NMatD0=    1 NMtDS0=    0 NMtDT0=    0
 Petite list used in FoFCou.
 Requested convergence on RMS density matrix=1.00D-08 within 128 cycles.
 Requested convergence on MAX density matrix=1.00D-06.
 Requested convergence on             energy=1.00D-06.
 No special actions if energy rises.
 Integral accuracy reduced to 1.0D-05 until final iterations.
 Initial convergence to 1.0D-05 achieved.  Increase integral accuracy.
 SCF Done:  E(RB3LYP) =  -935.272334346     A.U. after   14 cycles
            NFock= 14  Conv=0.33D-08     -V/T= 2.0099
 DoSCS=F DFT=T ScalE2(SS,OS)=  1.000000  1.000000
 Range of M.O.s used for correlation:     1   417
 NBasis=   417 NAE=    88 NBE=    88 NFC=     0 NFV=     0
 NROrb=    417 NOA=    88 NOB=    88 NVA=   329 NVB=   329
 Symmetrizing basis deriv contribution to polar:
 IMax=3 JMax=2 DiffMx= 0.00D+00
 G2DrvN: will do    60 centers at a time, making    1 passes.
 Calling FoFCou, ICntrl=  3107 FMM=F I1Cent=   0 AccDes= 0.00D+00.
 End of G2Drv F.D. properties file   721 does not exist.
 End of G2Drv F.D. properties file   722 does not exist.
 End of G2Drv F.D. properties file   788 does not exist.
          IDoAtm=11111111111111111111111111111111111111111111111111
          IDoAtm=111111111
          Differentiating once with respect to electric field.
                with respect to dipole field.
          Differentiating once with respect to nuclear coordinates.
 CalDSu exits because no D1Ps are significant.
          There are   180 degrees of freedom in the 1st order CPHF.  IDoFFX=6 NUNeed=     3.
    177 vectors produced by pass  0 Test12= 2.90D-14 1.00D-09 XBig12= 1.48D+02 2.49D+00.
 AX will form   177 AO Fock derivatives at one time.
    177 vectors produced by pass  1 Test12= 2.90D-14 1.00D-09 XBig12= 1.06D+01 4.31D-01.
    177 vectors produced by pass  2 Test12= 2.90D-14 1.00D-09 XBig12= 9.32D-02 2.04D-02.
    177 vectors produced by pass  3 Test12= 2.90D-14 1.00D-09 XBig12= 2.38D-04 1.21D-03.
    177 vectors produced by pass  4 Test12= 2.90D-14 1.00D-09 XBig12= 2.19D-07 3.17D-05.
     73 vectors produced by pass  5 Test12= 2.90D-14 1.00D-09 XBig12= 1.32D-10 6.83D-07.
      3 vectors produced by pass  6 Test12= 2.90D-14 1.00D-09 XBig12= 9.37D-14 1.82D-08.
 InvSVY:  IOpt=1 It=  1 EMax= 7.11D-15
 Solved reduced A of dimension   961 with   180 vectors.
 Isotropic polarizability for W=    0.000000      221.26 Bohr**3.
 End of Minotr F.D. properties file   721 does not exist.
 End of Minotr F.D. properties file   722 does not exist.
 End of Minotr F.D. properties file   788 does not exist.

 **********************************************************************

            Population analysis using the SCF density.

 **********************************************************************

 Orbital symmetries:
       Occupied  (A) (A) (A) (A) (A) (A) (A) (A) (A) (A) (A) (A)
                 (A) (A) (A) (A) (A) (A) (A) (A) (A) (A) (A) (A)
                 (A) (A) (A) (A) (A) (A) (A) (A) (A) (A) (A) (A)
                 (A) (A) (A) (A) (A) (A) (A) (A) (A) (A) (A) (A)
                 (A) (A) (A) (A) (A) (A) (A) (A) (A) (A) (A) (A)
                 (A) (A) (A) (A) (A) (A) (A) (A) (A) (A) (A) (A)
                 (A) (A) (A) (A) (A) (A) (A) (A) (A) (A) (A) (A)
                 (A) (A) (A) (A)
       Virtual   (A) (A) (A) (A) (A) (A) (A) (A) (A) (A) (A) (A)
                 (A) (A) (A) (A) (A) (A) (A) (A) (A) (A) (A) (A)
                 (A) (A) (A) (A) (A) (A) (A) (A) (A) (A) (A) (A)
                 (A) (A) (A) (A) (A) (A) (A) (A) (A) (A) (A) (A)
                 (A) (A) (A) (A) (A) (A) (A) (A) (A) (A) (A) (A)
                 (A) (A) (A) (A) (A) (A) (A) (A) (A) (A) (A) (A)
                 (A) (A) (A) (A) (A) (A) (A) (A) (A) (A) (A) (A)
                 (A) (A) (A) (A) (A) (A) (A) (A) (A) (A) (A) (A)
                 (A) (A) (A) (A) (A) (A) (A) (A) (A) (A) (A) (A)
                 (A) (A) (A) (A) (A) (A) (A) (A) (A) (A) (A) (A)
                 (A) (A) (A) (A) (A) (A) (A) (A) (A) (A) (A) (A)
                 (A) (A) (A) (A) (A) (A) (A) (A) (A) (A) (A) (A)
                 (A) (A) (A) (A) (A) (A) (A) (A) (A) (A) (A) (A)
                 (A) (A) (A) (A) (A) (A) (A) (A) (A) (A) (A) (A)
                 (A) (A) (A) (A) (A) (A) (A) (A) (A) (A) (A) (A)
                 (A) (A) (A) (A) (A) (A) (A) (A) (A) (A) (A) (A)
                 (A) (A) (A) (A) (A) (A) (A) (A) (A) (A) (A) (A)
                 (A) (A) (A) (A) (A) (A) (A) (A) (A) (A) (A) (A)
                 (A) (A) (A) (A) (A) (A) (A) (A) (A) (A) (A) (A)
                 (A) (A) (A) (A) (A) (A) (A) (A) (A) (A) (A) (A)
                 (A) (A) (A) (A) (A) (A) (A) (A) (A) (A) (A) (A)
                 (A) (A) (A) (A) (A) (A) (A) (A) (A) (A) (A) (A)
                 (A) (A) (A) (A) (A) (A) (A) (A) (A) (A) (A) (A)
                 (A) (A) (A) (A) (A) (A) (A) (A) (A) (A) (A) (A)
                 (A) (A) (A) (A) (A) (A) (A) (A) (A) (A) (A) (A)
                 (A) (A) (A) (A) (A) (A) (A) (A) (A) (A) (A) (A)
                 (A) (A) (A) (A) (A) (A) (A) (A) (A) (A) (A) (A)
                 (A) (A) (A) (A) (A)
 The electronic state is 1-A.
 Alpha  occ. eigenvalues --  -19.13012 -10.26324 -10.20038 -10.19421 -10.19365
 Alpha  occ. eigenvalues --  -10.18867 -10.18542 -10.18394 -10.18225 -10.18207
 Alpha  occ. eigenvalues --  -10.18174 -10.18152 -10.18109 -10.17962 -10.17742
 Alpha  occ. eigenvalues --  -10.17614 -10.17477 -10.17426 -10.16954 -10.16799
 Alpha  occ. eigenvalues --  -10.16759 -10.16632 -10.16262  -1.02864  -0.86314
 Alpha  occ. eigenvalues --   -0.84583  -0.80476  -0.78112  -0.77744  -0.75955
 Alpha  occ. eigenvalues --   -0.74532  -0.71830  -0.70696  -0.68191  -0.67950
 Alpha  occ. eigenvalues --   -0.67107  -0.66513  -0.61804  -0.61137  -0.59329
 Alpha  occ. eigenvalues --   -0.58021  -0.56035  -0.54599  -0.52962  -0.52249
 Alpha  occ. eigenvalues --   -0.51658  -0.47750  -0.47648  -0.46780  -0.46215
 Alpha  occ. eigenvalues --   -0.45226  -0.44637  -0.44271  -0.43527  -0.42736
 Alpha  occ. eigenvalues --   -0.42238  -0.41642  -0.41266  -0.40842  -0.40077
 Alpha  occ. eigenvalues --   -0.39668  -0.39187  -0.39026  -0.38312  -0.38201
 Alpha  occ. eigenvalues --   -0.37368  -0.37073  -0.36723  -0.36167  -0.35623
 Alpha  occ. eigenvalues --   -0.35235  -0.34508  -0.34401  -0.33781  -0.33536
 Alpha  occ. eigenvalues --   -0.33127  -0.32777  -0.32143  -0.31664  -0.31070
 Alpha  occ. eigenvalues --   -0.30705  -0.30156  -0.29945  -0.29497  -0.28963
 Alpha  occ. eigenvalues --   -0.27893  -0.27463  -0.22839
 Alpha virt. eigenvalues --   -0.00678   0.07147   0.07854   0.07993   0.09914
 Alpha virt. eigenvalues --    0.10552   0.10707   0.11128   0.11768   0.11929
 Alpha virt. eigenvalues --    0.12927   0.13018   0.13529   0.14235   0.14714
 Alpha virt. eigenvalues --    0.15111   0.15193   0.15827   0.16031   0.16326
 Alpha virt. eigenvalues --    0.16628   0.16878   0.17562   0.17847   0.18245
 Alpha virt. eigenvalues --    0.18395   0.18709   0.19141   0.19513   0.20068
 Alpha virt. eigenvalues --    0.20461   0.20926   0.21261   0.21533   0.22054
 Alpha virt. eigenvalues --    0.22181   0.22735   0.23053   0.23730   0.23780
 Alpha virt. eigenvalues --    0.24206   0.24406   0.24730   0.25133   0.25681
 Alpha virt. eigenvalues --    0.26174   0.26322   0.27106   0.27662   0.27933
 Alpha virt. eigenvalues --    0.28145   0.28604   0.28994   0.29746   0.30548
 Alpha virt. eigenvalues --    0.31210   0.31978   0.32551   0.33616   0.34661
 Alpha virt. eigenvalues --    0.37369   0.38441   0.40908   0.48859   0.49958
 Alpha virt. eigenvalues --    0.50383   0.50655   0.51228   0.51961   0.52500
 Alpha virt. eigenvalues --    0.53047   0.54016   0.54427   0.55135   0.55541
 Alpha virt. eigenvalues --    0.56288   0.57735   0.58299   0.59696   0.60288
 Alpha virt. eigenvalues --    0.60723   0.62054   0.63212   0.63384   0.63596
 Alpha virt. eigenvalues --    0.65088   0.65373   0.66125   0.66682   0.67095
 Alpha virt. eigenvalues --    0.68315   0.68538   0.69431   0.70192   0.70412
 Alpha virt. eigenvalues --    0.71252   0.71870   0.73001   0.73324   0.74811
 Alpha virt. eigenvalues --    0.75381   0.76062   0.77045   0.78374   0.78718
 Alpha virt. eigenvalues --    0.79856   0.81068   0.82063   0.82149   0.82543
 Alpha virt. eigenvalues --    0.83143   0.83823   0.84380   0.85390   0.85574
 Alpha virt. eigenvalues --    0.85766   0.86437   0.86738   0.86891   0.88021
 Alpha virt. eigenvalues --    0.88358   0.88918   0.89370   0.89723   0.89813
 Alpha virt. eigenvalues --    0.90205   0.90308   0.91134   0.91775   0.91896
 Alpha virt. eigenvalues --    0.92680   0.93054   0.93263   0.93699   0.94200
 Alpha virt. eigenvalues --    0.94972   0.95364   0.95820   0.96305   0.96724
 Alpha virt. eigenvalues --    0.96778   0.97175   0.97697   0.97936   0.98066
 Alpha virt. eigenvalues --    0.99053   0.99697   1.00579   1.00952   1.02071
 Alpha virt. eigenvalues --    1.02544   1.02613   1.04195   1.04637   1.05389
 Alpha virt. eigenvalues --    1.06187   1.06477   1.08923   1.11130   1.12085
 Alpha virt. eigenvalues --    1.14749   1.14926   1.17594   1.18515   1.20535
 Alpha virt. eigenvalues --    1.21817   1.23192   1.24258   1.25121   1.29204
 Alpha virt. eigenvalues --    1.29630   1.31520   1.32521   1.34504   1.35452
 Alpha virt. eigenvalues --    1.37537   1.41688   1.43210   1.46658   1.47775
 Alpha virt. eigenvalues --    1.48940   1.51197   1.52046   1.54221   1.54625
 Alpha virt. eigenvalues --    1.57143   1.58516   1.59756   1.62604   1.63584
 Alpha virt. eigenvalues --    1.64693   1.66083   1.67084   1.67947   1.69543
 Alpha virt. eigenvalues --    1.71364   1.71943   1.73347   1.74946   1.75654
 Alpha virt. eigenvalues --    1.75870   1.76549   1.77769   1.78355   1.79472
 Alpha virt. eigenvalues --    1.81089   1.81330   1.83040   1.84060   1.84397
 Alpha virt. eigenvalues --    1.85760   1.87085   1.87404   1.88751   1.90128
 Alpha virt. eigenvalues --    1.91179   1.92220   1.92796   1.93271   1.93647
 Alpha virt. eigenvalues --    1.94699   1.95266   1.96441   1.96745   1.97519
 Alpha virt. eigenvalues --    1.98388   1.99778   2.00795   2.01219   2.02093
 Alpha virt. eigenvalues --    2.02776   2.03142   2.03647   2.04833   2.05074
 Alpha virt. eigenvalues --    2.05575   2.06336   2.07613   2.08762   2.09940
 Alpha virt. eigenvalues --    2.11111   2.11562   2.12411   2.13347   2.13757
 Alpha virt. eigenvalues --    2.14661   2.15749   2.18276   2.18877   2.20111
 Alpha virt. eigenvalues --    2.20953   2.22162   2.23714   2.24950   2.26621
 Alpha virt. eigenvalues --    2.27346   2.28852   2.29717   2.30068   2.31104
 Alpha virt. eigenvalues --    2.32207   2.34432   2.35019   2.37050   2.38368
 Alpha virt. eigenvalues --    2.39670   2.40564   2.41301   2.42449   2.43418
 Alpha virt. eigenvalues --    2.43880   2.45432   2.46095   2.48400   2.49275
 Alpha virt. eigenvalues --    2.51829   2.52345   2.53320   2.54535   2.56475
 Alpha virt. eigenvalues --    2.58523   2.59724   2.60423   2.62096   2.62962
 Alpha virt. eigenvalues --    2.64004   2.66353   2.66443   2.68812   2.71388
 Alpha virt. eigenvalues --    2.73856   2.75515   2.76527   2.77060   2.78483
 Alpha virt. eigenvalues --    2.80670   2.82433   2.85546   2.86142   2.89379
 Alpha virt. eigenvalues --    2.90746   2.91397   2.95344   3.01404   3.04060
 Alpha virt. eigenvalues --    3.07899   4.06540   4.11927   4.15359   4.21364
 Alpha virt. eigenvalues --    4.23766   4.25269   4.27477   4.29358   4.30482
 Alpha virt. eigenvalues --    4.31143   4.35864   4.41236   4.44550   4.47787
 Alpha virt. eigenvalues --    4.53705   4.56523   4.57219   4.65056   4.67121
 Alpha virt. eigenvalues --    4.71668   4.78090   4.80185   4.83310
          Condensed to atoms (all electrons):
 Mulliken charges:
               1
     1  C   -0.450229
     2  C   -0.079511
     3  C   -0.448244
     4  C   -0.074075
     5  C   -0.296916
     6  C   -0.290554
     7  C   -0.082918
     8  C   -0.204334
     9  C    0.449064
    10  C   -0.345671
    11  C   -0.108700
    12  C   -0.264778
    13  C   -0.260806
    14  C   -0.267751
    15  C   -0.277471
    16  C    0.104559
    17  C   -0.484385
    18  C   -0.104419
    19  C   -0.289238
    20  C   -0.279128
    21  C    0.090862
    22  C   -0.483743
    23  O   -0.458204
    24  H    0.145775
    25  H    0.136717
    26  H    0.138186
    27  H    0.118983
    28  H    0.136801
    29  H    0.148836
    30  H    0.137155
    31  H    0.108281
    32  H    0.130512
    33  H    0.139385
    34  H    0.165665
    35  H    0.122054
    36  H    0.123590
    37  H    0.138171
    38  H    0.156055
    39  H    0.148087
    40  H    0.126228
    41  H    0.131182
    42  H    0.134329
    43  H    0.130697
    44  H    0.132258
    45  H    0.133518
    46  H    0.133330
    47  H    0.126488
    48  H    0.134653
    49  H    0.150568
    50  H    0.143970
    51  H    0.148780
    52  H    0.120354
    53  H    0.138234
    54  H    0.137095
    55  H    0.124225
    56  H    0.130876
    57  H    0.141312
    58  H    0.148640
    59  H    0.145599
 Sum of Mulliken charges =  -0.00000
 Mulliken charges with hydrogens summed into heavy atoms:
               1
     1  C   -0.029551
     2  C    0.039472
     3  C   -0.025452
     4  C    0.034206
     5  C   -0.027019
     6  C   -0.002834
     7  C    0.040672
     8  C   -0.066163
     9  C    0.449064
    10  C   -0.041529
    11  C    0.017528
    12  C    0.000732
    13  C    0.002149
    14  C   -0.000902
    15  C   -0.016329
    16  C    0.104559
    17  C   -0.041067
    18  C    0.015935
    19  C   -0.013909
    20  C   -0.024027
    21  C    0.090862
    22  C   -0.048192
    23  O   -0.458204
 APT charges:
               1
     1  C    0.048359
     2  C    0.133179
     3  C    0.061935
     4  C    0.078528
     5  C    0.070078
     6  C    0.063564
     7  C    0.068428
     8  C   -0.098951
     9  C    0.739717
    10  C   -0.101992
    11  C    0.096903
    12  C    0.100575
    13  C    0.111867
    14  C    0.120585
    15  C    0.071463
    16  C    0.067764
    17  C   -0.001947
    18  C    0.094556
    19  C    0.067755
    20  C    0.104281
    21  C    0.054358
    22  C    0.021332
    23  O   -0.652602
    24  H   -0.019561
    25  H   -0.047476
    26  H   -0.016656
    27  H   -0.067193
    28  H   -0.048536
    29  H   -0.012660
    30  H   -0.024505
    31  H   -0.066536
    32  H   -0.050421
    33  H   -0.048874
    34  H    0.003333
    35  H   -0.046978
    36  H   -0.046577
    37  H   -0.011699
    38  H   -0.034194
    39  H   -0.001853
    40  H   -0.053923
    41  H   -0.042934
    42  H   -0.056162
    43  H   -0.045256
    44  H   -0.067727
    45  H   -0.043977
    46  H   -0.066762
    47  H   -0.043645
    48  H   -0.044218
    49  H   -0.012759
    50  H   -0.013013
    51  H   -0.006261
    52  H   -0.052528
    53  H   -0.049781
    54  H   -0.027902
    55  H   -0.044085
    56  H   -0.055247
    57  H   -0.023099
    58  H   -0.009639
    59  H   -0.020434
 Sum of APT charges =   0.00000
 APT charges with hydrogens summed into heavy atoms:
               1
     1  C   -0.035333
     2  C    0.065986
     3  C   -0.023767
     4  C    0.011992
     5  C   -0.029216
     6  C    0.019920
     7  C    0.021851
     8  C   -0.110650
     9  C    0.739717
    10  C   -0.138039
    11  C    0.042980
    12  C    0.001479
    13  C   -0.001115
    14  C    0.009846
    15  C   -0.016400
    16  C    0.067764
    17  C   -0.033981
    18  C    0.042028
    19  C   -0.009928
    20  C    0.004950
    21  C    0.054358
    22  C   -0.031840
    23  O   -0.652602
 Electronic spatial extent (au):  <R**2>=           9034.1054
 Charge=             -0.0000 electrons
 Dipole moment (field-independent basis, Debye):
    X=              1.3063    Y=             -2.3920    Z=              1.1792  Tot=              2.9696
 Quadrupole moment (field-independent basis, Debye-Ang):
   XX=           -139.7327   YY=           -154.0768   ZZ=           -143.8635
   XY=             -0.5504   XZ=              0.3813   YZ=              3.8189
 Traceless Quadrupole moment (field-independent basis, Debye-Ang):
   XX=              6.1583   YY=             -8.1858   ZZ=              2.0274
   XY=             -0.5504   XZ=              0.3813   YZ=              3.8189
 Octapole moment (field-independent basis, Debye-Ang**2):
  XXX=             30.4143  YYY=            -22.4173  ZZZ=             -4.9882  XYY=              1.0553
  XXY=              8.0963  XXZ=              2.3845  XZZ=              2.9149  YZZ=              2.9306
  YYZ=             12.0402  XYZ=              3.7068
 Hexadecapole moment (field-independent basis, Debye-Ang**3):
 XXXX=          -9660.4351 YYYY=          -2169.0344 ZZZZ=           -712.1104 XXXY=             26.8709
 XXXZ=            -28.9091 YYYX=            -15.9112 YYYZ=             23.3315 ZZZX=              1.0820
 ZZZY=             -0.0676 XXYY=          -1946.9723 XXZZ=          -1726.1046 YYZZ=           -466.3791
 XXYZ=             -8.3361 YYXZ=              2.4826 ZZXY=             -2.5590
 N-N= 2.166186663174D+03 E-N=-6.497687289305D+03  KE= 9.261099463397D+02
  Exact polarizability: 273.414  -2.265 211.998   0.935  -1.553 178.382
 Approx polarizability: 315.758  -5.309 316.050   3.594  -9.920 308.983
 Calling FoFJK, ICntrl=    100127 FMM=F ISym2X=0 I1Cent= 0 IOpClX= 0 NMat=1 NMatS=1 NMatT=0.
 Full mass-weighted force constant matrix:
 Low frequencies ---   -4.2815   -2.1694   -0.0011   -0.0002    0.0003    4.4158
 Low frequencies ---   40.7170   54.8906   71.0876
 Diagonal vibrational polarizability:
       11.3819049       6.8903557      11.8549482
 Harmonic frequencies (cm**-1), IR intensities (KM/Mole), Raman scattering
 activities (A**4/AMU), depolarization ratios for plane and unpolarized
 incident light, reduced masses (AMU), force constants (mDyne/A),
 and normal coordinates:
                      1                      2                      3
                      A                      A                      A
 Frequencies --     40.7036                54.8826                71.0868
 Red. masses --      3.5469                 3.0343                 4.7792
 Frc consts  --      0.0035                 0.0054                 0.0142
 IR Inten    --      0.0863                 0.1575                 1.4243
  Atom  AN      X      Y      Z        X      Y      Z        X      Y      Z
     1   6    -0.01   0.01   0.00    -0.01  -0.01   0.24     0.07  -0.05   0.12
     2   6     0.01  -0.01   0.08    -0.00   0.03   0.07     0.02  -0.03   0.01
     3   6    -0.04   0.02   0.20    -0.01  -0.05   0.01     0.01  -0.11  -0.04
     4   6    -0.02   0.01   0.03    -0.01  -0.01  -0.03     0.00  -0.00  -0.02
     5   6    -0.01  -0.00   0.09     0.00   0.01  -0.13    -0.02  -0.00  -0.02
     6   6     0.01  -0.01   0.03     0.00   0.02  -0.12    -0.03   0.01   0.00
     7   6    -0.01   0.01  -0.04     0.00  -0.00  -0.07    -0.00   0.04  -0.03
     8   6    -0.00   0.00  -0.07    -0.01  -0.01  -0.03     0.00   0.03  -0.02
     9   6    -0.00   0.00  -0.08     0.01   0.00   0.04     0.01   0.06   0.05
    10   6    -0.01   0.02  -0.05    -0.01  -0.02   0.11     0.05  -0.00  -0.10
    11   6     0.02   0.00   0.01     0.00   0.01   0.06     0.01  -0.03  -0.07
    12   6     0.00  -0.00   0.11    -0.00  -0.00   0.10     0.01  -0.06  -0.10
    13   6     0.04  -0.01   0.16     0.02   0.04   0.05    -0.02  -0.13  -0.02
    14   6     0.01  -0.01   0.12     0.00   0.02  -0.06    -0.04  -0.08   0.10
    15   6     0.02  -0.00   0.03     0.01   0.03  -0.09    -0.04  -0.06   0.10
    16   6    -0.01   0.01  -0.01    -0.01  -0.02  -0.03    -0.01   0.01   0.00
    17   6    -0.08   0.02  -0.01    -0.03  -0.11  -0.04    -0.04   0.11   0.02
    18   6     0.01   0.02  -0.08    -0.00  -0.00  -0.04     0.00   0.03  -0.03
    19   6     0.00   0.00  -0.17    -0.01  -0.00  -0.04     0.00   0.02  -0.09
    20   6    -0.01   0.03  -0.14    -0.01  -0.00  -0.02     0.01   0.04  -0.09
    21   6     0.01  -0.01  -0.06    -0.00   0.01  -0.03     0.02   0.02  -0.05
    22   6     0.08  -0.07  -0.06     0.02   0.05  -0.03     0.04  -0.02  -0.05
    23   8     0.00  -0.02  -0.11     0.05   0.02   0.05    -0.06   0.20   0.28
    24   1     0.03  -0.02  -0.08     0.01   0.06   0.28     0.07   0.01   0.17
    25   1     0.00  -0.01   0.05    -0.00   0.01   0.33     0.08  -0.06   0.13
    26   1    -0.09   0.06  -0.02    -0.04  -0.14   0.26     0.09  -0.12   0.13
    27   1     0.08  -0.06   0.09     0.01   0.15   0.06     0.01   0.04   0.01
    28   1    -0.02   0.00   0.23    -0.01  -0.01   0.10     0.02  -0.10   0.00
    29   1    -0.03   0.01   0.26    -0.00  -0.02  -0.12    -0.01  -0.09  -0.13
    30   1    -0.12   0.08   0.19    -0.03  -0.19   0.02     0.02  -0.20  -0.03
    31   1    -0.08   0.05   0.02    -0.04  -0.09  -0.02    -0.02  -0.01  -0.02
    32   1     0.04  -0.04   0.13    -0.02   0.08  -0.16    -0.04  -0.01  -0.03
    33   1    -0.05   0.02   0.13     0.04  -0.03  -0.18    -0.01  -0.01  -0.03
    34   1    -0.02   0.01   0.04     0.01  -0.00  -0.14    -0.04   0.03   0.04
    35   1     0.06  -0.03   0.03    -0.02   0.05  -0.12    -0.04  -0.02   0.01
    36   1    -0.04   0.05  -0.04     0.02  -0.04  -0.07    -0.00   0.06  -0.03
    37   1     0.01   0.00  -0.07    -0.04  -0.03  -0.03    -0.01   0.01  -0.02
    38   1    -0.01   0.01  -0.06     0.01  -0.00   0.19     0.04  -0.02  -0.17
    39   1    -0.04   0.05  -0.05    -0.07  -0.09   0.12     0.14   0.05  -0.10
    40   1     0.08  -0.01   0.00     0.03   0.07   0.06    -0.01  -0.08  -0.07
    41   1    -0.07   0.01   0.12    -0.03  -0.06   0.10     0.03   0.01  -0.10
    42   1     0.03  -0.01   0.13     0.01   0.02   0.17     0.03  -0.10  -0.16
    43   1     0.12  -0.02   0.15     0.05   0.11   0.05    -0.04  -0.21  -0.03
    44   1     0.03  -0.02   0.23     0.01   0.03   0.08    -0.02  -0.13  -0.04
    45   1    -0.05  -0.01   0.13    -0.02  -0.05  -0.07    -0.04   0.00   0.12
    46   1     0.04  -0.01   0.14     0.02   0.06  -0.10    -0.06  -0.14   0.16
    47   1     0.08  -0.01   0.02     0.04   0.11  -0.09    -0.04  -0.15   0.09
    48   1    -0.00   0.00   0.01    -0.00   0.01  -0.17    -0.06  -0.03   0.18
    49   1    -0.10  -0.04   0.03    -0.04  -0.07  -0.02    -0.04   0.04   0.02
    50   1    -0.06   0.05  -0.03    -0.09  -0.18  -0.01     0.03   0.19  -0.03
    51   1    -0.15   0.05  -0.01     0.02  -0.15  -0.11    -0.12   0.17   0.09
    52   1     0.06   0.05  -0.08     0.00   0.01  -0.04     0.03   0.05  -0.03
    53   1    -0.00   0.04  -0.24    -0.01   0.00  -0.05     0.01   0.05  -0.13
    54   1     0.01  -0.08  -0.19     0.00  -0.01  -0.05    -0.00  -0.03  -0.11
    55   1    -0.03   0.09  -0.13    -0.03  -0.02  -0.02     0.02   0.09  -0.09
    56   1    -0.00   0.02  -0.18    -0.01   0.00  -0.00     0.00   0.03  -0.14
    57   1     0.10  -0.09  -0.11     0.02   0.03  -0.04     0.05  -0.01  -0.07
    58   1     0.10  -0.10  -0.00     0.05   0.08  -0.04     0.03  -0.04  -0.03
    59   1     0.10  -0.08  -0.07    -0.01   0.07   0.01     0.07  -0.03  -0.06
                      4                      5                      6
                      A                      A                      A
 Frequencies --     82.6871               105.6068               119.8779
 Red. masses --      3.0072                 3.0458                 3.3387
 Frc consts  --      0.0121                 0.0200                 0.0283
 IR Inten    --      0.2697                 0.5017                 0.8543
  Atom  AN      X      Y      Z        X      Y      Z        X      Y      Z
     1   6    -0.05  -0.00  -0.15     0.16  -0.07  -0.10    -0.08   0.02  -0.01
     2   6     0.01  -0.04   0.02     0.04  -0.09  -0.01    -0.04   0.02  -0.01
     3   6    -0.06   0.06   0.23     0.01  -0.14  -0.00     0.02   0.07  -0.09
     4   6    -0.00  -0.04  -0.04    -0.00   0.02   0.05    -0.01  -0.01   0.05
     5   6    -0.00  -0.03  -0.09    -0.05  -0.00   0.10     0.01  -0.02   0.07
     6   6     0.00   0.00  -0.17    -0.03   0.06  -0.06     0.02  -0.02  -0.01
     7   6     0.01  -0.02  -0.08    -0.01   0.05  -0.02    -0.01  -0.04  -0.01
     8   6    -0.00  -0.01  -0.03    -0.01   0.06  -0.02     0.01  -0.03  -0.06
     9   6     0.00   0.01   0.04     0.02   0.03  -0.02    -0.03   0.00  -0.04
    10   6     0.01  -0.02   0.03     0.02  -0.00   0.01    -0.01   0.00  -0.12
    11   6     0.00  -0.00   0.00     0.01  -0.01   0.02     0.01  -0.00  -0.08
    12   6     0.01   0.01  -0.03     0.00  -0.06   0.06    -0.00   0.02   0.04
    13   6     0.00   0.00  -0.03    -0.01  -0.06   0.05     0.10   0.00   0.16
    14   6     0.02   0.00   0.01    -0.08  -0.06  -0.04     0.04  -0.00   0.06
    15   6     0.01  -0.01   0.02    -0.07   0.01  -0.07     0.06   0.02  -0.10
    16   6     0.01  -0.01   0.01    -0.03   0.00  -0.02     0.02  -0.01  -0.09
    17   6     0.01   0.00   0.01    -0.03  -0.05  -0.03     0.02  -0.03  -0.10
    18   6     0.01  -0.02   0.01    -0.02   0.04  -0.01     0.00  -0.03  -0.07
    19   6     0.01  -0.01   0.06    -0.02   0.05   0.03     0.01  -0.02   0.03
    20   6     0.01  -0.04   0.04    -0.02   0.04   0.06    -0.03  -0.06   0.10
    21   6     0.00  -0.01  -0.02     0.00   0.06   0.04    -0.01  -0.02   0.06
    22   6    -0.00   0.06  -0.01     0.03   0.11   0.05    -0.00   0.04   0.07
    23   8     0.00   0.07   0.13     0.06   0.04  -0.04    -0.10   0.08   0.11
    24   1     0.01  -0.08  -0.29     0.11  -0.07  -0.03    -0.11   0.01   0.02
    25   1    -0.03  -0.01  -0.10     0.16  -0.13  -0.25    -0.10   0.05  -0.04
    26   1    -0.16   0.12  -0.20     0.30   0.00  -0.08    -0.04   0.01   0.00
    27   1     0.13  -0.15   0.04     0.01  -0.16  -0.01    -0.10   0.03  -0.02
    28   1    -0.03   0.01   0.26     0.04  -0.22  -0.05    -0.01   0.09  -0.18
    29   1    -0.04   0.02   0.39    -0.07  -0.16   0.05     0.03   0.07  -0.08
    30   1    -0.18   0.21   0.21     0.03  -0.08  -0.00     0.11   0.09  -0.09
    31   1    -0.02  -0.08  -0.03     0.02   0.07   0.04     0.02   0.01   0.05
    32   1     0.04  -0.00  -0.07     0.05  -0.08   0.19     0.06  -0.04   0.11
    33   1    -0.05  -0.06  -0.09    -0.19   0.00   0.19    -0.05  -0.01   0.11
    34   1    -0.01  -0.04  -0.25    -0.10   0.02  -0.16     0.00  -0.04  -0.06
    35   1     0.02   0.10  -0.19     0.05   0.18  -0.09     0.08   0.02  -0.03
    36   1     0.04  -0.09  -0.08    -0.02   0.01  -0.02    -0.05  -0.08  -0.01
    37   1    -0.05  -0.01  -0.02    -0.01   0.07  -0.02     0.03  -0.04  -0.06
    38   1     0.01  -0.01   0.05     0.05  -0.01   0.04    -0.03  -0.00  -0.16
    39   1     0.01  -0.04   0.03    -0.01  -0.02   0.02     0.02   0.04  -0.12
    40   1    -0.02   0.00   0.01     0.04   0.01   0.01     0.07  -0.03  -0.09
    41   1     0.03   0.01  -0.03    -0.04  -0.10   0.07    -0.10   0.09   0.06
    42   1    -0.01   0.01  -0.04     0.04  -0.07   0.10     0.01   0.01   0.03
    43   1    -0.02  -0.01  -0.03     0.04  -0.02   0.05     0.28  -0.02   0.15
    44   1     0.01   0.01  -0.05    -0.03  -0.11   0.09     0.07   0.00   0.33
    45   1     0.03   0.03   0.01    -0.11  -0.13  -0.05    -0.07  -0.04   0.08
    46   1     0.02  -0.00   0.02    -0.09  -0.04  -0.08     0.10   0.01   0.08
    47   1     0.01  -0.02   0.02    -0.04   0.07  -0.07     0.17   0.08  -0.12
    48   1     0.02  -0.01   0.03    -0.11   0.01  -0.13     0.02   0.00  -0.20
    49   1     0.01   0.07   0.02    -0.04  -0.03  -0.02     0.01   0.08  -0.07
    50   1    -0.04  -0.03   0.01    -0.06  -0.08  -0.01    -0.07  -0.09  -0.09
    51   1     0.07  -0.03   0.01    -0.01  -0.07  -0.07     0.12  -0.08  -0.12
    52   1     0.01  -0.05   0.01    -0.04   0.03  -0.01    -0.04  -0.07  -0.07
    53   1     0.02  -0.03   0.09    -0.03   0.04   0.04    -0.02  -0.05   0.05
    54   1     0.01   0.03   0.07    -0.00   0.07   0.03     0.06   0.03   0.04
    55   1     0.01  -0.10   0.04    -0.05   0.01   0.06    -0.09  -0.13   0.10
    56   1     0.02  -0.03   0.10    -0.01   0.05   0.10    -0.00  -0.05   0.20
    57   1    -0.01   0.06  -0.01     0.04   0.10   0.03    -0.00  -0.01   0.06
    58   1     0.02   0.10  -0.05     0.07   0.14   0.03     0.06   0.09   0.05
    59   1    -0.02   0.08   0.02     0.01   0.14   0.09    -0.06   0.08   0.10
                      7                      8                      9
                      A                      A                      A
 Frequencies --    140.9865               164.5154               185.6823
 Red. masses --      2.1825                 1.4900                 2.8807
 Frc consts  --      0.0256                 0.0238                 0.0585
 IR Inten    --      0.0816                 0.3208                 0.5041
  Atom  AN      X      Y      Z        X      Y      Z        X      Y      Z
     1   6    -0.01   0.01   0.02     0.03   0.00  -0.00     0.18   0.05  -0.01
     2   6    -0.02   0.02   0.00     0.01   0.00   0.00     0.04   0.04   0.00
     3   6     0.03   0.03  -0.07    -0.01  -0.02   0.02    -0.03  -0.06   0.06
     4   6    -0.01   0.02   0.05    -0.01   0.01  -0.01    -0.01   0.09  -0.03
     5   6     0.00  -0.01   0.14    -0.00   0.02  -0.00     0.04   0.09   0.01
     6   6     0.04   0.02  -0.11    -0.01  -0.00   0.05     0.06   0.02   0.03
     7   6     0.01  -0.03  -0.06    -0.01   0.01   0.01     0.01   0.00  -0.02
     8   6    -0.01  -0.03  -0.04    -0.00  -0.00  -0.01    -0.00  -0.06  -0.03
     9   6    -0.00  -0.02   0.02     0.01  -0.01   0.02    -0.04  -0.05  -0.02
    10   6    -0.03  -0.02   0.08    -0.00  -0.03   0.06    -0.04  -0.03  -0.06
    11   6    -0.03  -0.00   0.03    -0.02   0.01  -0.03    -0.04  -0.05  -0.01
    12   6    -0.02   0.03  -0.05    -0.00   0.03  -0.10    -0.04   0.03   0.01
    13   6    -0.04   0.05  -0.08     0.01  -0.03   0.01     0.02   0.08  -0.01
    14   6     0.03   0.04   0.04    -0.00   0.00   0.11     0.08   0.05   0.00
    15   6     0.02  -0.02   0.07     0.02   0.01  -0.02     0.07  -0.05   0.03
    16   6    -0.01  -0.02   0.03    -0.00  -0.00  -0.03    -0.00  -0.07   0.01
    17   6    -0.05   0.01   0.03    -0.01  -0.02  -0.03    -0.01  -0.07   0.01
    18   6     0.00  -0.03  -0.03    -0.01  -0.00  -0.02    -0.01  -0.09   0.00
    19   6    -0.00  -0.04  -0.07    -0.01   0.01   0.01    -0.06  -0.05   0.04
    20   6    -0.03  -0.02  -0.01    -0.00   0.01  -0.01    -0.04   0.01  -0.02
    21   6     0.01  -0.01  -0.00    -0.01   0.01  -0.01    -0.02   0.04  -0.04
    22   6     0.07   0.02   0.01    -0.02  -0.00  -0.01    -0.05   0.06  -0.04
    23   8     0.02  -0.01   0.01     0.05  -0.01  -0.02    -0.10  -0.02   0.05
    24   1    -0.05   0.02   0.07     0.02   0.01   0.01     0.08   0.08   0.15
    25   1    -0.02   0.02  -0.03     0.03  -0.01  -0.02     0.16  -0.01  -0.23
    26   1     0.05  -0.00   0.04     0.05   0.01   0.00     0.43   0.07   0.04
    27   1    -0.07   0.03  -0.01     0.01  -0.00   0.00     0.07   0.03   0.01
    28   1     0.01   0.02  -0.16    -0.00  -0.02   0.06     0.01  -0.03   0.22
    29   1     0.00   0.02  -0.06    -0.01  -0.02  -0.01    -0.01  -0.02  -0.05
    30   1     0.11   0.05  -0.07    -0.04  -0.05   0.02    -0.15  -0.18   0.05
    31   1    -0.01   0.09   0.04    -0.01   0.02  -0.01    -0.03   0.11  -0.03
    32   1     0.17  -0.10   0.28    -0.03   0.03  -0.03     0.03   0.10   0.00
    33   1    -0.19   0.02   0.27     0.04   0.02  -0.02     0.07   0.12   0.01
    34   1    -0.02  -0.05  -0.27     0.01   0.03   0.10     0.09   0.03   0.07
    35   1     0.18   0.18  -0.16    -0.03  -0.06   0.06     0.07  -0.04   0.04
    36   1     0.01  -0.08  -0.06    -0.02   0.04   0.01    -0.00   0.03  -0.02
    37   1    -0.04  -0.04  -0.04    -0.01  -0.02  -0.01     0.00  -0.05  -0.03
    38   1    -0.01  -0.01   0.13     0.01  -0.00   0.14    -0.05  -0.05  -0.10
    39   1    -0.05  -0.08   0.08    -0.02  -0.13   0.06    -0.03   0.02  -0.06
    40   1    -0.07   0.02   0.03    -0.07   0.04  -0.02    -0.03  -0.09  -0.01
    41   1     0.04   0.03  -0.06     0.04   0.15  -0.10    -0.06   0.02   0.01
    42   1    -0.06   0.05  -0.07    -0.04   0.01  -0.21    -0.09   0.07   0.04
    43   1    -0.15   0.01  -0.08     0.03  -0.13  -0.01    -0.00   0.09  -0.00
    44   1    -0.02   0.09  -0.18     0.00  -0.00   0.04     0.02   0.13  -0.02
    45   1     0.08   0.13   0.05    -0.08   0.11   0.15     0.12   0.07  -0.00
    46   1     0.05   0.01   0.08     0.05  -0.06   0.22     0.12   0.07  -0.00
    47   1     0.00  -0.09   0.07     0.10   0.03  -0.04     0.05  -0.09   0.03
    48   1     0.06  -0.02   0.13    -0.02   0.01  -0.07     0.13  -0.07   0.05
    49   1    -0.05   0.08   0.06    -0.02   0.42   0.05    -0.01  -0.19  -0.00
    50   1    -0.12  -0.02   0.01    -0.39  -0.27  -0.03     0.08  -0.01   0.01
    51   1     0.01  -0.02   0.03     0.39  -0.23  -0.11    -0.12  -0.02   0.02
    52   1     0.04  -0.02  -0.02    -0.03  -0.01  -0.02    -0.01  -0.13  -0.01
    53   1    -0.02  -0.01  -0.13    -0.01  -0.01   0.04    -0.07  -0.10   0.11
    54   1     0.03  -0.10  -0.09    -0.01   0.04   0.02    -0.12   0.01   0.06
    55   1    -0.07  -0.04  -0.01     0.02   0.02  -0.01     0.01   0.02  -0.02
    56   1    -0.02  -0.02   0.02    -0.01   0.01  -0.02    -0.08   0.03  -0.05
    57   1     0.08  -0.15  -0.06    -0.03   0.06   0.01    -0.06   0.17   0.00
    58   1     0.26   0.12   0.04    -0.09  -0.04  -0.02    -0.15   0.03  -0.08
    59   1    -0.08   0.13   0.05     0.03  -0.04  -0.03     0.03   0.01  -0.03
                     10                     11                     12
                      A                      A                      A
 Frequencies --    196.0084               204.0264               218.9971
 Red. masses --      2.2410                 2.2146                 2.8273
 Frc consts  --      0.0507                 0.0543                 0.0799
 IR Inten    --      0.5202                 0.0851                 1.5080
  Atom  AN      X      Y      Z        X      Y      Z        X      Y      Z
     1   6    -0.09  -0.02   0.04     0.00  -0.00   0.00    -0.06  -0.03  -0.05
     2   6    -0.06  -0.01  -0.02     0.05  -0.01   0.01    -0.06  -0.03   0.01
     3   6    -0.07  -0.03  -0.02     0.10   0.06  -0.01    -0.05  -0.04  -0.02
     4   6    -0.05   0.01  -0.02     0.05  -0.03   0.01    -0.04  -0.02   0.04
     5   6    -0.05  -0.03   0.14     0.05  -0.02  -0.01    -0.04   0.01  -0.05
     6   6    -0.02   0.00   0.00     0.03  -0.04   0.05    -0.05  -0.02   0.10
     7   6    -0.02   0.02  -0.05     0.02  -0.01  -0.04    -0.03   0.02   0.02
     8   6     0.00   0.02  -0.05     0.01   0.01  -0.09     0.01   0.01  -0.08
     9   6     0.03   0.02  -0.03    -0.01   0.04  -0.07     0.05   0.01  -0.03
    10   6     0.03  -0.01  -0.01    -0.04   0.02  -0.01     0.04  -0.04   0.03
    11   6     0.04  -0.02   0.01    -0.04  -0.01   0.04     0.04  -0.02   0.01
    12   6     0.04  -0.01   0.02    -0.05  -0.02   0.05     0.04  -0.01   0.01
    13   6     0.05   0.01  -0.02    -0.08   0.02  -0.03     0.04   0.04  -0.07
    14   6     0.05   0.00  -0.03    -0.04   0.01  -0.03     0.10   0.04   0.03
    15   6     0.04  -0.01   0.01    -0.04  -0.01   0.02     0.08  -0.04   0.05
    16   6     0.03  -0.01   0.03    -0.04  -0.01   0.02     0.01  -0.02  -0.03
    17   6     0.05  -0.02   0.02    -0.10  -0.03   0.02    -0.10  -0.00  -0.02
    18   6     0.02  -0.01   0.03    -0.01  -0.02  -0.02     0.01   0.01  -0.10
    19   6    -0.02   0.02   0.11     0.00  -0.01   0.06    -0.01   0.02  -0.08
    20   6     0.02   0.02  -0.04     0.03  -0.03   0.01    -0.06  -0.00   0.08
    21   6    -0.02   0.01  -0.07     0.05  -0.02  -0.01    -0.03   0.01   0.07
    22   6    -0.05  -0.00  -0.07     0.10   0.00   0.00    -0.02   0.08   0.08
    23   8     0.06   0.05  -0.00    -0.02   0.08  -0.00     0.12   0.06  -0.00
    24   1    -0.02   0.01  -0.03    -0.02  -0.03   0.00    -0.10  -0.06  -0.03
    25   1    -0.07  -0.00   0.19    -0.01   0.02  -0.00    -0.07  -0.02  -0.13
    26   1    -0.23  -0.07   0.02     0.00  -0.01   0.00     0.01   0.02  -0.04
    27   1    -0.05   0.02  -0.02     0.04  -0.01   0.01    -0.09  -0.06   0.01
    28   1    -0.07  -0.01   0.03     0.07   0.06  -0.12    -0.06  -0.03  -0.00
    29   1    -0.06  -0.01  -0.08     0.10   0.04   0.07    -0.05  -0.03  -0.05
    30   1    -0.10  -0.10  -0.02     0.18   0.16  -0.01    -0.05  -0.08  -0.02
    31   1    -0.08   0.11  -0.03     0.04  -0.04   0.01    -0.01  -0.07   0.04
    32   1     0.07  -0.16   0.25    -0.00   0.01  -0.05    -0.15   0.10  -0.15
    33   1    -0.19   0.05   0.27     0.10  -0.03  -0.05     0.10  -0.03  -0.15
    34   1    -0.09   0.00  -0.03     0.04   0.01   0.15    -0.02   0.05   0.23
    35   1     0.06   0.02  -0.01     0.02  -0.17   0.08    -0.12  -0.16   0.13
    36   1    -0.02   0.04  -0.05    -0.04   0.02  -0.05    -0.11   0.03   0.01
    37   1    -0.01   0.06  -0.04     0.02   0.06  -0.09     0.05  -0.03  -0.08
    38   1     0.04  -0.02  -0.01     0.01  -0.00   0.00     0.07  -0.03   0.09
    39   1     0.00  -0.01  -0.01    -0.09   0.03  -0.01    -0.00  -0.08   0.04
    40   1     0.04  -0.04   0.01    -0.01  -0.02   0.03     0.05   0.01   0.01
    41   1     0.04  -0.04   0.01    -0.05  -0.10   0.05     0.05  -0.09   0.01
    42   1     0.03   0.00   0.04    -0.04   0.00   0.12     0.02   0.02   0.07
    43   1     0.04   0.03  -0.01    -0.15   0.07  -0.02    -0.07   0.04  -0.06
    44   1     0.05   0.01  -0.02    -0.06   0.03  -0.11     0.06   0.07  -0.16
    45   1     0.08  -0.02  -0.04    -0.01   0.01  -0.03     0.14   0.12   0.04
    46   1     0.04   0.01  -0.06    -0.05   0.02  -0.04     0.11   0.01   0.08
    47   1     0.02  -0.01   0.02    -0.07  -0.02   0.02     0.07  -0.14   0.04
    48   1     0.06  -0.02   0.02    -0.02  -0.01   0.04     0.13  -0.04   0.13
    49   1     0.05  -0.00   0.02    -0.12   0.14   0.09    -0.11  -0.20   0.01
    50   1     0.04  -0.03   0.03    -0.28  -0.14   0.01     0.04   0.11  -0.05
    51   1     0.07  -0.03   0.02     0.05  -0.12  -0.04    -0.29   0.09  -0.01
    52   1     0.02  -0.08   0.02    -0.00  -0.09  -0.03     0.03   0.01  -0.10
    53   1     0.02  -0.05   0.25     0.03  -0.05   0.13    -0.05   0.02  -0.12
    54   1    -0.12   0.15   0.15    -0.02   0.07   0.08     0.08   0.00  -0.08
    55   1     0.14   0.04  -0.05     0.05  -0.06   0.01    -0.18  -0.07   0.08
    56   1    -0.00   0.02  -0.11     0.01  -0.02   0.03    -0.02  -0.00   0.19
    57   1    -0.06   0.28   0.00     0.12   0.35   0.03    -0.01   0.15   0.08
    58   1    -0.32  -0.14  -0.12    -0.19  -0.15  -0.04    -0.07   0.06   0.04
    59   1     0.19  -0.16  -0.10     0.40  -0.18   0.03     0.03   0.05   0.12
                     13                     14                     15
                      A                      A                      A
 Frequencies --    235.4328               239.1866               254.9435
 Red. masses --      1.1959                 1.4664                 1.3756
 Frc consts  --      0.0391                 0.0494                 0.0527
 IR Inten    --      0.0070                 0.2330                 0.0928
  Atom  AN      X      Y      Z        X      Y      Z        X      Y      Z
     1   6     0.02  -0.01   0.03    -0.00   0.00  -0.00    -0.00   0.01   0.00
     2   6     0.01  -0.01   0.01     0.01   0.00   0.00    -0.05   0.00   0.03
     3   6     0.03   0.01  -0.01     0.02   0.02   0.01    -0.02   0.04   0.00
     4   6    -0.00   0.00   0.01     0.01  -0.01   0.00    -0.03  -0.02   0.04
     5   6    -0.02   0.01  -0.02     0.02  -0.01   0.02    -0.04  -0.00  -0.04
     6   6    -0.02   0.02  -0.02     0.03  -0.02  -0.02    -0.04   0.02  -0.06
     7   6    -0.01   0.02   0.01     0.01  -0.02  -0.02    -0.02  -0.00   0.01
     8   6    -0.01  -0.01   0.02    -0.00  -0.02  -0.01    -0.01   0.01   0.02
     9   6    -0.00  -0.02   0.02     0.01  -0.01   0.04     0.00   0.00  -0.00
    10   6    -0.01  -0.02   0.01    -0.01  -0.01   0.09     0.01  -0.00  -0.02
    11   6    -0.01  -0.01  -0.02    -0.03   0.04  -0.02     0.02  -0.01   0.01
    12   6    -0.01   0.02  -0.04    -0.02   0.03  -0.05     0.03  -0.01   0.01
    13   6     0.02   0.01   0.01    -0.01  -0.02   0.04     0.03  -0.00  -0.01
    14   6     0.02   0.01   0.03    -0.04  -0.01   0.04     0.02  -0.00  -0.02
    15   6     0.02  -0.01  -0.01    -0.02   0.02  -0.03     0.01   0.00   0.01
    16   6    -0.00  -0.02  -0.01    -0.01   0.03  -0.04     0.02  -0.00   0.02
    17   6     0.01  -0.03  -0.01     0.01   0.06  -0.04     0.04  -0.01   0.02
    18   6    -0.01  -0.01   0.00    -0.01  -0.00  -0.02     0.01   0.01   0.02
    19   6    -0.02   0.00  -0.00    -0.00  -0.01   0.02    -0.01   0.01  -0.03
    20   6    -0.01   0.03  -0.02    -0.00  -0.03   0.01    -0.01   0.02  -0.03
    21   6    -0.00   0.02   0.00     0.01  -0.02  -0.01    -0.02  -0.01   0.02
    22   6     0.00   0.02   0.01     0.01  -0.00  -0.00     0.03  -0.06   0.02
    23   8    -0.00  -0.02   0.00     0.04  -0.02   0.00    -0.00   0.00  -0.00
    24   1     0.13   0.03  -0.07    -0.11  -0.03   0.11    -0.29  -0.04   0.32
    25   1     0.07  -0.05   0.19    -0.05   0.04  -0.16    -0.11   0.04  -0.45
    26   1    -0.13  -0.03  -0.00     0.16   0.00   0.03     0.47   0.03   0.10
    27   1    -0.01  -0.01   0.01     0.01   0.00   0.00    -0.08  -0.01   0.03
    28   1     0.06  -0.26  -0.40    -0.01   0.14   0.14    -0.03   0.01  -0.09
    29   1    -0.21  -0.11   0.36     0.12   0.07  -0.12    -0.04   0.02   0.07
    30   1     0.27   0.44  -0.01    -0.06  -0.13   0.01     0.05   0.12   0.00
    31   1    -0.01  -0.01   0.01     0.00   0.00  -0.00    -0.04  -0.06   0.04
    32   1    -0.02   0.02  -0.02     0.05  -0.03   0.05    -0.03   0.05  -0.05
    33   1    -0.02  -0.01  -0.03    -0.01  -0.00   0.05    -0.04  -0.05  -0.07
    34   1    -0.02   0.01  -0.03     0.02  -0.02  -0.04    -0.04  -0.01  -0.11
    35   1    -0.04   0.04  -0.02     0.06  -0.01  -0.03    -0.05   0.08  -0.07
    36   1     0.00   0.01   0.01     0.01  -0.03  -0.02    -0.00  -0.04   0.01
    37   1    -0.00  -0.02   0.02    -0.01  -0.05  -0.01    -0.01   0.03   0.02
    38   1    -0.01  -0.02   0.02    -0.01   0.02   0.16     0.00  -0.01  -0.05
    39   1     0.00  -0.04   0.01    -0.02  -0.10   0.08     0.02   0.03  -0.02
    40   1    -0.04  -0.00  -0.01    -0.06   0.10  -0.02     0.03  -0.03   0.01
    41   1    -0.00   0.07  -0.03    -0.02   0.10  -0.04     0.03  -0.02   0.01
    42   1    -0.03   0.02  -0.08    -0.02  -0.00  -0.11     0.02  -0.00   0.01
    43   1     0.04  -0.03   0.01     0.05  -0.07   0.03     0.03   0.01  -0.00
    44   1     0.01   0.02   0.04    -0.03  -0.02   0.10     0.03  -0.01  -0.00
    45   1     0.00   0.03   0.04    -0.09  -0.00   0.05     0.04  -0.03  -0.03
    46   1     0.04  -0.00   0.06    -0.02  -0.02   0.06     0.00   0.01  -0.05
    47   1     0.04  -0.01  -0.01     0.02   0.05  -0.04    -0.01   0.00   0.02
    48   1     0.02  -0.02  -0.02    -0.06   0.03  -0.06     0.02  -0.00   0.02
    49   1     0.02  -0.18  -0.05     0.02  -0.26  -0.11     0.05   0.12   0.03
    50   1     0.14   0.04   0.00     0.30   0.25  -0.04    -0.06  -0.08   0.03
    51   1    -0.12   0.03  -0.00    -0.28   0.22   0.04     0.16  -0.07   0.01
    52   1    -0.02  -0.00   0.00    -0.04  -0.01  -0.02     0.02   0.03   0.03
    53   1    -0.02  -0.01   0.00     0.00  -0.03   0.05    -0.01   0.03  -0.07
    54   1    -0.04  -0.00  -0.00    -0.01   0.03   0.03    -0.01  -0.04  -0.04
    55   1     0.01   0.07  -0.02    -0.01  -0.06   0.01    -0.01   0.08  -0.02
    56   1    -0.02   0.03  -0.06    -0.01  -0.02   0.04    -0.02   0.02  -0.07
    57   1     0.01   0.18   0.03     0.02   0.29   0.04     0.05   0.12   0.02
    58   1    -0.14  -0.05  -0.02    -0.24  -0.14  -0.05    -0.13  -0.16   0.03
    59   1     0.14  -0.07   0.01     0.26  -0.16  -0.00     0.20  -0.17  -0.00
                     16                     17                     18
                      A                      A                      A
 Frequencies --    258.1891               268.3114               279.4117
 Red. masses --      2.0361                 1.6963                 2.4592
 Frc consts  --      0.0800                 0.0719                 0.1131
 IR Inten    --      0.3303                 1.0627                 0.0086
  Atom  AN      X      Y      Z        X      Y      Z        X      Y      Z
     1   6    -0.08  -0.02  -0.05     0.02   0.02  -0.01    -0.03  -0.01  -0.01
     2   6     0.01  -0.03  -0.01     0.00   0.02  -0.01    -0.04  -0.00  -0.01
     3   6     0.02  -0.02  -0.02    -0.02  -0.03  -0.01    -0.05  -0.01  -0.01
     4   6     0.02  -0.02   0.02     0.00   0.02   0.00    -0.03   0.00  -0.01
     5   6    -0.03  -0.01  -0.02     0.02   0.02   0.01    -0.02   0.01   0.00
     6   6    -0.04   0.04  -0.02     0.03   0.01  -0.04    -0.02  -0.04   0.10
     7   6     0.00   0.05   0.03     0.01  -0.02   0.02    -0.02   0.02  -0.07
     8   6    -0.00   0.02   0.06     0.00  -0.04   0.03    -0.02  -0.04  -0.04
     9   6    -0.02  -0.00   0.01    -0.01  -0.04   0.04    -0.02  -0.05   0.02
    10   6    -0.01  -0.00  -0.03     0.01   0.01  -0.00    -0.03  -0.03   0.06
    11   6    -0.03  -0.03   0.00     0.04   0.02   0.00    -0.00   0.01   0.00
    12   6    -0.02   0.03  -0.04     0.04  -0.03   0.05    -0.00  -0.00   0.02
    13   6     0.00   0.01   0.01     0.00  -0.01  -0.02     0.02  -0.01   0.04
    14   6     0.02   0.01   0.03    -0.00  -0.01  -0.03    -0.01  -0.04  -0.07
    15   6     0.01  -0.01  -0.00    -0.00   0.00   0.01    -0.02  -0.01   0.01
    16   6     0.00  -0.04   0.03     0.01   0.03  -0.01     0.02   0.01   0.01
    17   6     0.03  -0.12   0.01    -0.02   0.09  -0.00     0.12   0.12   0.02
    18   6    -0.00   0.00   0.05     0.02   0.01  -0.04     0.00  -0.04   0.01
    19   6    -0.01  -0.00  -0.04     0.02  -0.00  -0.09    -0.00  -0.05  -0.01
    20   6     0.00   0.06  -0.03    -0.02  -0.00   0.03    -0.01  -0.01  -0.02
    21   6     0.03   0.04   0.03    -0.01   0.00   0.03     0.01   0.02  -0.06
    22   6     0.14   0.07   0.04    -0.05   0.03   0.04     0.14   0.16  -0.04
    23   8    -0.05  -0.03  -0.00    -0.06  -0.08   0.02    -0.02  -0.05   0.02
    24   1    -0.01  -0.08  -0.18     0.17   0.06  -0.16    -0.07  -0.01   0.05
    25   1    -0.07   0.02   0.08     0.09  -0.03   0.19    -0.05   0.00  -0.08
    26   1    -0.26   0.01  -0.09    -0.19   0.03  -0.06     0.05  -0.01   0.01
    27   1     0.01  -0.04  -0.01     0.00   0.01  -0.01    -0.04  -0.01  -0.01
    28   1    -0.02   0.18   0.22    -0.01  -0.03   0.04    -0.03  -0.10  -0.11
    29   1     0.19   0.07  -0.30    -0.03  -0.02  -0.06    -0.13  -0.05   0.08
    30   1    -0.10  -0.33  -0.02    -0.05  -0.09  -0.01     0.01   0.10  -0.01
    31   1     0.05  -0.03   0.02     0.02   0.03   0.00    -0.06   0.01  -0.01
    32   1    -0.04   0.00  -0.04     0.05   0.01   0.04    -0.08   0.03  -0.05
    33   1    -0.03  -0.04  -0.05    -0.02   0.02   0.03     0.07   0.03  -0.03
    34   1    -0.06   0.03  -0.05     0.04  -0.03  -0.11    -0.02   0.05   0.26
    35   1    -0.07   0.09  -0.02     0.05   0.08  -0.06    -0.03  -0.22   0.14
    36   1     0.03   0.05   0.03     0.03  -0.06   0.02    -0.03   0.11  -0.06
    37   1     0.01   0.04   0.05     0.00  -0.09   0.02    -0.06  -0.04  -0.04
    38   1    -0.01  -0.02  -0.07    -0.04   0.02  -0.04    -0.04   0.00   0.12
    39   1     0.01   0.03  -0.03     0.04   0.04  -0.00    -0.06  -0.09   0.06
    40   1    -0.06  -0.06   0.00     0.08   0.03   0.00     0.00   0.04   0.00
    41   1     0.00   0.09  -0.04     0.01  -0.12   0.05    -0.01   0.02   0.02
    42   1    -0.06   0.02  -0.11     0.08  -0.02   0.12     0.01  -0.01   0.01
    43   1     0.02  -0.03   0.00    -0.04   0.03  -0.01     0.10   0.02   0.04
    44   1     0.00   0.03   0.03     0.01  -0.03  -0.06    -0.00  -0.04   0.12
    45   1     0.00   0.04   0.04     0.02  -0.03  -0.04     0.03  -0.16  -0.10
    46   1     0.04   0.00   0.06    -0.03  -0.01  -0.06    -0.05   0.02  -0.17
    47   1     0.04   0.01  -0.00    -0.03  -0.02   0.01    -0.07  -0.02   0.02
    48   1     0.02  -0.03  -0.03    -0.01   0.02   0.05    -0.01   0.00   0.05
    49   1     0.04  -0.18  -0.02    -0.04   0.30   0.05     0.15   0.26  -0.04
    50   1     0.08  -0.13   0.07    -0.20   0.01  -0.05     0.08   0.11  -0.01
    51   1     0.00  -0.12  -0.04     0.14   0.01   0.01     0.24   0.10   0.13
    52   1     0.01   0.04   0.05     0.02   0.07  -0.03     0.02  -0.06   0.00
    53   1    -0.02   0.04  -0.11    -0.02   0.03  -0.17    -0.02  -0.04  -0.03
    54   1    -0.02  -0.09  -0.06     0.09  -0.07  -0.10     0.00  -0.08  -0.01
    55   1     0.01   0.14  -0.02    -0.10  -0.02   0.03     0.01  -0.04  -0.02
    56   1    -0.04   0.07  -0.09     0.02  -0.01   0.08    -0.04   0.01   0.00
    57   1     0.19   0.25  -0.01    -0.05   0.40   0.12     0.18   0.14  -0.13
    58   1     0.04   0.01   0.03    -0.38  -0.12  -0.05     0.24   0.23  -0.06
    59   1     0.31  -0.01   0.12     0.26  -0.16   0.04     0.10   0.21   0.11
                     19                     20                     21
                      A                      A                      A
 Frequencies --    293.2114               305.0189               316.0110
 Red. masses --      2.5002                 2.6219                 2.5203
 Frc consts  --      0.1266                 0.1437                 0.1483
 IR Inten    --      0.3904                 0.5727                 0.5932
  Atom  AN      X      Y      Z        X      Y      Z        X      Y      Z
     1   6    -0.06  -0.09   0.05    -0.01  -0.03  -0.01     0.02  -0.03   0.01
     2   6     0.07  -0.06  -0.02     0.04  -0.03   0.02     0.06  -0.03   0.00
     3   6     0.11   0.07   0.05     0.08   0.01   0.00     0.09   0.04   0.02
     4   6     0.04  -0.04  -0.07     0.02  -0.01   0.02     0.03  -0.01  -0.01
     5   6    -0.03  -0.07   0.04    -0.02   0.01  -0.02     0.00  -0.02   0.02
     6   6    -0.05   0.00   0.04    -0.03   0.05  -0.03     0.00  -0.01   0.01
     7   6     0.01   0.04   0.01    -0.01   0.03   0.03    -0.01  -0.01   0.00
     8   6     0.00  -0.01   0.05    -0.01  -0.01   0.03    -0.00   0.03  -0.03
     9   6    -0.00  -0.03   0.04     0.04  -0.04   0.04    -0.01   0.05  -0.05
    10   6     0.02   0.01  -0.02     0.03  -0.08  -0.02    -0.04  -0.03   0.01
    11   6     0.03   0.01  -0.00    -0.03  -0.06  -0.08    -0.05  -0.03  -0.01
    12   6     0.03  -0.02   0.01    -0.05   0.01   0.00    -0.07   0.05  -0.01
    13   6     0.01  -0.01  -0.03     0.08   0.07   0.05    -0.01   0.03   0.07
    14   6     0.02   0.01   0.02     0.03   0.04  -0.10    -0.01  -0.02  -0.05
    15   6     0.02   0.01  -0.01     0.00  -0.03   0.00    -0.03  -0.07   0.06
    16   6     0.00   0.01  -0.02    -0.04  -0.02  -0.03    -0.00  -0.04   0.04
    17   6    -0.07  -0.01  -0.02    -0.11   0.14  -0.01     0.15  -0.02   0.04
    18   6     0.00   0.02  -0.02    -0.06  -0.04   0.01     0.00   0.01  -0.00
    19   6     0.01   0.01  -0.02    -0.07  -0.03   0.06    -0.00  -0.01  -0.13
    20   6     0.02   0.02  -0.02    -0.02   0.04  -0.04    -0.05  -0.01   0.02
    21   6     0.02   0.03  -0.05     0.01   0.02   0.02    -0.01  -0.00   0.02
    22   6    -0.10   0.15  -0.05     0.03  -0.06   0.01    -0.14   0.02   0.01
    23   8    -0.05  -0.08   0.01     0.10  -0.03   0.03     0.06   0.09  -0.03
    24   1    -0.29  -0.17   0.27     0.01  -0.07  -0.08     0.03  -0.04  -0.01
    25   1    -0.18   0.07  -0.16    -0.02   0.01   0.05     0.02  -0.00   0.07
    26   1     0.17  -0.20   0.12    -0.10  -0.01  -0.04    -0.04  -0.06   0.00
    27   1     0.12  -0.04  -0.02     0.04  -0.04   0.02     0.08  -0.02   0.00
    28   1     0.06   0.16   0.04     0.04   0.10   0.05     0.05   0.13   0.06
    29   1     0.23   0.07   0.12     0.16   0.04  -0.08     0.19   0.05  -0.01
    30   1     0.08   0.14   0.04     0.07  -0.08   0.01     0.06  -0.00   0.02
    31   1     0.02   0.01  -0.07     0.03  -0.02   0.02     0.03   0.00  -0.01
    32   1    -0.00  -0.19   0.08    -0.02   0.02  -0.02     0.02  -0.05   0.03
    33   1    -0.09  -0.02   0.11    -0.03  -0.03  -0.04    -0.02  -0.00   0.04
    34   1    -0.10   0.02   0.04    -0.03   0.02  -0.08    -0.00  -0.01  -0.00
    35   1    -0.05   0.01   0.04    -0.05   0.11  -0.04     0.01  -0.00   0.00
    36   1     0.05   0.10   0.01     0.00   0.02   0.03    -0.03  -0.03   0.00
    37   1    -0.01  -0.06   0.04    -0.02  -0.02   0.03     0.02   0.06  -0.03
    38   1    -0.02   0.01  -0.08     0.03  -0.08  -0.02     0.03  -0.04   0.07
    39   1     0.08   0.06  -0.02     0.11  -0.12  -0.03    -0.09  -0.09   0.01
    40   1     0.04   0.01  -0.00    -0.02  -0.05  -0.08    -0.08  -0.05  -0.00
    41   1     0.03  -0.08   0.01    -0.14   0.02   0.02    -0.06   0.17  -0.01
    42   1     0.05  -0.01   0.05    -0.09   0.05   0.05    -0.11   0.03  -0.10
    43   1    -0.05  -0.01  -0.03     0.27   0.12   0.04     0.11   0.05   0.06
    44   1     0.02  -0.01  -0.09     0.04   0.06   0.23    -0.04   0.03   0.18
    45   1     0.00   0.07   0.04     0.07  -0.07  -0.13     0.06  -0.16  -0.10
    46   1     0.02  -0.03   0.07     0.02   0.11  -0.20    -0.02   0.07  -0.18
    47   1     0.04   0.01  -0.01    -0.09  -0.09   0.02    -0.12  -0.16   0.07
    48   1     0.01   0.01  -0.02     0.09  -0.05   0.08     0.03  -0.05   0.17
    49   1    -0.09  -0.00   0.04    -0.14   0.30   0.08     0.19   0.07  -0.09
    50   1    -0.11  -0.02  -0.04    -0.24   0.15  -0.13     0.14  -0.07   0.09
    51   1    -0.08  -0.01  -0.06    -0.03   0.13   0.07     0.26  -0.06   0.08
    52   1    -0.02   0.05  -0.01    -0.12  -0.06   0.01     0.08   0.04   0.00
    53   1     0.01   0.01  -0.01    -0.06  -0.06   0.13    -0.03   0.07  -0.28
    54   1     0.00   0.02  -0.02    -0.13   0.03   0.08     0.09  -0.16  -0.16
    55   1     0.02   0.02  -0.02     0.07   0.14  -0.03    -0.16  -0.04   0.02
    56   1    -0.01   0.04  -0.01    -0.09   0.06  -0.15    -0.01  -0.01   0.09
    57   1    -0.15   0.13   0.04     0.03  -0.13  -0.01    -0.18   0.07   0.11
    58   1    -0.09   0.22  -0.17     0.08  -0.06   0.07    -0.24   0.00  -0.06
    59   1    -0.18   0.20  -0.02    -0.01  -0.04  -0.03    -0.12  -0.00  -0.03
                     22                     23                     24
                      A                      A                      A
 Frequencies --    327.0394               347.4957               355.5238
 Red. masses --      2.3940                 2.6218                 2.5856
 Frc consts  --      0.1509                 0.1865                 0.1926
 IR Inten    --      0.0796                 0.0413                 0.0810
  Atom  AN      X      Y      Z        X      Y      Z        X      Y      Z
     1   6     0.03   0.00  -0.01     0.11   0.05   0.01    -0.08  -0.05  -0.04
     2   6     0.02  -0.01   0.04    -0.00   0.03   0.02     0.00  -0.06   0.10
     3   6     0.08   0.04  -0.00     0.05   0.09  -0.00     0.08  -0.07  -0.01
     4   6    -0.00  -0.01   0.03    -0.02  -0.02   0.01    -0.01   0.00   0.10
     5   6    -0.05   0.00  -0.02    -0.08  -0.04  -0.00     0.07   0.06  -0.01
     6   6    -0.06   0.04  -0.02    -0.10  -0.02   0.00     0.10   0.00  -0.01
     7   6    -0.04   0.03   0.01    -0.07  -0.00  -0.03     0.02  -0.03  -0.03
     8   6    -0.02  -0.01  -0.05    -0.05   0.01  -0.04     0.02  -0.04  -0.09
     9   6    -0.05  -0.01  -0.02    -0.06  -0.01  -0.02    -0.01  -0.01  -0.05
    10   6    -0.07  -0.03   0.07    -0.05  -0.02   0.06    -0.01   0.04   0.04
    11   6     0.01   0.02  -0.01     0.03   0.00   0.04     0.02   0.03   0.06
    12   6    -0.00  -0.06   0.09     0.08   0.00  -0.09     0.05   0.00  -0.04
    13   6    -0.06  -0.02  -0.03     0.12  -0.07  -0.00     0.03  -0.05  -0.02
    14   6     0.04  -0.04   0.06     0.05  -0.05  -0.07    -0.01  -0.02  -0.02
    15   6     0.04  -0.08   0.02     0.03   0.02   0.02     0.01   0.07  -0.03
    16   6     0.03  -0.00  -0.09     0.03   0.01   0.05     0.02   0.01   0.06
    17   6     0.12   0.05  -0.09    -0.10  -0.02   0.06    -0.01   0.02   0.06
    18   6     0.01  -0.00  -0.06     0.02   0.03  -0.01     0.02  -0.05  -0.01
    19   6     0.00   0.04   0.05     0.04   0.03   0.01    -0.06  -0.01   0.00
    20   6     0.03   0.07  -0.02     0.03  -0.01   0.02    -0.03   0.08  -0.08
    21   6    -0.00   0.02   0.02    -0.02  -0.02  -0.00    -0.01   0.02   0.03
    22   6    -0.01  -0.05   0.02     0.00  -0.01   0.00    -0.09   0.02   0.03
    23   8    -0.06  -0.00  -0.01    -0.07  -0.01  -0.01    -0.05   0.01   0.01
    24   1     0.08  -0.00  -0.08     0.26   0.16  -0.08    -0.12  -0.20  -0.12
    25   1     0.05  -0.02   0.03     0.20  -0.09   0.11    -0.12   0.01  -0.10
    26   1    -0.03   0.05  -0.03     0.03   0.11  -0.02    -0.11   0.06  -0.07
    27   1     0.01  -0.02   0.04    -0.01   0.03   0.02    -0.06  -0.12   0.09
    28   1     0.02   0.16   0.04    -0.01   0.23   0.06     0.03  -0.04  -0.09
    29   1     0.18   0.07  -0.10     0.18   0.13  -0.10     0.07  -0.05  -0.08
    30   1     0.08  -0.07   0.00     0.02  -0.02  -0.00     0.20  -0.12   0.00
    31   1    -0.00  -0.03   0.04    -0.03  -0.03   0.01    -0.06  -0.03   0.10
    32   1    -0.06   0.02  -0.03    -0.09  -0.06  -0.00     0.03   0.22  -0.06
    33   1    -0.05  -0.04  -0.04    -0.09  -0.05  -0.00     0.16   0.01  -0.10
    34   1    -0.07   0.03  -0.05    -0.12   0.00   0.03     0.12   0.00   0.01
    35   1    -0.07   0.08  -0.03    -0.09  -0.05   0.01     0.12  -0.04  -0.01
    36   1    -0.08   0.01   0.00    -0.10   0.00  -0.03    -0.05  -0.06  -0.04
    37   1     0.00  -0.04  -0.05    -0.07   0.01  -0.04     0.02  -0.03  -0.09
    38   1    -0.04   0.01   0.21    -0.04   0.02   0.16    -0.01   0.05   0.06
    39   1    -0.17  -0.15   0.07    -0.14  -0.08   0.07    -0.09   0.06   0.04
    40   1     0.08   0.11  -0.01    -0.03  -0.01   0.05    -0.01   0.03   0.07
    41   1    -0.06  -0.21   0.09     0.17   0.12  -0.10     0.14   0.06  -0.05
    42   1     0.08  -0.04   0.24     0.04  -0.03  -0.24     0.04  -0.02  -0.13
    43   1    -0.25   0.00  -0.01     0.28  -0.09  -0.02     0.04  -0.07  -0.02
    44   1    -0.02   0.03  -0.21     0.09  -0.09   0.15     0.02  -0.06  -0.00
    45   1     0.05   0.04   0.08     0.09  -0.16  -0.11    -0.03  -0.05  -0.02
    46   1     0.08  -0.06   0.11    -0.04  -0.02  -0.17    -0.05  -0.03  -0.03
    47   1     0.07  -0.20  -0.00    -0.02   0.06   0.03     0.05   0.23  -0.02
    48   1     0.03  -0.04   0.12     0.03   0.02   0.00    -0.06   0.06  -0.17
    49   1     0.14   0.07  -0.17    -0.12  -0.10   0.13    -0.01   0.01   0.08
    50   1     0.15   0.06  -0.08    -0.09  -0.01   0.04     0.00   0.05   0.04
    51   1     0.15   0.05  -0.03    -0.18  -0.00   0.00    -0.04   0.04   0.07
    52   1    -0.02  -0.05  -0.06     0.06   0.01  -0.01     0.08  -0.11  -0.02
    53   1    -0.01  -0.04   0.17     0.05   0.02   0.03    -0.09  -0.07   0.07
    54   1    -0.04   0.17   0.09     0.05   0.07   0.01    -0.15   0.04   0.02
    55   1     0.11   0.16  -0.02     0.02  -0.04   0.02     0.04   0.26  -0.06
    56   1     0.01   0.05  -0.14     0.08  -0.03   0.05    -0.08   0.06  -0.27
    57   1    -0.01  -0.14   0.01     0.01  -0.01  -0.01    -0.14  -0.05   0.11
    58   1     0.05  -0.04   0.06     0.02   0.00   0.01    -0.07   0.06  -0.02
    59   1    -0.07  -0.02  -0.03    -0.00   0.00   0.02    -0.18   0.06  -0.01
                     25                     26                     27
                      A                      A                      A
 Frequencies --    365.2364               391.0159               401.3780
 Red. masses --      2.3574                 2.3924                 2.3774
 Frc consts  --      0.1853                 0.2155                 0.2257
 IR Inten    --      1.4025                 0.3296                 0.2227
  Atom  AN      X      Y      Z        X      Y      Z        X      Y      Z
     1   6     0.09   0.01  -0.00    -0.07  -0.05   0.01    -0.01   0.02  -0.03
     2   6     0.02  -0.00   0.02     0.09  -0.01  -0.04    -0.02  -0.02   0.14
     3   6     0.07   0.06   0.00     0.04  -0.05   0.02     0.09  -0.03  -0.01
     4   6    -0.03  -0.00   0.01     0.03   0.07  -0.05    -0.06   0.01   0.07
     5   6    -0.06  -0.01  -0.00    -0.01   0.08  -0.00    -0.01   0.04   0.01
     6   6    -0.07  -0.02   0.00    -0.01   0.09   0.01     0.00  -0.02  -0.01
     7   6    -0.04  -0.00  -0.03     0.00   0.07  -0.01    -0.00   0.01  -0.08
     8   6    -0.04  -0.01  -0.01    -0.01   0.02  -0.02    -0.02   0.00   0.02
     9   6     0.03  -0.03  -0.02    -0.02   0.02  -0.02     0.02  -0.03   0.07
    10   6     0.05  -0.01  -0.05    -0.03   0.02   0.04     0.05   0.02  -0.04
    11   6     0.02  -0.02   0.03     0.00   0.01   0.03     0.04   0.02  -0.02
    12   6     0.04  -0.04   0.04     0.03  -0.03  -0.02     0.04   0.05   0.01
    13   6    -0.00   0.01  -0.05     0.05  -0.04  -0.02    -0.00   0.03   0.02
    14   6    -0.02   0.06   0.06     0.05  -0.03  -0.01    -0.04   0.04   0.00
    15   6     0.01   0.10  -0.08     0.04   0.01  -0.00    -0.06  -0.03   0.07
    16   6    -0.02  -0.00   0.04     0.00  -0.00   0.01    -0.01   0.03  -0.02
    17   6     0.07   0.04   0.04     0.01   0.01   0.02     0.02  -0.07  -0.04
    18   6    -0.05  -0.05   0.05    -0.03  -0.01  -0.00    -0.01   0.06  -0.02
    19   6    -0.08  -0.08  -0.02    -0.04  -0.02   0.00    -0.01   0.06   0.01
    20   6    -0.09  -0.05  -0.00    -0.09  -0.04   0.11    -0.03  -0.06   0.02
    21   6    -0.04  -0.01  -0.02     0.00   0.07  -0.03    -0.02   0.01  -0.08
    22   6     0.00  -0.00  -0.02     0.05  -0.12  -0.06     0.00  -0.01  -0.10
    23   8     0.07   0.02   0.02    -0.07   0.00  -0.01     0.01  -0.07   0.02
    24   1     0.21   0.07  -0.10    -0.18  -0.15   0.05     0.02  -0.08  -0.15
    25   1     0.15  -0.08   0.12    -0.15   0.13   0.01     0.00  -0.02  -0.07
    26   1    -0.03   0.05  -0.03    -0.08  -0.14   0.02    -0.05   0.21  -0.07
    27   1     0.02  -0.01   0.03     0.13  -0.00  -0.04    -0.06  -0.06   0.14
    28   1     0.01   0.19   0.03     0.09  -0.13   0.02     0.01   0.04  -0.12
    29   1     0.20   0.09  -0.07    -0.02  -0.08   0.08     0.10   0.00  -0.13
    30   1     0.08  -0.02   0.01     0.02   0.01   0.02     0.26  -0.13   0.01
    31   1    -0.04  -0.01   0.00     0.06   0.11  -0.05    -0.19  -0.01   0.06
    32   1    -0.07  -0.02  -0.01    -0.00   0.03   0.01    -0.03   0.15  -0.03
    33   1    -0.05  -0.02  -0.01    -0.03   0.10   0.02     0.05   0.01  -0.05
    34   1    -0.07   0.00   0.04    -0.01   0.10   0.02     0.01   0.03   0.07
    35   1    -0.06  -0.06   0.01    -0.01   0.07   0.01     0.04  -0.11   0.01
    36   1    -0.04   0.00  -0.03    -0.00   0.09  -0.01     0.04   0.03  -0.08
    37   1    -0.06   0.04  -0.00    -0.01   0.03  -0.02    -0.09  -0.06   0.02
    38   1     0.01  -0.03  -0.16    -0.00   0.03   0.09    -0.02   0.02  -0.15
    39   1     0.09   0.11  -0.05    -0.09  -0.01   0.05     0.18   0.08  -0.04
    40   1     0.05  -0.05   0.02    -0.01   0.03   0.04     0.07   0.01  -0.03
    41   1     0.05  -0.13   0.03     0.06  -0.03  -0.02     0.03   0.07   0.01
    42   1     0.03  -0.00   0.11     0.03  -0.03  -0.02     0.04   0.04  -0.01
    43   1    -0.14   0.00  -0.04     0.05  -0.05  -0.02     0.02   0.05   0.02
    44   1     0.02   0.01  -0.17     0.05  -0.01  -0.01    -0.01  -0.03   0.04
    45   1    -0.11   0.20   0.12     0.07  -0.04  -0.01    -0.01   0.02  -0.01
    46   1     0.01  -0.03   0.21     0.02  -0.04  -0.03    -0.05   0.05  -0.02
    47   1     0.14   0.32  -0.08     0.07   0.05  -0.00    -0.15  -0.23   0.07
    48   1    -0.05   0.05  -0.31     0.02   0.01  -0.05     0.01   0.00   0.28
    49   1     0.09   0.06  -0.01     0.01   0.01   0.00     0.03  -0.10  -0.08
    50   1     0.11   0.08   0.02     0.02   0.03   0.01     0.03  -0.14   0.05
    51   1     0.08   0.06   0.12     0.01   0.02   0.04     0.05  -0.11  -0.13
    52   1    -0.03  -0.06   0.05    -0.02  -0.02  -0.00    -0.02   0.08  -0.01
    53   1    -0.08  -0.03  -0.11    -0.08  -0.00  -0.06     0.02   0.03   0.09
    54   1    -0.06  -0.19  -0.05     0.04  -0.07  -0.01    -0.00   0.15   0.04
    55   1    -0.12  -0.09  -0.01    -0.22  -0.31   0.09    -0.10  -0.26   0.00
    56   1    -0.10  -0.03   0.05    -0.10   0.04   0.42     0.03  -0.04   0.24
    57   1     0.02   0.02  -0.05     0.07  -0.17  -0.13    -0.01  -0.03  -0.09
    58   1     0.01  -0.01  -0.00     0.03  -0.24   0.13    -0.01  -0.03  -0.07
    59   1     0.03  -0.01   0.01     0.11  -0.19  -0.21     0.00  -0.02  -0.14
                     28                     29                     30
                      A                      A                      A
 Frequencies --    424.3210               427.1603               444.9113
 Red. masses --      2.8529                 3.5734                 3.1857
 Frc consts  --      0.3026                 0.3842                 0.3715
 IR Inten    --      0.0166                 0.3001                 0.5551
  Atom  AN      X      Y      Z        X      Y      Z        X      Y      Z
     1   6    -0.03   0.06  -0.02    -0.05   0.06  -0.01    -0.00   0.09  -0.01
     2   6    -0.01   0.02   0.12     0.01   0.03   0.05     0.00   0.05   0.07
[...]
 .00010455,-0.00001502,-0.00003255,-0.00005942,0.00005640,-0.00004023,-
 0.00001697,0.00017880,0.00016739,-0.00007941,0.00000761,0.00031584,-0.
 00114257,0.00046964,0.00000804,0.00002406,0.00001123,0.00001222,-0.000
 00203,0.00001901,0.00000151,-0.00000583,0.00001278,-0.00000182,-0.0000
 0194,0.00000236,0.00000292,0.00000818,0.00000094,0.00000410,-0.0000034
 3,0.00000476,-0.00000876,0.00001115,0.00000840,0.00000300,0.00000225,-
 0.00000595,-0.00000966,0.00001078,0.00001583,0.00000131,0.00000126,0.0
 0000566,-0.00000758,-0.00000948,0.00000022,-0.00004033,0.00001678,0.00
 003200,0.00003566,-0.00004602,0.00007384,-0.00001480,-0.00000600,0.000
 03905,-0.00005186,0.00006038,0.00017275,0.00023269,-0.00010670,0.00024
 952,0.00050868,0.00026752,0.00130889,-0.00001217,-0.00005867,-0.000076
 52,0.00006898,-0.00005046,-0.00004574,0.16613060,-0.00005551,0.0001722
 2,0.00004058,-0.00016239,-0.00004326,-0.00046383,0.00003430,0.00010453
 ,0.00020930,-0.00100232,0.00026008,-0.00054347,-0.00001086,-0.00002186
 ,0.00003322,0.00005124,0.00007634,0.00004971,-0.00001153,-0.00007619,0
 .00059993,-0.00066579,-0.00127693,-0.00013564,0.00000831,0.00022639,-0
 .00002674,0.00002851,0.00004816,-0.00000797,0.00001904,0.00000146,-0.0
 0002341,-0.00000435,-0.00000537,0.00000906,0.00000618,0.00000181,-0.00
 000059,-0.00001003,-0.00000065,0.00001532,0.00001759,0.00003581,-0.000
 00722,-0.00003341,-0.00001163,0.00003331,0.00002624,0.00006835,-0.0000
 6650,-0.00004423,0.00010214,-0.00030594,0.00133307,-0.00017104,-0.0005
 1858,0.00074255,-0.00012254,0.00013644,-0.00326764,0.00464777,0.000521
 95,0.12872083,-0.20514722,0.01873925,-0.00015454,-0.00003097,0.0000434
 8,0.00017190,0.00003376,-0.00016933,0.00004717,-0.00005357,0.00000875,
 0.00007671,-0.00005947,0.00009220,0.00005293,0.00017409,0.00050075,-0.
 00000697,-0.00002102,-0.00000112,0.00003581,-0.00000666,-0.00002683,0.
 00010198,-0.00007248,0.00000586,-0.00013428,0.00013218,-0.00014513,-0.
 00005394,-0.00000647,0.00001524,0.00004952,0.00003188,-0.00004504,0.00
 002436,-0.00000954,0.00000446,0.00001673,0.00001268,0.00001304,0.00024
 664,0.00017706,-0.00001363,-0.00117904,-0.00154808,-0.00077420,-0.0000
 1282,0.00001567,-0.00000168,-0.00000656,0.00000675,-0.00000467,-0.0000
 0478,-0.00000154,0.00000057,-0.00000087,0.00000407,-0.00000223,-0.0000
 0312,-0.00000791,-0.00000050,-0.00000407,0.00000006,-0.00000238,-0.000
 00188,-0.00000479,0.00000224,-0.00000308,0.00000107,-0.00000199,-0.000
 00005,0.00000029,-0.00000140,-0.00000681,0.00000155,-0.00000206,-0.000
 02215,-0.00000680,0.00001682,-0.00001248,-0.00000978,0.00002966,0.0000
 0958,-0.00005116,0.00003060,-0.00002734,-0.00000443,-0.00000349,-0.000
 09258,-0.00009670,-0.00001886,-0.00034809,-0.00000772,-0.00026116,-0.0
 0051990,0.00010951,-0.00134619,-0.00014072,0.00004779,0.00015318,0.000
 07512,-0.00007052,-0.00002187,-0.14226676,0.22538553,0.00008877,0.0000
 0404,0.00008052,-0.00004063,-0.00077794,-0.00055028,0.00008407,0.00014
 251,0.00013418,-0.00178794,-0.00158041,-0.00456849,0.00016188,-0.00000
 465,-0.00045926,0.00001383,-0.00016556,0.00005538,0.00066213,0.0005173
 3,0.00101810,-0.00004593,-0.00022760,0.00017460,-0.00013971,-0.0002765
 9,0.00009406,-0.00000446,-0.00000128,0.00001281,-0.00006211,0.00001198
 ,0.00001891,0.00003066,0.00000798,-0.00000895,-0.00001537,-0.00000200,
 -0.00000635,0.00001825,-0.00001383,-0.00000097,-0.00002846,0.00000666,
 -0.00001223,0.00008529,-0.00008242,-0.00007744,-0.00011840,0.00001704,
 0.00002526,-0.00007169,-0.00035654,0.00003041,-0.00037500,-0.00043748,
 -0.00141711,-0.00000214,0.00062393,0.00087146,-0.01553331,0.02114443,-
 0.00045267,-0.01450958,0.01820629,-0.05093317,0.00027130,0.00009361,-0
 .00003727,-0.00004813,-0.00003918,0.00005567,0.00002319,0.00004399,-0.
 00002935,-0.00008440,-0.00002045,0.00003967,0.00024691,0.00018484,0.00
 033917,-0.00003421,0.00006310,0.00002580,-0.00002059,-0.00000912,-0.00
 000040,0.00007319,-0.00005594,0.00004360,-0.00147068,0.00088176,-0.000
 03153,-0.00013909,0.00012237,0.00030027,-0.00002799,-0.00002776,0.0002
 6017,-0.00001755,0.00001358,0.00004901,-0.00000028,-0.00008850,-0.0000
 2222,0.00015392,0.00012804,-0.00010751,-0.00019723,-0.00043871,0.00026
 525,0.00001325,0.00000558,-0.00000955,-0.00001508,0.00000449,0.0000038
 6,0.00000309,0.00000256,-0.00000645,-0.00000676,-0.00000340,0.00000138
 ,0.00000390,0.00002193,0.00000386,0.00000456,-0.00000244,0.00000163,-0
 .00000100,0.00001572,0.00000155,-0.00000021,0.00000531,-0.00000458,-0.
 00000519,0.00000969,0.00001164,-0.00000108,-0.00000355,-0.00000379,0.0
 0003568,0.00000275,-0.00001396,0.00000417,0.00006174,0.00000492,0.0000
 2007,-0.00004029,0.00003332,0.00011431,-0.00002623,-0.00001697,0.00007
 230,0.00017065,0.00001614,0.00026231,0.00001570,0.00028579,0.00116366,
 -0.00074192,-0.00149269,0.00004664,-0.00017953,0.00017144,0.00003469,0
 .00004363,-0.00016249,0.01680289,-0.01749703,0.05354483,-0.00015633,-0
 .00004607,-0.00001495,-0.00001422,0.00035554,0.00036722,-0.00000394,-0
 .00001092,-0.00011576,0.00079551,0.00052523,-0.00001790,-0.00074291,-0
 .00012947,-0.00029017,-0.00124315,-0.00097213,0.00009102,0.00077176,-0
 .00004330,0.00058996,0.00004796,0.00004507,0.00001571,0.00001542,-0.00
 012611,0.00003859,-0.00000402,0.00001458,0.00000544,-0.00000837,-0.000
 00229,-0.00000024,0.00000680,-0.00000301,0.00000148,-0.00000543,-0.000
 00010,-0.00000403,0.00000418,-0.00000663,0.00000354,-0.00000995,0.0000
 0365,-0.00001112,-0.00000077,-0.00003835,-0.00000500,-0.00004547,-0.00
 000329,0.00000839,0.00002359,-0.00004095,0.00006370,-0.00056689,0.0001
 6469,-0.00012309,-0.00310785,-0.00041368,-0.00266700,0.01301907,-0.001
 42771,-0.01794334,-0.11642573,0.01189089,0.11535534,0.00002687,0.00007
 746,0.00000038,0.00005798,0.00002967,-0.00006670,0.00001861,-0.0000431
 4,0.00003541,0.00006543,-0.00002317,-0.00002525,-0.00013785,0.00013515
 ,-0.00033733,-0.00000630,-0.00002420,0.00001559,-0.00001403,0.00002882
 ,0.00001649,-0.00003796,0.00002038,-0.00001302,0.00025813,-0.00024999,
 0.00016493,-0.00079354,0.00023810,0.00003823,0.00012846,-0.00001280,0.
 00008539,-0.00001089,0.00010479,-0.00009792,-0.00100045,-0.00067922,-0
 .00027829,0.00008419,0.00022943,0.00007043,-0.00001988,-0.00003305,0.0
 0003345,0.00000386,0.00000689,-0.00000133,-0.00001016,0.00000450,0.000
 00220,0.00000394,0.00000269,-0.00000367,-0.00000362,-0.00000168,0.0000
 0064,0.00000289,0.00000664,0.00000128,0.00000215,-0.00000087,0.0000005
 6,-0.00000205,0.00000676,0.00000212,0.00000119,0.00000016,-0.00000184,
 -0.00000299,0.00000453,0.00000549,0.00000336,0.00000169,0.00000243,0.0
 0000628,0.00000060,-0.00000551,0.00000235,0.00002658,0.00000837,0.0000
 0298,-0.00002610,0.00002045,0.00004665,-0.00000865,-0.00001844,0.00006
 461,0.00009999,-0.00000711,0.00017733,-0.00003886,0.00015233,0.0004573
 4,-0.00017051,0.00018878,0.00048897,-0.00009358,-0.00131483,-0.0000182
 0,0.00017589,-0.00006721,-0.01082267,0.00036851,0.01737523,0.12808695,
 -0.00034205,-0.00005977,0.00014500,0.00000981,0.00010201,0.00078088,0.
 00003566,-0.00002104,-0.00022961,0.00015528,0.00018782,0.00056622,-0.0
 0000552,0.00051276,0.00020455,-0.00062617,0.00013434,-0.00070787,0.000
 53784,0.00004869,-0.00032444,-0.00012848,-0.00017439,0.00002597,0.0000
 9738,-0.00004797,-0.00002711,-0.00002598,0.00000750,-0.00000850,0.0000
 3561,0.00000152,-0.00003235,-0.00001404,-0.00001174,0.00001185,0.00000
 463,0.00000458,-0.00000273,-0.00000702,0.00000255,0.00000768,0.0000029
 3,0.00001126,-0.00000525,-0.00002474,0.00000844,0.00005140,0.00004522,
 -0.00000317,-0.00001669,0.00011851,0.00022791,0.00002801,0.00042260,0.
 00013695,0.00004229,-0.00047127,0.00000375,-0.00006796,0.00232592,-0.0
 0152541,-0.00293272,0.01187271,-0.05082853,-0.02006921,-0.00012653,0.0
 0004094,0.00003131,0.00020068,0.00005109,-0.00010258,0.00006050,-0.000
 03631,0.00001766,0.00012194,-0.00005759,-0.00003799,0.00002297,-0.0004
 5978,-0.00013615,-0.00001305,0.00001980,0.00001450,0.00002753,-0.00000
 408,0.00001796,-0.00008440,0.00004362,-0.00002864,-0.00006935,-0.00008
 208,-0.00011564,0.00029615,-0.00003182,-0.00014779,-0.00001266,-0.0001
 9127,0.00001836,0.00015969,-0.00013454,0.00019785,-0.00082498,-0.00075
 971,0.00045156,-0.00004904,0.00005517,0.00016821,0.00015453,-0.0000179
 8,-0.00007258,-0.00000424,-0.00000098,0.00000595,0.00001133,-0.0000003
 2,-0.00000245,-0.00000421,-0.00000443,0.00000519,0.00000140,0.00000341
 ,-0.00000133,-0.00000181,-0.00000904,-0.00000238,-0.00000130,-0.000000
 08,0.00000018,-0.00000284,-0.00000394,0.00000265,-0.00000117,-0.000001
 18,0.00000033,-0.00000148,-0.00000163,-0.00000141,0.00000129,0.0000021
 8,-0.00000154,-0.00002089,-0.00000334,0.00000994,-0.00000811,-0.000027
 99,-0.00000824,0.00001151,0.00002866,-0.00001245,-0.00006288,0.0000033
 9,0.00002309,-0.00006824,-0.00005621,0.00002798,-0.00018858,0.00000174
 ,-0.00015636,-0.00045226,-0.00002626,-0.00013983,0.00015854,0.00032215
 ,-0.00010956,0.00026082,0.00017619,-0.00029023,0.01346251,-0.00173132,
 -0.02351602,-0.01267817,0.05066173,0.00025697,-0.00002454,0.00010061,-
 0.00027517,-0.00002744,-0.00050269,0.00005639,0.00012220,0.00023607,0.
 00104731,-0.00051445,-0.00016596,-0.00018147,0.00014511,-0.00026669,0.
 00033926,0.00007513,-0.00039753,0.00087920,0.00054272,-0.00011334,-0.0
 0024631,-0.00020271,0.00005699,0.00030498,0.00003005,-0.00002008,-0.00
 004627,-0.00001433,-0.00002091,0.00007177,-0.00001725,-0.00002586,-0.0
 0002982,-0.00001259,0.00000915,0.00001194,0.00000268,0.00000132,-0.000
 02062,0.00000931,0.00000892,0.00001682,0.00000811,-0.00000067,-0.00010
 842,-0.00001278,0.00006385,0.00003672,-0.00001979,-0.00003406,0.000164
 23,0.00015342,-0.00008999,-0.00045040,0.00053793,0.00020478,-0.0052613
 0,-0.00052468,-0.00277980,0.01375899,-0.00148784,-0.02089731,0.1143208
 5,-0.01992793,-0.24384312,-0.00025054,0.00003944,0.00006969,-0.0001596
 1,-0.00008187,-0.00000658,-0.00007854,0.00002594,0.00003568,-0.0000329
 1,-0.00007368,0.00011478,0.00016895,0.00047446,0.00037796,-0.00003486,
 -0.00000421,-0.00000044,-0.00006339,0.00002611,0.00001734,0.00009489,-
 0.00007652,0.00002554,0.00008191,-0.00005855,0.00022109,-0.00022328,0.
 00029830,0.00058995,0.00008544,0.00005768,0.00036365,0.00014738,-0.000
 04830,0.00049840,0.00029232,-0.00019967,0.00096448,-0.00008960,-0.0000
 0467,0.00007874,0.00006721,-0.00006830,-0.00005697,-0.00000459,-0.0000
 1651,0.00000535,0.00000686,0.00000605,0.00000056,0.00000232,0.00000339
 ,0.00000663,0.00000579,0.00000126,0.00000130,-0.00000220,-0.00001990,-
 0.00000199,-0.00000264,0.00000238,-0.00000006,-0.00000096,-0.00001275,
 0.00000087,0.00000416,-0.00000745,0.00000391,0.00000187,-0.00000472,-0
 .00000553,0.00000603,0.00000884,0.00000968,-0.00003927,-0.00000747,0.0
 0000895,0.00000635,-0.00002059,0.00001339,-0.00000562,0.00000122,0.000
 01498,-0.00003582,0.00000044,-0.00000307,-0.00000363,0.00000449,0.0000
 3436,0.00010270,-0.00008537,0.00003820,0.00008860,-0.00000738,0.000127
 43,0.00079463,-0.00035571,-0.00171362,-0.00004423,0.00001183,0.0003550
 7,-0.00167015,-0.00025205,0.00361145,-0.12575421,0.02159314,0.26564432
 ,-0.00018557,0.00038814,0.00007536,-0.00074088,-0.00013174,-0.00056058
 ,0.00010075,0.00023599,0.00034836,0.00057499,-0.00110318,0.00044337,0.
 00005196,-0.00011905,0.00009145,0.00043341,-0.00011543,-0.00012008,-0.
 00158748,0.00164408,-0.00372617,-0.00019543,0.00076050,-0.00019160,-0.
 00011725,-0.00012677,0.00016588,-0.00002575,-0.00005327,-0.00003417,-0
 .00000934,-0.00000828,0.00002781,0.00000234,0.00001323,-0.00001255,0.0
 0000421,-0.00000572,0.00000732,-0.00000389,0.00000598,-0.00001052,0.00
 002076,-0.00002283,0.00001835,0.00000728,0.00003583,-0.00005100,0.0000
 1976,-0.00000060,-0.00003319,-0.00009792,-0.00005831,-0.00000347,0.000
 06549,-0.00003465,-0.00010544,0.00062678,0.00031887,0.00136891,-0.0122
 7598,-0.01760470,0.00269820,-0.12545622,-0.11770975,0.01858508,0.00021
 989,-0.00010507,-0.00001805,0.00043406,0.00015133,-0.00047116,0.000142
 28,-0.00007861,0.00002522,0.00016345,-0.00018545,0.00017369,-0.0004833
 6,0.00064636,0.00062614,-0.00001988,0.00002604,-0.00000754,0.00011054,
 -0.00004437,-0.00007082,0.00016837,-0.00012501,0.00002502,0.00012875,0
 .00018759,-0.00004352,-0.00001507,-0.00001843,-0.00000356,-0.00005763,
 0.00000614,-0.00009194,-0.00008608,0.00007440,-0.00005673,-0.00006324,
 0.00021070,-0.00014535,-0.00080931,-0.00112318,-0.00010019,0.00014191,
 -0.00020023,0.00028490,0.00001067,-0.00002401,-0.00000235,0.00000476,-
 0.00000327,0.00000729,0.00000230,0.00000421,0.00000372,0.00000450,-0.0
 0000348,0.00000162,-0.00000079,-0.00000093,0.00000114,-0.00000135,0.00
 000201,-0.00000057,0.00000491,-0.00000577,-0.00000486,0.00000264,-0.00
 000202,0.00000299,0.00000620,-0.00000516,-0.00000658,-0.00000365,0.000
 00060,0.00000653,0.00000269,0.00000226,-0.00000222,0.00000602,0.000000
 87,0.00001838,-0.00001244,-0.00002626,0.00001233,0.00001409,0.00000274
 ,-0.00000989,-0.00000293,-0.00001321,0.00005522,0.00002543,-0.00003702
 ,-0.00000085,-0.00004807,-0.00002918,-0.00005856,0.00000873,0.00032866
 ,0.00013459,0.00062361,0.00016907,-0.00049222,0.01302153,0.01800608,-0
 .00306596,-0.00945922,-0.01429405,0.00189300,0.13460367,0.00020051,-0.
 00030846,0.00034281,0.00022336,-0.00046451,-0.00007658,0.00007976,0.00
 013538,0.00014350,0.00023846,0.00000492,-0.00038561,0.00011004,-0.0000
 1875,0.00000345,0.00025564,-0.00000835,-0.00008871,0.00015332,0.000961
 78,-0.00095779,-0.00011751,-0.00005363,0.00029552,0.00012415,0.0004851
 7,-0.00019890,0.00001368,-0.00007411,0.00001548,-0.00003140,0.00000688
 ,0.00005853,0.00000447,0.00002417,-0.00001895,0.00000240,-0.00000853,0
 .00001464,0.00000472,0.00001274,-0.00002172,-0.00001328,-0.00005216,0.
 00002224,0.00004622,0.00007544,-0.00004821,-0.00004836,-0.00006593,0.0
 0008468,-0.00014490,0.00003065,0.00026974,0.00018008,-0.00006546,-0.00
 022135,-0.00033234,0.00004927,0.00069716,-0.00206768,-0.00330248,-0.00
 026964,-0.11849507,-0.22929509,0.02755472,-0.00017251,-0.00025408,0.00
 008446,0.00031343,-0.00027554,0.00031116,0.00011452,-0.00005373,-0.000
 00507,0.00002341,0.00000068,-0.00000364,0.00061199,-0.00027580,0.00038
 723,-0.00003752,0.00004235,0.00000547,0.00002133,-0.00000806,-0.000024
 57,0.00005941,-0.00004414,-0.00001755,-0.00017207,0.00008283,-0.000029
 04,-0.00000956,0.00003919,0.00004162,-0.00000249,0.00005748,0.00000012
 ,-0.00003467,0.00001720,0.00005114,0.00005016,0.00000202,-0.00000977,-
 0.00023653,-0.00024134,0.00003355,-0.00017059,0.00031239,-0.00027587,0
 .00000287,-0.00003010,-0.00001331,-0.00000305,-0.00000190,-0.00000631,
 -0.00000264,0.00000466,-0.00000596,0.00000328,-0.00000091,-0.00000009,
 -0.00000146,-0.00000041,-0.00000051,-0.00000088,0.00000340,-0.00000217
 ,0.00000954,-0.00000749,-0.00000936,-0.00000053,-0.00000264,0.00000731
 ,0.00000886,-0.00000973,-0.00001464,0.00000187,-0.00000022,-0.00000324
 ,0.00001849,0.00001103,-0.00000839,0.00002736,-0.00001565,-0.00003143,
 -0.00000445,0.00005377,-0.00006947,0.00000839,0.00001422,-0.00000343,0
 .00008692,0.00004586,-0.00008666,0.00000787,0.00000268,-0.00007241,0.0
 0001350,-0.00022910,0.00000184,0.00018824,0.00026014,-0.00007632,0.000
 29127,0.00036794,-0.00056807,-0.01437647,-0.02120138,0.00404312,0.0027
 7909,0.00351378,0.00001036,0.13019734,0.24975165,-0.00073330,0.0003181
 1,-0.00004887,-0.00021285,0.00037487,0.00075294,0.00007652,0.00006119,
 -0.00019879,0.00090422,-0.00009453,0.00050245,0.00020398,0.00004803,-0
 .00003092,0.00041106,0.00029996,-0.00074886,-0.00264550,0.00056778,-0.
 00491060,-0.00043843,0.00059279,-0.00019398,-0.00002888,-0.00000746,0.
 00001262,-0.00003110,-0.00004175,-0.00001783,-0.00002735,0.00000950,0.
 00001849,0.00001033,0.00000767,-0.00000745,-0.00000204,-0.00000223,0.0
 0000154,0.00000752,0.00000031,-0.00000858,0.00000205,-0.00002078,0.000
 00718,0.00005400,0.00002862,-0.00004477,-0.00000535,-0.00000561,-0.000
 00703,-0.00006100,0.00006416,0.00016997,0.00007088,-0.00000526,-0.0000
 3283,-0.00068995,-0.00115519,0.00161914,-0.01425927,-0.02305754,0.0024
 2863,0.01865251,0.02731884,-0.05175616,0.00005585,-0.00011065,0.000083
 63,0.00016976,0.00052337,-0.00043710,0.00013165,-0.00009315,0.00003570
 ,0.00015254,-0.00009993,-0.00001620,-0.00003689,0.00006327,-0.00025987
 ,-0.00001032,0.00001476,0.00001385,0.00004765,-0.00001416,-0.00000311,
 -0.00005948,0.00000551,-0.00001278,0.00014078,-0.00010187,-0.00005994,
 -0.00005575,0.00014224,0.00007644,0.00004979,0.00003269,0.00005579,0.0
 0005125,-0.00004423,0.00030873,0.00008558,-0.00021698,0.00053945,-0.00
 112262,-0.00137522,0.00010172,0.00020365,-0.00003924,0.00009557,0.0000
 1044,-0.00001711,-0.00000379,0.00000587,-0.00000409,0.00000178,-0.0000
 0112,0.00000084,0.00000237,0.00000069,-0.00000166,0.00000032,0.0000003
 1,0.00000567,0.00000051,0.00000034,-0.00000008,0.00000022,0.00000180,0
 .00000233,-0.00000172,-0.00000032,0.00000144,-0.00000030,0.00000150,-0
 .00000145,-0.00000045,-0.00000273,-0.00000154,-0.00000020,0.00001366,0
 .00000324,-0.00000431,0.00000366,0.00000663,0.00000007,-0.00000305,-0.
 00000452,-0.00000619,0.00001720,0.00000018,0.00000125,-0.00001138,0.00
 002938,0.00004446,0.00005956,-0.00000514,0.00000101,0.00008741,-0.0000
 3592,0.00001643,0.00008752,0.00026336,0.00037405,0.00038340,0.00037990
 ,-0.00038911,0.00145929,0.00138783,-0.00116040,0.01442467,0.02485792,-
 0.00296922,-0.01760020,-0.03085510,0.05606507\\-0.00002650,-0.00004913
 ,0.00003968,-0.00002092,0.00002574,-0.00002197,0.00004835,-0.00001559,
 0.00000169,0.00003713,-0.00000348,-0.00001163,-0.00002759,0.00000521,0
 .00000091,0.00000124,0.00001292,-0.00001202,0.00002567,-0.00001118,0.0
 0001421,-0.00002298,0.00000009,-0.00000676,-0.00003328,-0.00000294,-0.
 00001836,-0.00000499,0.00001541,0.00002022,0.00001241,-0.00000403,-0.0
 0001110,0.00001427,-0.00000603,0.00000478,0.00000218,0.00000592,0.0000
 1108,0.00000028,-0.00000022,-0.00000443,-0.00000086,-0.00001836,-0.000
 01894,0.00001103,-0.00004821,0.00002178,-0.00001219,-0.00003451,0.0000
 0362,0.00002254,-0.00003079,0.00002705,-0.00004407,0.00001439,-0.00001
 549,-0.00002255,0.00002980,0.00004884,0.00002665,-0.00000139,0.0000165
 8,-0.00003033,0.00003211,-0.00001613,0.00006666,0.00001868,0.00000160,
 0.00000794,0.00000801,0.00000920,0.00000484,0.00001258,-0.00000894,0.0
 0000207,0.00000324,-0.00001737,0.00000064,-0.00000656,0.00000355,0.000
 01119,0.00002919,-0.00000172,-0.00002259,-0.00000755,0.00002353,-0.000
 01068,-0.00000603,-0.00002283,-0.00000528,0.00000905,0.00000426,-0.000
 00277,0.00000822,-0.00000137,-0.00000381,0.00000336,-0.00000456,-0.000
 00515,-0.00000537,0.00000114,0.00001117,-0.00000720,-0.00000212,0.0000
 0444,-0.00001057,0.00000922,0.00000093,-0.00001031,-0.00001842,-0.0000
 0164,-0.00000550,-0.00000590,0.00001288,0.00000072,-0.00000802,0.00000
 090,-0.00002073,-0.00000468,-0.00000432,0.00000010,0.00000115,0.000000
 53,-0.00000378,0.00000188,0.00000188,0.00000535,-0.00000315,0.00000120
 ,-0.00000719,-0.00000490,-0.00000142,0.00001187,0.00000841,0.00000553,
 -0.00000832,-0.00000471,0.00000170,0.00000542,-0.00000610,-0.00001519,
 -0.00000382,0.00001017,0.00000181,-0.00000349,-0.00001682,0.00000173,0
 .00001065,-0.00000959,0.00001547,-0.00000856,0.00000494,-0.00002178,0.
 00001221,-0.00000372,0.00000771,0.00000325,-0.00000586,-0.00000481,0.0
 0000581,-0.00000784,-0.00000567,0.00000896,-0.00000105,-0.00000689,-0.
 00001174,0.00000371,-0.00000295,0.00003194,0.00001402,-0.00000740,0.00
 000428,-0.00000821,0.00000561,0.00001810,-0.00000252\\\@


 MATERIAL COPIED FROM ONE SCHOLARLY BOOK WITHOUT CREDIT COMPRISES PLAGIARISM.
 MATERIAL COPIED FROM TWO SCHOLARLY BOOKS COMPRISES AN ESSAY.
 MATERIAL COPIED FROM THREE SCHOLARLY BOOKS COMPRISES A DISSERTATION.
 MATERIAL COPIED FROM FOUR SCHOLARLY BOOKS COMPRISES A FIFTH SCHOLARLY BOOK.

                               -- C&EN, 25 FEB 1980
 Job cpu time:       0 days  0 hours 19 minutes 45.5 seconds.
 Elapsed time:       0 days  6 hours  7 minutes 37.6 seconds.
 File lengths (MBytes):  RWF=   1168 Int=      0 D2E=      0 Chk=     16 Scr=      1
 Normal termination of Gaussian 16 at Fri Feb 23 14:28:47 2024.
