 Entering Gaussian System, Link 0=g16
 Input=/Volumes/SSD-PMU3/b3lyp_6-31gd_freq/VWDNWTRGZCIHTM-NCEGCGGISA-N_calculating/gaussianinput0.gjf
 Output=/Volumes/SSD-PMU3/b3lyp_6-31gd_freq/VWDNWTRGZCIHTM-NCEGCGGISA-N_calculating/gaussianinput0.log
 Initial command:
 /Applications/g16/l1.exe "/Users/macmini_m1_2022/PycharmProjects/sphere_model/sphere_model_lib/Gau-69358.inp" -scrdir="/Users/macmini_m1_2022/PycharmProjects/sphere_model/sphere_model_lib/"
 Entering Link 1 = /Applications/g16/l1.exe PID=     69359.
  
 Copyright (c) 1988,1990,1992,1993,1995,1998,2003,2009,2016,
            Gaussian, Inc.  All Rights Reserved.
  
 This is part of the Gaussian(R) 16 program.  It is based on
 the Gaussian(R) 09 system (copyright 2009, Gaussian, Inc.),
 the Gaussian(R) 03 system (copyright 2003, Gaussian, Inc.),
 the Gaussian(R) 98 system (copyright 1998, Gaussian, Inc.),
 the Gaussian(R) 94 system (copyright 1995, Gaussian, Inc.),
 the Gaussian 92(TM) system (copyright 1992, Gaussian, Inc.),
 the Gaussian 90(TM) system (copyright 1990, Gaussian, Inc.),
 the Gaussian 88(TM) system (copyright 1988, Gaussian, Inc.),
 the Gaussian 86(TM) system (copyright 1986, Carnegie Mellon
 University), and the Gaussian 82(TM) system (copyright 1983,
 Carnegie Mellon University). Gaussian is a federally registered
 trademark of Gaussian, Inc.
  
 This software contains proprietary and confidential information,
 including trade secrets, belonging to Gaussian, Inc.
  
 This software is provided under written license and may be
 used, copied, transmitted, or stored only in accord with that
 written license.
  
 The following legend is applicable only to US Government
 contracts under FAR:
  
                    RESTRICTED RIGHTS LEGEND
  
 Use, reproduction and disclosure by the US Government is
 subject to restrictions as set forth in subparagraphs (a)
 and (c) of the Commercial Computer Software - Restricted
 Rights clause in FAR 52.227-19.
  
 Gaussian, Inc.
 340 Quinnipiac St., Bldg. 40, Wallingford CT 06492
  
  
 ---------------------------------------------------------------
 Warning -- This program may not be used in any manner that
 competes with the business of Gaussian, Inc. or will provide
 assistance to any competitor of Gaussian, Inc.  The licensee
 of this program is prohibited from giving any competitor of
 Gaussian, Inc. access to this program.  By using this program,
 the user acknowledges that Gaussian, Inc. is engaged in the
 business of creating and licensing software in the field of
 computational chemistry and represents and warrants to the
 licensee that it is not a competitor of Gaussian, Inc. and that
 it will not use this program in any manner prohibited above.
 ---------------------------------------------------------------
  

 Cite this work as:
 Gaussian 16, Revision A.03,
 M. J. Frisch, G. W. Trucks, H. B. Schlegel, G. E. Scuseria, 
 M. A. Robb, J. R. Cheeseman, G. Scalmani, V. Barone, 
 G. A. Petersson, H. Nakatsuji, X. Li, M. Caricato, A. V. Marenich, 
 J. Bloino, B. G. Janesko, R. Gomperts, B. Mennucci, H. P. Hratchian, 
 J. V. Ortiz, A. F. Izmaylov, J. L. Sonnenberg, D. Williams-Young, 
 F. Ding, F. Lipparini, F. Egidi, J. Goings, B. Peng, A. Petrone, 
 T. Henderson, D. Ranasinghe, V. G. Zakrzewski, J. Gao, N. Rega, 
 G. Zheng, W. Liang, M. Hada, M. Ehara, K. Toyota, R. Fukuda, 
 J. Hasegawa, M. Ishida, T. Nakajima, Y. Honda, O. Kitao, H. Nakai, 
 T. Vreven, K. Throssell, J. A. Montgomery, Jr., J. E. Peralta, 
 F. Ogliaro, M. J. Bearpark, J. J. Heyd, E. N. Brothers, K. N. Kudin, 
 V. N. Staroverov, T. A. Keith, R. Kobayashi, J. Normand, 
 K. Raghavachari, A. P. Rendell, J. C. Burant, S. S. Iyengar, 
 J. Tomasi, M. Cossi, J. M. Millam, M. Klene, C. Adamo, R. Cammi, 
 J. W. Ochterski, R. L. Martin, K. Morokuma, O. Farkas, 
 J. B. Foresman, and D. J. Fox, Gaussian, Inc., Wallingford CT, 2016.
 
 ******************************************
 Gaussian 16:  EM64M-G16RevA.03 25-Dec-2016
                23-Feb-2024 
 ******************************************
 %nprocshared=10
 Will use up to   10 processors via shared memory.
 %mem=12GB
 %chk= 0.chk
 ---------------------
 # freq b3lyp/6-31g(d)
 ---------------------
 1/10=4,30=1,38=1/1,3;
 2/12=2,17=6,18=5,40=1/2;
 3/5=1,6=6,7=1,11=2,25=1,30=1,71=2,74=-5,140=1/1,2,3;
 4//1;
 5/5=2,38=5,98=1/2;
 8/6=4,10=90,11=11/1;
 11/6=1,8=1,9=11,15=111,16=1/1,2,10;
 10/6=1/2;
 6/7=2,8=2,9=2,10=2,28=1/1;
 7/8=1,10=1,25=1/1,2,3,16;
 1/10=4,30=1/3;
 99//99;
 ---------
 good luck
 ---------
 Symbolic Z-matrix:
 Charge =  0 Multiplicity = 1
 C                     1.16455   4.64176  -0.58618 
 C                     0.45289   3.33723  -0.99185 
 C                     1.40493   2.49151  -1.8525 
 C                    -0.08518   2.60643   0.26222 
 C                    -1.08856   3.4868    1.0812 
 C                    -2.13932   2.53265   1.71335 
 C                    -1.5644    1.12876   1.47192 
 C                    -2.47745  -0.09822   1.60475 
 C                    -3.18609  -0.14272   2.97061 
 C                    -3.99913  -1.42907   3.16538 
 C                    -3.13451  -2.67749   2.94001 
 C                    -3.86997  -3.98435   3.28421 
 C                    -2.93278  -5.1969    3.18918 
 C                    -2.24035  -5.26661   1.8212 
 C                    -1.54443  -3.94303   1.45873 
 C                    -2.47852  -2.70301   1.51884 
 C                    -3.53234  -2.80689   0.39287 
 C                    -1.63573  -1.38825   1.38224 
 C                    -0.79045  -1.30601   0.0782 
 C                     0.        0.        0. 
 C                    -0.8534    1.26387   0.0782 
 C                    -1.85809   1.3433   -1.09508 
 O                     1.21864   0.        0. 
 H                     2.03109   4.42805   0.05322 
 H                     1.53149   5.17337  -1.47208 
 H                     0.50566   5.32452  -0.03962 
 H                    -0.41068   3.61785  -1.61446 
 H                     2.27474   2.16537  -1.27353 
 H                     1.76105   3.0796   -2.70758 
 H                     0.92849   1.58872  -2.24532 
 H                     0.7816    2.37744   0.8967 
 H                    -1.57742   4.21959   0.42792 
 H                    -0.56195   4.06328   1.8483 
 H                    -2.29976   2.73459   2.77726 
 H                    -3.1146    2.63874   1.22182 
 H                    -0.75074   0.99357   2.20482 
 H                    -3.25618  -0.03767   0.83198 
 H                    -2.42858  -0.07391   3.76661 
 H                    -3.83429   0.73519   3.08326 
 H                    -4.41463  -1.45311   4.18184 
 H                    -4.86198  -1.43574   2.48487 
 H                    -2.29287  -2.60503   3.65043 
 H                    -4.27956  -3.90668   4.30045 
 H                    -4.73391  -4.12382   2.61948 
 H                    -2.16777  -5.1165    3.97569 
 H                    -3.48423  -6.1253    3.38568 
 H                    -1.50072  -6.07754   1.81351 
 H                    -2.97881  -5.52398   1.04998 
 H                    -0.707    -3.78246   2.15462 
 H                    -1.10206  -4.03391   0.45925 
 H                    -4.1932   -1.93622   0.35087 
 H                    -3.04816  -2.90028  -0.58584 
 H                    -4.17075  -3.68627   0.51354 
 H                    -0.90614  -1.41738   2.20832 
 H                    -0.06441  -2.12066   0.03099 
 H                    -1.44247  -1.38684  -0.79997 
 H                    -1.33348   1.3809   -2.05488 
 H                    -2.47015   2.2483   -1.02465 
 H                    -2.54163   0.49175  -1.12929 
 

 GradGradGradGradGradGradGradGradGradGradGradGradGradGradGradGradGradGrad
 Berny optimization.
 Initialization pass.
 Trust Radius=3.00D-01 FncErr=1.00D-07 GrdErr=1.00D-07 EigMax=2.50D+02 EigMin=1.00D-04
 Number of steps in this run=      2 maximum allowed number of steps=      2.
 GradGradGradGradGradGradGradGradGradGradGradGradGradGradGradGradGradGrad

 Stoichiometry    C22H36O
 Framework group  C1[X(C22H36O)]
 Deg. of freedom   171
 Full point group                 C1      NOp   1
 Largest Abelian subgroup         C1      NOp   1
 Largest concise Abelian subgroup C1      NOp   1
                         Standard orientation:                         
 ---------------------------------------------------------------------
 Center     Atomic      Atomic             Coordinates (Angstroms)
 Number     Number       Type             X           Y           Z
 ---------------------------------------------------------------------
      1          6           0       -5.854961    0.083036   -0.573303
      2          6           0       -4.610606   -0.411112    0.188432
      3          6           0       -4.585244   -1.947754    0.167410
      4          6           0       -3.333190    0.251324   -0.382221
      5          6           0       -3.381845    1.814221   -0.295317
      6          6           0       -1.929266    2.314970   -0.064278
      7          6           0       -1.061686    1.068361   -0.294512
      8          6           0        0.388949    1.050235    0.207598
      9          6           0        1.195500    2.250322   -0.320583
     10          6           0        2.677834    2.174339    0.067458
     11          6           0        3.303088    0.841616   -0.368230
     12          6           0        4.824324    0.792833   -0.143022
     13          6           0        5.436158   -0.490350   -0.723307
     14          6           0        4.731778   -1.742906   -0.184197
     15          6           0        3.205915   -1.671295   -0.368990
     16          6           0        2.557284   -0.395404    0.235323
     17          6           0        2.671443   -0.449500    1.775830
     18          6           0        1.059561   -0.289033   -0.215300
     19          6           0        0.187942   -1.517573    0.175507
     20          6           0       -1.260628   -1.349961   -0.282896
     21          6           0       -1.955511   -0.100650    0.253875
     22          6           0       -2.032600   -0.114009    1.798601
     23          8           0       -1.751970   -2.101824   -1.106521
     24          1           0       -5.797751   -0.197898   -1.633116
     25          1           0       -6.765012   -0.368575   -0.161074
     26          1           0       -5.972124    1.170502   -0.521231
     27          1           0       -4.719552   -0.086462    1.234799
     28          1           0       -4.455843   -2.325795   -0.851650
     29          1           0       -5.527693   -2.344632    0.565030
     30          1           0       -3.770230   -2.364189    0.766296
     31          1           0       -3.264915   -0.040782   -1.438786
     32          1           0       -4.034323    2.132490    0.526699
     33          1           0       -3.809267    2.240302   -1.208467
     34          1           0       -1.658560    3.135065   -0.737027
     35          1           0       -1.799488    2.690455    0.958560
     36          1           0       -1.016328    0.916017   -1.386386
     37          1           0        0.378405    1.118034    1.304208
     38          1           0        1.113655    2.278372   -1.418165
     39          1           0        0.755801    3.185912    0.046735
     40          1           0        3.225298    3.003285   -0.401082
     41          1           0        2.790573    2.311133    1.151997
     42          1           0        3.153952    0.770411   -1.459553
     43          1           0        5.283492    1.672554   -0.613980
     44          1           0        5.055159    0.868173    0.928776
     45          1           0        5.338147   -0.466191   -1.818802
     46          1           0        6.511540   -0.534788   -0.508350
     47          1           0        5.115233   -2.638528   -0.689717
     48          1           0        4.973844   -1.869549    0.879621
     49          1           0        2.978978   -1.701016   -1.445527
     50          1           0        2.750605   -2.568668    0.067286
     51          1           0        2.188245    0.400937    2.265567
     52          1           0        2.208750   -1.362052    2.168501
     53          1           0        3.713694   -0.457679    2.106125
     54          1           0        1.082275   -0.278958   -1.317543
     55          1           0        0.566024   -2.429572   -0.291761
     56          1           0        0.208329   -1.664476    1.262173
     57          1           0       -2.615458   -0.970372    2.151837
     58          1           0       -2.524679    0.789485    2.172983
     59          1           0       -1.050448   -0.168625    2.273915
 ---------------------------------------------------------------------
 Rotational constants (GHZ):           0.6260031           0.1424392           0.1265851
 Standard basis: 6-31G(d) (6D, 7F)
 There are   417 symmetry adapted cartesian basis functions of A   symmetry.
 There are   417 symmetry adapted basis functions of A   symmetry.
   417 basis functions,   788 primitive gaussians,   417 cartesian basis functions
    88 alpha electrons       88 beta electrons
       nuclear repulsion energy      2170.9112100171 Hartrees.
 NAtoms=   59 NActive=   59 NUniq=   59 SFac= 1.00D+00 NAtFMM=   60 NAOKFM=F Big=F
 Integral buffers will be    131072 words long.
 Raffenetti 2 integral format.
 Two-electron integral symmetry is turned on.
 One-electron integrals computed using PRISM.
 NBasis=   417 RedAO= T EigKep=  1.55D-03  NBF=   417
 NBsUse=   417 1.00D-06 EigRej= -1.00D+00 NBFU=   417
 ExpMin= 1.61D-01 ExpMax= 5.48D+03 ExpMxC= 8.25D+02 IAcc=3 IRadAn=         5 AccDes= 0.00D+00
 Harris functional with IExCor=  402 and IRadAn=       5 diagonalized for initial guess.
 HarFok:  IExCor=  402 AccDes= 0.00D+00 IRadAn=         5 IDoV= 1 UseB2=F ITyADJ=14
 ICtDFT=  3500011 ScaDFX=  1.000000  1.000000  1.000000  1.000000
 FoFCou: FMM=F IPFlag=           0 FMFlag=      100000 FMFlg1=           0
         NFxFlg=           0 DoJE=T BraDBF=F KetDBF=T FulRan=T
         wScrn=  0.000000 ICntrl=       500 IOpCl=  0 I1Cent=   200000004 NGrid=           0
         NMat0=    1 NMatS0=      1 NMatT0=    0 NMatD0=    1 NMtDS0=    0 NMtDT0=    0
 Petite list used in FoFCou.
 Requested convergence on RMS density matrix=1.00D-08 within 128 cycles.
 Requested convergence on MAX density matrix=1.00D-06.
 Requested convergence on             energy=1.00D-06.
 No special actions if energy rises.
 Integral accuracy reduced to 1.0D-05 until final iterations.
 Initial convergence to 1.0D-05 achieved.  Increase integral accuracy.
 SCF Done:  E(RB3LYP) =  -935.273355655     A.U. after   14 cycles
            NFock= 14  Conv=0.33D-08     -V/T= 2.0099
 DoSCS=F DFT=T ScalE2(SS,OS)=  1.000000  1.000000
 Range of M.O.s used for correlation:     1   417
 NBasis=   417 NAE=    88 NBE=    88 NFC=     0 NFV=     0
 NROrb=    417 NOA=    88 NOB=    88 NVA=   329 NVB=   329
 Symmetrizing basis deriv contribution to polar:
 IMax=3 JMax=2 DiffMx= 0.00D+00
 G2DrvN: will do    60 centers at a time, making    1 passes.
 Calling FoFCou, ICntrl=  3107 FMM=F I1Cent=   0 AccDes= 0.00D+00.
 End of G2Drv F.D. properties file   721 does not exist.
 End of G2Drv F.D. properties file   722 does not exist.
 End of G2Drv F.D. properties file   788 does not exist.
          IDoAtm=11111111111111111111111111111111111111111111111111
          IDoAtm=111111111
          Differentiating once with respect to electric field.
                with respect to dipole field.
          Differentiating once with respect to nuclear coordinates.
 CalDSu exits because no D1Ps are significant.
          There are   180 degrees of freedom in the 1st order CPHF.  IDoFFX=6 NUNeed=     3.
    177 vectors produced by pass  0 Test12= 2.90D-14 1.00D-09 XBig12= 1.49D+02 2.28D+00.
 AX will form   177 AO Fock derivatives at one time.
    177 vectors produced by pass  1 Test12= 2.90D-14 1.00D-09 XBig12= 1.14D+01 4.65D-01.
    177 vectors produced by pass  2 Test12= 2.90D-14 1.00D-09 XBig12= 1.02D-01 2.37D-02.
    177 vectors produced by pass  3 Test12= 2.90D-14 1.00D-09 XBig12= 2.37D-04 1.08D-03.
    177 vectors produced by pass  4 Test12= 2.90D-14 1.00D-09 XBig12= 2.06D-07 3.59D-05.
     74 vectors produced by pass  5 Test12= 2.90D-14 1.00D-09 XBig12= 1.28D-10 6.15D-07.
      3 vectors produced by pass  6 Test12= 2.90D-14 1.00D-09 XBig12= 8.74D-14 2.19D-08.
 InvSVY:  IOpt=1 It=  1 EMax= 1.24D-14
 Solved reduced A of dimension   962 with   180 vectors.
 Isotropic polarizability for W=    0.000000      221.42 Bohr**3.
 End of Minotr F.D. properties file   721 does not exist.
 End of Minotr F.D. properties file   722 does not exist.
 End of Minotr F.D. properties file   788 does not exist.

 **********************************************************************

            Population analysis using the SCF density.

 **********************************************************************

 Orbital symmetries:
       Occupied  (A) (A) (A) (A) (A) (A) (A) (A) (A) (A) (A) (A)
                 (A) (A) (A) (A) (A) (A) (A) (A) (A) (A) (A) (A)
                 (A) (A) (A) (A) (A) (A) (A) (A) (A) (A) (A) (A)
                 (A) (A) (A) (A) (A) (A) (A) (A) (A) (A) (A) (A)
                 (A) (A) (A) (A) (A) (A) (A) (A) (A) (A) (A) (A)
                 (A) (A) (A) (A) (A) (A) (A) (A) (A) (A) (A) (A)
                 (A) (A) (A) (A) (A) (A) (A) (A) (A) (A) (A) (A)
                 (A) (A) (A) (A)
       Virtual   (A) (A) (A) (A) (A) (A) (A) (A) (A) (A) (A) (A)
                 (A) (A) (A) (A) (A) (A) (A) (A) (A) (A) (A) (A)
                 (A) (A) (A) (A) (A) (A) (A) (A) (A) (A) (A) (A)
                 (A) (A) (A) (A) (A) (A) (A) (A) (A) (A) (A) (A)
                 (A) (A) (A) (A) (A) (A) (A) (A) (A) (A) (A) (A)
                 (A) (A) (A) (A) (A) (A) (A) (A) (A) (A) (A) (A)
                 (A) (A) (A) (A) (A) (A) (A) (A) (A) (A) (A) (A)
                 (A) (A) (A) (A) (A) (A) (A) (A) (A) (A) (A) (A)
                 (A) (A) (A) (A) (A) (A) (A) (A) (A) (A) (A) (A)
                 (A) (A) (A) (A) (A) (A) (A) (A) (A) (A) (A) (A)
                 (A) (A) (A) (A) (A) (A) (A) (A) (A) (A) (A) (A)
                 (A) (A) (A) (A) (A) (A) (A) (A) (A) (A) (A) (A)
                 (A) (A) (A) (A) (A) (A) (A) (A) (A) (A) (A) (A)
                 (A) (A) (A) (A) (A) (A) (A) (A) (A) (A) (A) (A)
                 (A) (A) (A) (A) (A) (A) (A) (A) (A) (A) (A) (A)
                 (A) (A) (A) (A) (A) (A) (A) (A) (A) (A) (A) (A)
                 (A) (A) (A) (A) (A) (A) (A) (A) (A) (A) (A) (A)
                 (A) (A) (A) (A) (A) (A) (A) (A) (A) (A) (A) (A)
                 (A) (A) (A) (A) (A) (A) (A) (A) (A) (A) (A) (A)
                 (A) (A) (A) (A) (A) (A) (A) (A) (A) (A) (A) (A)
                 (A) (A) (A) (A) (A) (A) (A) (A) (A) (A) (A) (A)
                 (A) (A) (A) (A) (A) (A) (A) (A) (A) (A) (A) (A)
                 (A) (A) (A) (A) (A) (A) (A) (A) (A) (A) (A) (A)
                 (A) (A) (A) (A) (A) (A) (A) (A) (A) (A) (A) (A)
                 (A) (A) (A) (A) (A) (A) (A) (A) (A) (A) (A) (A)
                 (A) (A) (A) (A) (A) (A) (A) (A) (A) (A) (A) (A)
                 (A) (A) (A) (A) (A) (A) (A) (A) (A) (A) (A) (A)
                 (A) (A) (A) (A) (A)
 The electronic state is 1-A.
 Alpha  occ. eigenvalues --  -19.12889 -10.26177 -10.19607 -10.19437 -10.19335
 Alpha  occ. eigenvalues --  -10.18878 -10.18758 -10.18299 -10.18287 -10.18115
 Alpha  occ. eigenvalues --  -10.18060 -10.18005 -10.17988 -10.17840 -10.17828
 Alpha  occ. eigenvalues --  -10.17804 -10.17770 -10.17689 -10.17685 -10.17649
 Alpha  occ. eigenvalues --  -10.17407 -10.16478 -10.15691  -1.02741  -0.86560
 Alpha  occ. eigenvalues --   -0.84566  -0.80636  -0.78285  -0.77831  -0.75399
 Alpha  occ. eigenvalues --   -0.74610  -0.72683  -0.70468  -0.68045  -0.67504
 Alpha  occ. eigenvalues --   -0.67184  -0.66743  -0.62098  -0.60249  -0.59190
 Alpha  occ. eigenvalues --   -0.58172  -0.56012  -0.55694  -0.54234  -0.52532
 Alpha  occ. eigenvalues --   -0.51116  -0.48292  -0.47293  -0.46147  -0.45896
 Alpha  occ. eigenvalues --   -0.45056  -0.44811  -0.43995  -0.43098  -0.42712
 Alpha  occ. eigenvalues --   -0.42438  -0.41723  -0.40920  -0.40464  -0.40434
 Alpha  occ. eigenvalues --   -0.39717  -0.39498  -0.39276  -0.38429  -0.38066
 Alpha  occ. eigenvalues --   -0.37474  -0.37069  -0.36911  -0.36088  -0.35187
 Alpha  occ. eigenvalues --   -0.35010  -0.34669  -0.34143  -0.33956  -0.33473
 Alpha  occ. eigenvalues --   -0.32883  -0.32564  -0.32193  -0.31795  -0.31592
 Alpha  occ. eigenvalues --   -0.31045  -0.30613  -0.30391  -0.29812  -0.29320
 Alpha  occ. eigenvalues --   -0.27472  -0.27374  -0.22801
 Alpha virt. eigenvalues --   -0.00533   0.07059   0.07829   0.08259   0.09642
 Alpha virt. eigenvalues --    0.09936   0.10704   0.11193   0.11683   0.12273
 Alpha virt. eigenvalues --    0.12946   0.13259   0.14058   0.14368   0.14663
 Alpha virt. eigenvalues --    0.15283   0.15466   0.15666   0.16029   0.16205
 Alpha virt. eigenvalues --    0.16607   0.16971   0.17080   0.17295   0.18240
 Alpha virt. eigenvalues --    0.18476   0.18911   0.19188   0.19392   0.19605
 Alpha virt. eigenvalues --    0.20175   0.20545   0.20588   0.21275   0.21906
 Alpha virt. eigenvalues --    0.22235   0.22561   0.23019   0.23148   0.23908
 Alpha virt. eigenvalues --    0.23960   0.24563   0.24681   0.24768   0.25750
 Alpha virt. eigenvalues --    0.25863   0.26849   0.27152   0.27409   0.27777
 Alpha virt. eigenvalues --    0.28207   0.28662   0.29147   0.29736   0.30416
 Alpha virt. eigenvalues --    0.31502   0.32236   0.33087   0.33499   0.34347
 Alpha virt. eigenvalues --    0.36700   0.38776   0.39480   0.49218   0.50239
 Alpha virt. eigenvalues --    0.50408   0.50549   0.50983   0.51450   0.52947
 Alpha virt. eigenvalues --    0.53684   0.53970   0.54321   0.54948   0.55980
 Alpha virt. eigenvalues --    0.57208   0.57888   0.58575   0.59795   0.60076
 Alpha virt. eigenvalues --    0.61278   0.61641   0.62164   0.63647   0.64542
 Alpha virt. eigenvalues --    0.64686   0.65363   0.66087   0.66521   0.67028
 Alpha virt. eigenvalues --    0.67395   0.68924   0.68994   0.69792   0.70635
 Alpha virt. eigenvalues --    0.71173   0.71730   0.72888   0.73472   0.74239
 Alpha virt. eigenvalues --    0.75662   0.76063   0.77101   0.77469   0.79055
 Alpha virt. eigenvalues --    0.79840   0.80558   0.80832   0.81385   0.83084
 Alpha virt. eigenvalues --    0.83376   0.83658   0.84911   0.85368   0.85643
 Alpha virt. eigenvalues --    0.86075   0.86623   0.86815   0.87315   0.87662
 Alpha virt. eigenvalues --    0.88020   0.88265   0.88988   0.89574   0.89599
 Alpha virt. eigenvalues --    0.90244   0.90681   0.91194   0.91437   0.91824
 Alpha virt. eigenvalues --    0.91939   0.92655   0.93313   0.93991   0.94114
 Alpha virt. eigenvalues --    0.94590   0.94918   0.95458   0.95587   0.96494
 Alpha virt. eigenvalues --    0.96681   0.97639   0.97997   0.98477   0.98869
 Alpha virt. eigenvalues --    0.99045   0.99645   1.00423   1.01317   1.02336
 Alpha virt. eigenvalues --    1.02434   1.02859   1.04071   1.04544   1.05365
 Alpha virt. eigenvalues --    1.05589   1.06652   1.08131   1.08724   1.11796
 Alpha virt. eigenvalues --    1.14357   1.16640   1.18093   1.19027   1.19880
 Alpha virt. eigenvalues --    1.20984   1.22161   1.24897   1.25902   1.27911
 Alpha virt. eigenvalues --    1.30778   1.32126   1.33071   1.35738   1.36726
 Alpha virt. eigenvalues --    1.38446   1.41685   1.42044   1.44392   1.47196
 Alpha virt. eigenvalues --    1.48766   1.50845   1.52308   1.53355   1.55391
 Alpha virt. eigenvalues --    1.56463   1.57705   1.59804   1.62208   1.63293
 Alpha virt. eigenvalues --    1.65003   1.66464   1.67236   1.68342   1.69474
 Alpha virt. eigenvalues --    1.70514   1.70800   1.72729   1.74200   1.74316
 Alpha virt. eigenvalues --    1.76391   1.77547   1.78200   1.79083   1.80627
 Alpha virt. eigenvalues --    1.80774   1.82162   1.82282   1.84079   1.85790
 Alpha virt. eigenvalues --    1.86927   1.87310   1.88503   1.88919   1.89460
 Alpha virt. eigenvalues --    1.91365   1.91915   1.93087   1.93534   1.93938
 Alpha virt. eigenvalues --    1.94751   1.96013   1.96098   1.97005   1.97510
 Alpha virt. eigenvalues --    1.98447   1.99162   1.99410   2.00629   2.01084
 Alpha virt. eigenvalues --    2.02124   2.02944   2.03706   2.04950   2.05191
 Alpha virt. eigenvalues --    2.07344   2.07670   2.08668   2.08939   2.10540
 Alpha virt. eigenvalues --    2.11380   2.11668   2.12102   2.13290   2.14177
 Alpha virt. eigenvalues --    2.15107   2.16026   2.17718   2.18160   2.18873
 Alpha virt. eigenvalues --    2.19375   2.22324   2.24008   2.25635   2.26735
 Alpha virt. eigenvalues --    2.27559   2.28752   2.30035   2.30850   2.31541
 Alpha virt. eigenvalues --    2.32907   2.34199   2.37169   2.37440   2.38152
 Alpha virt. eigenvalues --    2.39112   2.39533   2.41109   2.42194   2.43279
 Alpha virt. eigenvalues --    2.44603   2.46102   2.48063   2.48150   2.48743
 Alpha virt. eigenvalues --    2.50531   2.52561   2.53947   2.56126   2.57618
 Alpha virt. eigenvalues --    2.58193   2.59935   2.60714   2.61307   2.62384
 Alpha virt. eigenvalues --    2.63509   2.64521   2.66601   2.68006   2.70535
 Alpha virt. eigenvalues --    2.73424   2.74852   2.75653   2.76379   2.77262
 Alpha virt. eigenvalues --    2.80918   2.84914   2.85357   2.86659   2.88925
 Alpha virt. eigenvalues --    2.91264   2.92245   2.94750   2.99126   3.04435
 Alpha virt. eigenvalues --    3.08481   4.10037   4.13360   4.15622   4.22634
 Alpha virt. eigenvalues --    4.23648   4.24276   4.28121   4.28943   4.30689
 Alpha virt. eigenvalues --    4.32198   4.34749   4.39279   4.44170   4.48834
 Alpha virt. eigenvalues --    4.53165   4.57376   4.58176   4.65109   4.66070
 Alpha virt. eigenvalues --    4.71912   4.76125   4.81433   4.85669
          Condensed to atoms (all electrons):
 Mulliken charges:
               1
     1  C   -0.448963
     2  C   -0.084689
     3  C   -0.439358
     4  C   -0.069161
     5  C   -0.297808
     6  C   -0.287303
     7  C   -0.113470
     8  C   -0.096697
     9  C   -0.272269
    10  C   -0.271867
    11  C   -0.087087
    12  C   -0.267376
    13  C   -0.259311
    14  C   -0.267028
    15  C   -0.277419
    16  C    0.107042
    17  C   -0.484801
    18  C   -0.110579
    19  C   -0.367386
    20  C    0.437499
    21  C    0.003579
    22  C   -0.490502
    23  O   -0.461813
    24  H    0.141128
    25  H    0.138367
    26  H    0.142690
    27  H    0.112682
    28  H    0.160685
    29  H    0.127250
    30  H    0.138034
    31  H    0.132782
    32  H    0.134724
    33  H    0.141799
    34  H    0.139184
    35  H    0.133919
    36  H    0.127239
    37  H    0.121124
    38  H    0.126241
    39  H    0.135521
    40  H    0.128745
    41  H    0.129516
    42  H    0.111000
    43  H    0.127793
    44  H    0.128845
    45  H    0.128064
    46  H    0.129541
    47  H    0.132496
    48  H    0.132090
    49  H    0.127335
    50  H    0.133062
    51  H    0.145911
    52  H    0.143115
    53  H    0.150580
    54  H    0.121641
    55  H    0.164669
    56  H    0.152341
    57  H    0.161394
    58  H    0.154882
    59  H    0.150375
 Sum of Mulliken charges =  -0.00000
 Mulliken charges with hydrogens summed into heavy atoms:
               1
     1  C   -0.026779
     2  C    0.027993
     3  C   -0.013389
     4  C    0.063621
     5  C   -0.021285
     6  C   -0.014200
     7  C    0.013769
     8  C    0.024427
     9  C   -0.010506
    10  C   -0.013607
    11  C    0.023913
    12  C   -0.010738
    13  C   -0.001706
    14  C   -0.002442
    15  C   -0.017022
    16  C    0.107042
    17  C   -0.045194
    18  C    0.011063
    19  C   -0.050375
    20  C    0.437499
    21  C    0.003579
    22  C   -0.023851
    23  O   -0.461813
 APT charges:
               1
     1  C    0.063230
     2  C    0.143028
     3  C    0.050587
     4  C    0.066455
     5  C    0.078431
     6  C    0.072069
     7  C    0.087151
     8  C    0.030623
     9  C    0.106227
    10  C    0.105363
    11  C    0.057838
    12  C    0.104617
    13  C    0.116604
    14  C    0.122359
    15  C    0.066873
    16  C    0.083463
    17  C   -0.005148
    18  C    0.107017
    19  C   -0.136290
    20  C    0.755828
    21  C   -0.105231
    22  C    0.037690
    23  O   -0.657143
    24  H   -0.021636
    25  H   -0.046116
    26  H   -0.019131
    27  H   -0.073908
    28  H    0.010504
    29  H   -0.052732
    30  H   -0.025079
    31  H   -0.034197
    32  H   -0.045947
    33  H   -0.047326
    34  H   -0.044450
    35  H   -0.042167
    36  H   -0.051011
    37  H   -0.040970
    38  H   -0.042787
    39  H   -0.053598
    40  H   -0.069656
    41  H   -0.040566
    42  H   -0.061438
    43  H   -0.064629
    44  H   -0.043348
    45  H   -0.047691
    46  H   -0.070066
    47  H   -0.067670
    48  H   -0.045111
    49  H   -0.043206
    50  H   -0.045951
    51  H   -0.009026
    52  H   -0.011561
    53  H   -0.012642
    54  H   -0.052405
    55  H   -0.017350
    56  H    0.009544
    57  H   -0.006625
    58  H   -0.005511
    59  H   -0.016182
 Sum of APT charges =   0.00000
 APT charges with hydrogens summed into heavy atoms:
               1
     1  C   -0.023653
     2  C    0.069120
     3  C   -0.016721
     4  C    0.032258
     5  C   -0.014842
     6  C   -0.014549
     7  C    0.036140
     8  C   -0.010347
     9  C    0.009842
    10  C   -0.004859
    11  C   -0.003600
    12  C   -0.003360
    13  C   -0.001153
    14  C    0.009578
    15  C   -0.022284
    16  C    0.083463
    17  C   -0.038377
    18  C    0.054612
    19  C   -0.144096
    20  C    0.755828
    21  C   -0.105231
    22  C    0.009372
    23  O   -0.657143
 Electronic spatial extent (au):  <R**2>=           8995.3983
 Charge=             -0.0000 electrons
 Dipole moment (field-independent basis, Debye):
    X=              1.6496    Y=              2.0147    Z=              1.5335  Tot=              3.0219
 Quadrupole moment (field-independent basis, Debye-Ang):
   XX=           -145.7999   YY=           -149.2358   ZZ=           -144.6835
   XY=             -5.2223   XZ=             -3.2160   YZ=             -4.2210
 Traceless Quadrupole moment (field-independent basis, Debye-Ang):
   XX=              0.7732   YY=             -2.6628   ZZ=              1.8896
   XY=             -5.2223   XZ=             -3.2160   YZ=             -4.2210
 Octapole moment (field-independent basis, Debye-Ang**2):
  XXX=              9.0581  YYY=              5.4380  ZZZ=             -4.7567  XYY=             10.3559
  XXY=              4.4117  XXZ=              5.4445  XZZ=              0.3807  YZZ=              2.9377
  YYZ=              7.4363  XYZ=              6.5255
 Hexadecapole moment (field-independent basis, Debye-Ang**3):
 XXXX=          -9788.9852 YYYY=          -1968.9655 ZZZZ=           -733.1106 XXXY=              2.1856
 XXXZ=            -11.8923 YYYX=            -21.4365 YYYZ=            -14.4521 ZZZX=              6.0818
 ZZZY=              5.1684 XXYY=          -1971.0964 XXZZ=          -1739.9463 YYZZ=           -447.8864
 XXYZ=            -10.0090 YYXZ=            -18.5601 ZZXY=             -5.3539
 N-N= 2.170911210017D+03 E-N=-6.507073041408D+03  KE= 9.261105679596D+02
  Exact polarizability: 274.056   0.803 210.594   0.675   0.063 179.604
 Approx polarizability: 316.540   5.325 312.216   5.382   8.666 312.316
 Calling FoFJK, ICntrl=    100127 FMM=F ISym2X=0 I1Cent= 0 IOpClX= 0 NMat=1 NMatS=1 NMatT=0.
 Full mass-weighted force constant matrix:
 Low frequencies ---   -5.9896   -2.2948   -0.0013   -0.0009   -0.0008    2.6735
 Low frequencies ---   39.5828   56.6252   77.6848
 Diagonal vibrational polarizability:
       11.7131116       7.5004409       9.1478037
 Harmonic frequencies (cm**-1), IR intensities (KM/Mole), Raman scattering
 activities (A**4/AMU), depolarization ratios for plane and unpolarized
 incident light, reduced masses (AMU), force constants (mDyne/A),
 and normal coordinates:
                      1                      2                      3
                      A                      A                      A
 Frequencies --     39.5779                56.6139                77.6845
 Red. masses --      3.8736                 3.3330                 3.4667
 Frc consts  --      0.0036                 0.0063                 0.0123
 IR Inten    --      0.1600                 0.4144                 0.4371
  Atom  AN      X      Y      Z        X      Y      Z        X      Y      Z
     1   6    -0.04   0.01   0.21    -0.01   0.02   0.04     0.03  -0.21  -0.11
     2   6     0.02  -0.01   0.10    -0.01   0.05   0.05     0.03  -0.02   0.02
     3   6     0.03  -0.01   0.05    -0.04   0.05   0.16     0.15  -0.02   0.21
     4   6    -0.02   0.01   0.04    -0.00  -0.01  -0.02     0.00   0.01   0.00
     5   6    -0.02   0.00   0.07     0.02  -0.01  -0.13    -0.02   0.01  -0.04
     6   6    -0.00   0.00  -0.01     0.02  -0.01  -0.12    -0.03   0.03  -0.00
     7   6    -0.01   0.00  -0.07     0.01  -0.02  -0.06    -0.01   0.05   0.00
     8   6    -0.00   0.00  -0.09    -0.00  -0.02  -0.03    -0.01   0.03   0.01
     9   6     0.00  -0.01  -0.11     0.01   0.00   0.04     0.02   0.02   0.03
    10   6    -0.01   0.00  -0.06    -0.02  -0.00   0.12     0.02  -0.01   0.04
    11   6     0.02  -0.01   0.00     0.01   0.03   0.07    -0.00  -0.02   0.02
    12   6     0.00  -0.00   0.10     0.00   0.03   0.12    -0.00  -0.05   0.01
    13   6     0.04  -0.02   0.16     0.04   0.08   0.05    -0.04  -0.06  -0.01
    14   6     0.00  -0.01   0.14     0.03   0.03  -0.07    -0.06  -0.05  -0.03
    15   6     0.01  -0.01   0.05     0.03   0.04  -0.12    -0.06  -0.01  -0.02
    16   6    -0.02   0.01  -0.01     0.01  -0.02  -0.03    -0.02  -0.01   0.01
    17   6    -0.09   0.03  -0.00    -0.02  -0.13  -0.04    -0.02  -0.04   0.00
    18   6     0.01   0.00  -0.08     0.01  -0.01  -0.05    -0.02   0.02   0.01
    19   6    -0.00  -0.02  -0.15     0.01  -0.01  -0.06    -0.03   0.03   0.00
    20   6    -0.01   0.01  -0.12    -0.02  -0.03   0.00    -0.00   0.06  -0.04
    21   6     0.01  -0.01  -0.05     0.00  -0.00  -0.03    -0.00   0.04   0.00
    22   6     0.09  -0.04  -0.04     0.02   0.04  -0.03     0.01   0.05   0.00
    23   8    -0.03   0.06  -0.15    -0.07  -0.09   0.09     0.03   0.14  -0.13
    24   1    -0.11   0.05   0.19    -0.04  -0.06   0.06     0.10  -0.37  -0.06
    25   1    -0.01  -0.01   0.26    -0.01   0.07   0.10     0.04  -0.19  -0.08
    26   1    -0.04   0.00   0.26     0.01   0.03  -0.05    -0.03  -0.21  -0.28
    27   1     0.09  -0.05   0.12     0.02   0.13   0.03    -0.05   0.10  -0.02
    28   1    -0.04   0.02   0.02    -0.09  -0.03   0.18     0.23  -0.14   0.27
    29   1     0.06  -0.03   0.10    -0.04   0.10   0.22     0.16  -0.04   0.22
    30   1     0.07  -0.03  -0.02    -0.04   0.07   0.16     0.14   0.11   0.31
    31   1    -0.08   0.03   0.03    -0.03  -0.09  -0.01     0.01  -0.01   0.01
    32   1     0.04  -0.02   0.12    -0.00   0.06  -0.17    -0.05   0.03  -0.07
    33   1    -0.08   0.02   0.11     0.05  -0.06  -0.17     0.01  -0.01  -0.06
    34   1    -0.04   0.00  -0.03     0.03  -0.03  -0.14    -0.03   0.04   0.01
    35   1     0.06  -0.00  -0.02    -0.00   0.02  -0.13    -0.06   0.03   0.00
    36   1    -0.04   0.02  -0.07     0.03  -0.06  -0.05    -0.00   0.05   0.00
    37   1     0.01   0.02  -0.09    -0.03  -0.05  -0.03    -0.01   0.03   0.01
    38   1     0.03  -0.04  -0.11     0.06   0.04   0.04     0.03   0.03   0.03
    39   1    -0.01   0.00  -0.15    -0.02  -0.01   0.05     0.03   0.03   0.03
    40   1     0.01  -0.01  -0.07     0.00   0.03   0.21     0.04  -0.01   0.06
    41   1    -0.04   0.04  -0.06    -0.08  -0.07   0.14     0.01  -0.03   0.04
    42   1     0.08  -0.03  -0.00     0.05   0.10   0.06    -0.01   0.00   0.02
    43   1     0.03  -0.01   0.11     0.01   0.07   0.20     0.01  -0.05   0.03
    44   1    -0.06   0.02   0.11    -0.03  -0.04   0.14     0.00  -0.08   0.01
    45   1     0.11  -0.04   0.16     0.09   0.17   0.05    -0.04  -0.03  -0.01
    46   1     0.02  -0.01   0.23     0.03   0.08   0.10    -0.03  -0.08  -0.02
    47   1     0.03  -0.01   0.17     0.05   0.08  -0.14    -0.08  -0.05  -0.05
    48   1    -0.06   0.01   0.15    -0.01  -0.05  -0.08    -0.05  -0.07  -0.03
    49   1     0.07  -0.03   0.04     0.07   0.13  -0.13    -0.07   0.01  -0.02
    50   1    -0.01   0.00   0.04     0.03  -0.00  -0.21    -0.07  -0.01  -0.03
    51   1    -0.07   0.07  -0.04    -0.09  -0.20   0.02    -0.01  -0.04   0.02
    52   1    -0.15   0.06  -0.00     0.04  -0.19  -0.12    -0.03  -0.04  -0.01
    53   1    -0.10  -0.01   0.04    -0.03  -0.08  -0.01    -0.02  -0.05   0.00
    54   1     0.06   0.02  -0.08     0.02   0.01  -0.05    -0.02   0.03   0.01
    55   1    -0.01   0.01  -0.22    -0.01  -0.01  -0.08    -0.02   0.03   0.00
    56   1     0.01  -0.09  -0.16     0.03  -0.03  -0.07    -0.04   0.03   0.00
    57   1     0.10  -0.04  -0.03    -0.03   0.08  -0.00     0.02   0.06   0.03
    58   1     0.12  -0.05   0.00     0.08   0.08  -0.04     0.01   0.06  -0.00
    59   1     0.12  -0.07  -0.09     0.02  -0.02  -0.04     0.02   0.07  -0.00
                      4                      5                      6
                      A                      A                      A
 Frequencies --     98.4181               106.9119               127.6685
 Red. masses --      3.2370                 2.7411                 4.0231
 Frc consts  --      0.0185                 0.0185                 0.0386
 IR Inten    --      0.5718                 0.0325                 1.5531
  Atom  AN      X      Y      Z        X      Y      Z        X      Y      Z
     1   6    -0.06   0.03   0.23     0.00  -0.05  -0.01     0.02  -0.08   0.04
     2   6     0.04  -0.03   0.04     0.01  -0.06  -0.02     0.06  -0.07  -0.02
     3   6     0.04  -0.03  -0.09     0.07  -0.06  -0.12     0.09  -0.07  -0.08
     4   6    -0.00  -0.03  -0.04    -0.01   0.02   0.04     0.02   0.01  -0.02
     5   6    -0.01  -0.02  -0.13    -0.04   0.01   0.12    -0.03   0.00   0.04
     6   6    -0.01   0.00  -0.15    -0.01   0.03  -0.04    -0.02   0.05  -0.05
     7   6     0.01  -0.01  -0.05    -0.01   0.02  -0.02     0.02   0.06  -0.04
     8   6    -0.01   0.01   0.02     0.00   0.03  -0.06     0.00   0.07   0.01
     9   6     0.01   0.01   0.05     0.01  -0.01  -0.11     0.05   0.09   0.10
    10   6    -0.00  -0.01   0.09    -0.01  -0.00  -0.03     0.06   0.02   0.09
    11   6    -0.01  -0.00   0.05     0.01  -0.01   0.01     0.02   0.02   0.03
    12   6    -0.00  -0.02  -0.02     0.00  -0.02   0.10     0.03  -0.06  -0.02
    13   6    -0.05  -0.01  -0.08     0.03  -0.00   0.09    -0.07  -0.09  -0.06
    14   6    -0.02  -0.01  -0.05    -0.03  -0.03  -0.05    -0.08  -0.05   0.01
    15   6    -0.03  -0.01   0.02    -0.02   0.01  -0.12    -0.08  -0.00   0.05
    16   6    -0.00  -0.01   0.05    -0.01  -0.02  -0.04    -0.02   0.04   0.01
    17   6     0.02  -0.03   0.05     0.00  -0.09  -0.05    -0.06   0.06   0.02
    18   6    -0.00  -0.00   0.06    -0.02   0.00  -0.01     0.01   0.09  -0.04
    19   6    -0.01   0.01   0.11    -0.02   0.03   0.10     0.03   0.05  -0.15
    20   6     0.03   0.02   0.00    -0.00   0.03   0.08    -0.01   0.01  -0.02
    21   6    -0.00   0.01  -0.03    -0.01   0.04   0.04     0.04   0.04  -0.05
    22   6    -0.03   0.06  -0.03    -0.00   0.11   0.04     0.06   0.02  -0.05
    23   8     0.11   0.07  -0.09     0.02   0.02   0.07    -0.12  -0.14   0.18
    24   1    -0.19   0.12   0.19     0.04   0.04  -0.03     0.00  -0.03   0.02
    25   1    -0.00  -0.01   0.30     0.02  -0.13  -0.07     0.05  -0.14   0.04
    26   1    -0.05   0.02   0.34    -0.05  -0.06   0.08    -0.03  -0.09   0.09
    27   1     0.15  -0.11   0.07    -0.02  -0.13  -0.00     0.07  -0.11  -0.01
    28   1    -0.06   0.05  -0.13     0.12   0.01  -0.14     0.07  -0.03  -0.09
    29   1     0.09  -0.08  -0.02     0.06  -0.11  -0.18     0.10  -0.09  -0.07
    30   1     0.11  -0.07  -0.21     0.06  -0.06  -0.11     0.11  -0.08  -0.12
    31   1    -0.02  -0.08  -0.03     0.02   0.08   0.02     0.01   0.06  -0.03
    32   1    -0.01   0.02  -0.14     0.07  -0.06   0.24     0.03  -0.06   0.11
    33   1    -0.02  -0.07  -0.15    -0.18   0.05   0.21    -0.12   0.03   0.10
    34   1    -0.01  -0.05  -0.20    -0.07  -0.02  -0.13    -0.07   0.02  -0.10
    35   1    -0.03   0.08  -0.17     0.08   0.12  -0.08     0.01   0.10  -0.07
    36   1     0.05  -0.06  -0.04    -0.04  -0.02  -0.02     0.05   0.07  -0.04
    37   1    -0.06   0.02   0.02     0.02   0.07  -0.06    -0.04   0.02   0.01
    38   1     0.04   0.02   0.05     0.06  -0.08  -0.11     0.05   0.18   0.11
    39   1     0.00   0.01   0.05     0.00   0.02  -0.18     0.08   0.07   0.18
    40   1     0.01  -0.00   0.12     0.02  -0.01  -0.00     0.07   0.03   0.11
    41   1    -0.02  -0.05   0.09    -0.07  -0.00  -0.02     0.08  -0.02   0.09
    42   1    -0.05   0.02   0.05     0.07  -0.00  -0.00    -0.01   0.06   0.03
    43   1    -0.02  -0.01  -0.02     0.03  -0.01   0.15     0.06  -0.08  -0.03
    44   1     0.05  -0.05  -0.03    -0.06  -0.04   0.11     0.07  -0.10  -0.03
    45   1    -0.12   0.01  -0.08     0.14   0.06   0.09    -0.14  -0.10  -0.05
    46   1    -0.03  -0.02  -0.16     0.01  -0.03   0.19    -0.05  -0.13  -0.14
    47   1    -0.04  -0.01  -0.07    -0.02   0.01  -0.10    -0.13  -0.09   0.02
    48   1     0.03  -0.01  -0.06    -0.09  -0.13  -0.04    -0.05  -0.02   0.00
    49   1    -0.07  -0.01   0.03     0.03   0.11  -0.13    -0.11  -0.04   0.06
    50   1    -0.01  -0.01   0.04    -0.05  -0.01  -0.21    -0.10   0.04   0.10
    51   1    -0.02  -0.06   0.06    -0.07  -0.15  -0.00     0.00   0.11  -0.01
    52   1     0.07  -0.05   0.04     0.07  -0.15  -0.09    -0.14   0.11   0.03
    53   1     0.03   0.02   0.03    -0.00  -0.02  -0.04    -0.06  -0.01   0.03
    54   1    -0.01  -0.04   0.06    -0.05  -0.06  -0.01     0.05   0.16  -0.03
    55   1     0.01  -0.01   0.18    -0.03  -0.01   0.17     0.03   0.10  -0.25
    56   1    -0.06   0.08   0.12    -0.01   0.13   0.11     0.08  -0.08  -0.16
    57   1    -0.02   0.07  -0.01     0.01   0.11   0.07    -0.01   0.07  -0.06
    58   1    -0.05   0.07  -0.07    -0.03   0.11  -0.00     0.15   0.06  -0.02
    59   1    -0.04   0.10  -0.01    -0.00   0.15   0.04     0.07  -0.08  -0.07
                      7                      8                      9
                      A                      A                      A
 Frequencies --    139.0209               160.4573               180.9711
 Red. masses --      2.2326                 1.6476                 1.9896
 Frc consts  --      0.0254                 0.0250                 0.0384
 IR Inten    --      0.0490                 0.0236                 0.2310
  Atom  AN      X      Y      Z        X      Y      Z        X      Y      Z
     1   6     0.02   0.01  -0.07    -0.01  -0.01   0.01    -0.00  -0.02   0.02
     2   6    -0.02   0.01  -0.00    -0.00  -0.00   0.00     0.03   0.02  -0.01
     3   6    -0.00   0.01   0.01     0.01  -0.00  -0.00     0.07   0.02   0.01
     4   6    -0.00   0.03   0.05    -0.01   0.00   0.00     0.00   0.04  -0.04
     5   6     0.01   0.01   0.14    -0.01   0.00   0.01     0.02   0.05   0.03
     6   6     0.05   0.00  -0.13    -0.00   0.00  -0.02     0.02   0.01   0.11
     7   6     0.01  -0.05  -0.05    -0.00  -0.00  -0.00    -0.00   0.03  -0.03
     8   6    -0.01  -0.05  -0.02    -0.01  -0.01   0.01     0.00  -0.00  -0.07
     9   6    -0.02  -0.03   0.01    -0.00   0.02   0.09     0.02  -0.02  -0.09
    10   6    -0.03  -0.02   0.06     0.01  -0.02   0.04    -0.02  -0.02   0.04
    11   6    -0.03  -0.01   0.04    -0.01   0.00  -0.06    -0.02  -0.01   0.04
    12   6    -0.02   0.03  -0.03    -0.00   0.02  -0.11    -0.01   0.01  -0.01
    13   6    -0.03   0.06  -0.09     0.03  -0.04   0.05    -0.04   0.03  -0.08
    14   6     0.05   0.05  -0.00     0.00   0.01   0.12     0.03   0.04   0.01
    15   6     0.04  -0.02   0.07     0.03   0.00  -0.04     0.02  -0.01   0.04
    16   6     0.00  -0.02   0.04     0.00  -0.01  -0.05    -0.01  -0.02   0.03
    17   6    -0.02  -0.01   0.04     0.01  -0.01  -0.05    -0.06  -0.05   0.03
    18   6     0.01  -0.05   0.01    -0.01  -0.01  -0.03    -0.01  -0.03  -0.01
    19   6    -0.01  -0.05  -0.02    -0.00   0.00   0.00    -0.02   0.00   0.04
    20   6    -0.02  -0.01  -0.01    -0.01   0.00   0.01    -0.00  -0.01  -0.02
    21   6    -0.00  -0.01   0.01    -0.01   0.01   0.00     0.01   0.02  -0.07
    22   6     0.05   0.05   0.01    -0.02   0.02   0.00    -0.00  -0.01  -0.06
    23   8    -0.03   0.03  -0.05    -0.00   0.01  -0.00    -0.00  -0.07   0.03
    24   1     0.10   0.03  -0.07    -0.01  -0.01   0.01    -0.06  -0.09   0.04
    25   1     0.00  -0.01  -0.14    -0.00  -0.02   0.01     0.01   0.02   0.10
    26   1     0.00   0.01  -0.05    -0.02  -0.01   0.01     0.01  -0.01  -0.05
    27   1    -0.07   0.02  -0.01    -0.00  -0.01   0.00     0.05   0.03  -0.01
    28   1     0.06   0.00   0.03     0.01   0.00  -0.00     0.09   0.01   0.01
    29   1    -0.02   0.01  -0.04     0.01  -0.01  -0.01     0.08   0.00   0.01
    30   1    -0.04   0.03   0.07     0.01   0.00  -0.00     0.07   0.05   0.02
    31   1    -0.01   0.09   0.03    -0.00   0.01   0.00    -0.03   0.08  -0.05
    32   1     0.18  -0.06   0.31     0.01   0.00   0.02    -0.02   0.02   0.01
    33   1    -0.20   0.07   0.27    -0.02   0.01   0.01     0.07   0.09   0.03
    34   1    -0.01  -0.12  -0.31    -0.00  -0.01  -0.03     0.02   0.10   0.22
    35   1     0.20   0.17  -0.21     0.01   0.02  -0.02     0.01  -0.13   0.16
    36   1     0.02  -0.12  -0.04    -0.00  -0.01  -0.00    -0.04   0.10  -0.05
    37   1    -0.04  -0.04  -0.02    -0.03  -0.06   0.01     0.02   0.04  -0.07
    38   1     0.02  -0.02   0.01    -0.03   0.11   0.09     0.11  -0.08  -0.10
    39   1    -0.05  -0.04   0.00     0.01  -0.01   0.18    -0.02  -0.01  -0.17
    40   1    -0.02  -0.01   0.09    -0.00   0.01   0.09     0.02  -0.01   0.12
    41   1    -0.07  -0.04   0.06     0.04  -0.11   0.05    -0.13  -0.06   0.06
    42   1    -0.06   0.00   0.04    -0.06   0.04  -0.05    -0.03  -0.00   0.05
    43   1    -0.06   0.05  -0.03    -0.03  -0.03  -0.24    -0.05   0.03  -0.00
    44   1     0.03   0.01  -0.04     0.03   0.17  -0.13     0.04  -0.02  -0.02
    45   1    -0.13   0.05  -0.08     0.09  -0.16   0.04    -0.15   0.03  -0.07
    46   1    -0.01   0.09  -0.19     0.02  -0.01   0.12    -0.01   0.05  -0.18
    47   1     0.06   0.04   0.02     0.06  -0.04   0.25     0.04   0.02   0.05
    48   1     0.11   0.11  -0.01    -0.10   0.11   0.16     0.06   0.11   0.01
    49   1    -0.00  -0.07   0.08     0.13   0.03  -0.06     0.00  -0.05   0.05
    50   1     0.09  -0.02   0.12    -0.03  -0.00  -0.10     0.05  -0.02   0.07
    51   1    -0.05  -0.02   0.03    -0.34  -0.23  -0.02    -0.30  -0.19   0.05
    52   1    -0.00  -0.02   0.04     0.38  -0.22  -0.10     0.16  -0.19  -0.02
    53   1    -0.02   0.02   0.06     0.01   0.40  -0.04    -0.07   0.21   0.08
    54   1     0.04  -0.05   0.01    -0.03  -0.00  -0.03     0.01  -0.08  -0.01
    55   1    -0.03  -0.04  -0.05    -0.01  -0.01   0.02    -0.01  -0.03   0.11
    56   1    -0.01  -0.09  -0.03     0.02   0.03   0.01    -0.06   0.08   0.05
    57   1    -0.10   0.16   0.05    -0.06   0.05   0.01     0.22  -0.16  -0.07
    58   1     0.23   0.15   0.00     0.02   0.04  -0.01    -0.24  -0.14  -0.07
    59   1     0.05  -0.12  -0.01    -0.02  -0.02   0.01     0.01   0.25  -0.05
                     10                     11                     12
                      A                      A                      A
 Frequencies --    193.2564               203.4873               212.1723
 Red. masses --      2.7409                 2.4082                 3.5831
 Frc consts  --      0.0603                 0.0588                 0.0950
 IR Inten    --      0.7101                 1.1849                 0.6638
  Atom  AN      X      Y      Z        X      Y      Z        X      Y      Z
     1   6    -0.04  -0.08   0.06    -0.11  -0.05   0.01     0.07   0.05   0.02
     2   6     0.03   0.01  -0.02    -0.06   0.01  -0.02     0.08   0.06  -0.00
     3   6     0.16   0.01  -0.07    -0.06   0.01   0.06     0.14   0.07   0.03
     4   6    -0.01   0.06  -0.03    -0.06   0.03  -0.05     0.05   0.04  -0.04
     5   6     0.03   0.07  -0.06    -0.05   0.02   0.12     0.08   0.04   0.06
     6   6     0.03   0.03   0.03    -0.01   0.01  -0.02     0.10  -0.01  -0.03
     7   6     0.01   0.00   0.04    -0.01   0.01  -0.04     0.04  -0.05  -0.02
     8   6     0.00  -0.06   0.04     0.00   0.00   0.01    -0.02  -0.04   0.04
     9   6    -0.03  -0.04   0.05     0.03   0.01   0.05    -0.09   0.01   0.07
    10   6    -0.01  -0.03  -0.05     0.05  -0.01   0.01    -0.07   0.03  -0.04
    11   6    -0.02  -0.04  -0.04     0.05  -0.00  -0.01    -0.09   0.02  -0.04
    12   6    -0.02   0.04  -0.02     0.06  -0.01  -0.01    -0.11   0.03   0.00
    13   6     0.05   0.06   0.02     0.07  -0.02   0.02    -0.07   0.00   0.09
    14   6     0.09   0.04   0.02     0.05  -0.02  -0.01    -0.12  -0.02  -0.01
    15   6     0.07  -0.03   0.02     0.04  -0.00  -0.00    -0.10   0.02  -0.06
    16   6     0.01  -0.05  -0.01     0.04   0.00  -0.00    -0.06   0.02  -0.02
    17   6     0.02  -0.03  -0.01     0.08   0.03  -0.00    -0.01   0.03  -0.03
    18   6    -0.01  -0.06  -0.00     0.02   0.01   0.02    -0.04  -0.02   0.03
    19   6    -0.05  -0.04  -0.03    -0.01   0.04   0.04    -0.00  -0.03   0.07
    20   6    -0.07   0.01   0.01     0.00  -0.00  -0.04     0.03  -0.07  -0.02
    21   6    -0.03   0.04   0.01    -0.04  -0.00  -0.08     0.03  -0.04  -0.06
    22   6    -0.08   0.07   0.00    -0.11  -0.01  -0.09     0.02  -0.06  -0.06
    23   8    -0.12   0.02   0.03     0.05  -0.06  -0.01     0.10  -0.12  -0.01
    24   1    -0.13  -0.14   0.07    -0.25  -0.25   0.06     0.01  -0.02   0.04
    25   1     0.01  -0.09   0.17    -0.09   0.07   0.20     0.07   0.12   0.09
    26   1    -0.08  -0.08   0.01    -0.05  -0.04  -0.17     0.12   0.06  -0.05
    27   1     0.05  -0.03  -0.01    -0.03   0.06  -0.03     0.11   0.09  -0.01
    28   1     0.20   0.05  -0.08    -0.10  -0.05   0.08     0.24   0.05   0.06
    29   1     0.19  -0.08  -0.09    -0.05   0.04   0.12     0.13   0.03  -0.03
    30   1     0.18   0.05  -0.07    -0.04   0.04   0.05     0.11   0.12   0.11
    31   1     0.01   0.05  -0.03    -0.10   0.12  -0.08     0.02   0.10  -0.06
    32   1    -0.03   0.11  -0.11     0.07  -0.09   0.26     0.16  -0.01   0.14
    33   1     0.11   0.06  -0.10    -0.20   0.13   0.24     0.01   0.11   0.13
    34   1     0.09   0.04   0.07    -0.07  -0.02  -0.08     0.11  -0.06  -0.08
    35   1    -0.01  -0.00   0.05     0.07   0.07  -0.05     0.17   0.03  -0.05
    36   1     0.02   0.02   0.04     0.02   0.03  -0.04     0.08  -0.04  -0.02
    37   1     0.01  -0.09   0.05    -0.03  -0.02   0.01    -0.05  -0.06   0.04
    38   1    -0.10  -0.01   0.06     0.01   0.06   0.06    -0.17   0.08   0.08
    39   1    -0.02  -0.06   0.11     0.06   0.01   0.10    -0.10  -0.03   0.16
    40   1    -0.04  -0.05  -0.11     0.03  -0.00   0.00    -0.10   0.02  -0.10
    41   1     0.06   0.00  -0.06     0.09  -0.01   0.01     0.01   0.06  -0.05
    42   1    -0.02  -0.06  -0.03     0.05   0.00  -0.01    -0.09   0.01  -0.04
    43   1    -0.06   0.05  -0.03     0.06  -0.02  -0.01    -0.08  -0.00  -0.02
    44   1    -0.05   0.07  -0.02     0.05   0.00  -0.01    -0.16   0.09   0.01
    45   1     0.09   0.04   0.01     0.11  -0.02   0.01     0.04   0.00   0.08
    46   1     0.05   0.11   0.05     0.06  -0.02   0.05    -0.10  -0.00   0.20
    47   1     0.12   0.05   0.03     0.03  -0.01  -0.03    -0.10   0.01  -0.05
    48   1     0.09   0.05   0.02     0.05  -0.05  -0.01    -0.17  -0.09  -0.00
    49   1     0.08  -0.07   0.02     0.03  -0.00   0.00    -0.08   0.08  -0.06
    50   1     0.12  -0.05   0.04     0.04  -0.00   0.00    -0.13   0.02  -0.11
    51   1     0.26   0.12  -0.03     0.24   0.12  -0.01     0.11   0.11  -0.04
    52   1    -0.23   0.12   0.03    -0.06   0.12   0.04    -0.11   0.10   0.01
    53   1     0.02  -0.30  -0.03     0.09  -0.14  -0.04    -0.01  -0.09  -0.06
    54   1    -0.02  -0.03  -0.00     0.02  -0.00   0.02    -0.08  -0.04   0.03
    55   1    -0.09  -0.05  -0.06     0.01   0.00   0.12     0.04  -0.04   0.13
    56   1    -0.05  -0.08  -0.03    -0.06   0.10   0.05    -0.04   0.02   0.08
    57   1    -0.21   0.16   0.01    -0.00  -0.09  -0.11     0.02  -0.07  -0.07
    58   1     0.04   0.14  -0.02    -0.26  -0.08  -0.12     0.02  -0.07  -0.05
    59   1    -0.10  -0.07   0.03    -0.13   0.13  -0.04     0.01  -0.07  -0.05
                     13                     14                     15
                      A                      A                      A
 Frequencies --    230.1819               235.3554               250.1192
 Red. masses --      1.1111                 1.2133                 2.0105
 Frc consts  --      0.0347                 0.0396                 0.0741
 IR Inten    --      0.0340                 0.2712                 0.7263
  Atom  AN      X      Y      Z        X      Y      Z        X      Y      Z
     1   6     0.04   0.01  -0.02     0.02   0.02   0.00     0.00   0.02  -0.00
     2   6     0.02  -0.01   0.00    -0.01  -0.01   0.02    -0.01  -0.01  -0.00
     3   6     0.00  -0.01   0.03    -0.01  -0.01  -0.03    -0.03  -0.01   0.01
     4   6     0.01  -0.00  -0.00     0.00  -0.02   0.03    -0.00  -0.02  -0.00
     5   6    -0.00  -0.00   0.01     0.00  -0.02  -0.01    -0.00  -0.02   0.02
     6   6     0.00   0.00  -0.02     0.00  -0.01  -0.03    -0.01  -0.03   0.10
     7   6     0.00   0.00  -0.01     0.00  -0.01  -0.01    -0.01   0.00  -0.03
     8   6     0.00  -0.01  -0.01     0.00  -0.01  -0.02     0.00  -0.02  -0.07
     9   6    -0.00   0.01   0.03     0.00   0.02   0.04     0.01   0.01   0.03
    10   6    -0.00  -0.01   0.01     0.00  -0.01   0.04     0.00  -0.02   0.06
    11   6    -0.01  -0.01  -0.01    -0.01   0.00  -0.01    -0.00   0.01  -0.01
    12   6    -0.01   0.01  -0.02    -0.01   0.00  -0.01    -0.00  -0.01  -0.00
    13   6     0.01   0.01   0.01     0.00  -0.00  -0.00    -0.01  -0.01  -0.02
    14   6     0.01   0.01   0.02     0.01   0.01   0.02     0.02   0.01   0.03
    15   6     0.01  -0.01  -0.00     0.01  -0.01  -0.00     0.02  -0.02  -0.00
    16   6    -0.00  -0.01  -0.02    -0.01  -0.01  -0.03    -0.01  -0.00  -0.06
    17   6    -0.01  -0.01  -0.02    -0.04   0.00  -0.03    -0.11   0.02  -0.06
    18   6    -0.01  -0.01  -0.01    -0.00  -0.01  -0.04    -0.00  -0.02  -0.08
    19   6    -0.01   0.00   0.01    -0.01   0.00   0.00     0.02   0.01   0.05
    20   6    -0.01   0.01  -0.00    -0.00   0.01   0.01     0.04  -0.02   0.03
    21   6     0.00   0.01  -0.01     0.01   0.00   0.03     0.01  -0.01  -0.01
    22   6    -0.01   0.00  -0.00     0.03   0.02   0.03     0.00   0.12  -0.01
    23   8    -0.02   0.01   0.00    -0.01   0.03   0.00     0.11  -0.02  -0.01
    24   1     0.23   0.32  -0.09    -0.04  -0.11   0.03     0.00   0.03  -0.01
    25   1     0.05  -0.25  -0.28    -0.01   0.15   0.09    -0.01   0.02  -0.02
    26   1    -0.14  -0.02   0.28     0.12   0.03  -0.12     0.01   0.02   0.01
    27   1     0.01   0.00   0.00    -0.02  -0.03   0.02    -0.00  -0.00  -0.00
    28   1    -0.29  -0.04   0.01     0.34   0.02   0.01    -0.09  -0.02   0.01
    29   1     0.11   0.02   0.31    -0.15  -0.03  -0.36    -0.02   0.01   0.06
    30   1     0.17   0.00  -0.19    -0.22  -0.03   0.25    -0.01  -0.01  -0.03
    31   1     0.01   0.00  -0.00     0.01  -0.04   0.04    -0.01  -0.01  -0.01
    32   1     0.01  -0.01   0.02     0.00   0.01  -0.03    -0.05  -0.03  -0.01
    33   1    -0.03  -0.00   0.02     0.00  -0.05  -0.03     0.05  -0.00   0.00
    34   1    -0.01  -0.00  -0.03    -0.01  -0.02  -0.04    -0.02   0.06   0.20
    35   1     0.01   0.01  -0.02     0.00   0.00  -0.04    -0.02  -0.15   0.15
    36   1     0.00  -0.00  -0.01    -0.01  -0.03  -0.01    -0.07   0.06  -0.04
    37   1    -0.00  -0.03  -0.01     0.01  -0.04  -0.02    -0.00  -0.08  -0.06
    38   1    -0.01   0.05   0.03     0.01   0.08   0.04     0.04   0.10   0.03
    39   1     0.00  -0.01   0.07     0.00  -0.00   0.09    -0.00  -0.01   0.09
    40   1    -0.00  -0.01   0.02     0.01   0.01   0.06     0.02   0.01   0.13
    41   1     0.01  -0.03   0.01     0.01  -0.04   0.04    -0.02  -0.09   0.07
    42   1    -0.02   0.01  -0.01    -0.01   0.03  -0.01     0.00   0.06  -0.02
    43   1    -0.02   0.01  -0.03    -0.01   0.00  -0.02     0.01  -0.00   0.03
    44   1    -0.02   0.02  -0.02    -0.01   0.01  -0.01    -0.02  -0.05   0.01
    45   1     0.02  -0.01   0.00    -0.01  -0.02  -0.00    -0.06  -0.02  -0.02
    46   1     0.00   0.02   0.02     0.00   0.01  -0.01    -0.00   0.01  -0.06
    47   1     0.03   0.00   0.03     0.03  -0.00   0.05     0.04  -0.01   0.09
    48   1     0.01   0.03   0.02     0.00   0.04   0.03     0.00   0.07   0.04
    49   1     0.03  -0.02  -0.00     0.03  -0.03  -0.00     0.04  -0.07  -0.01
    50   1     0.02  -0.01   0.00     0.01  -0.01   0.01     0.02  -0.01   0.02
    51   1     0.10   0.06  -0.03     0.10   0.09  -0.05     0.08   0.15  -0.11
    52   1    -0.14   0.06  -0.00    -0.20   0.09  -0.02    -0.35   0.14  -0.05
    53   1    -0.02  -0.15  -0.02    -0.04  -0.17  -0.01    -0.13  -0.23  -0.00
    54   1    -0.01  -0.02  -0.01    -0.01  -0.02  -0.04    -0.03  -0.07  -0.08
    55   1    -0.01  -0.02   0.05    -0.01  -0.01   0.03     0.02  -0.03   0.14
    56   1    -0.04   0.04   0.02    -0.01   0.05   0.01     0.04   0.13   0.06
    57   1     0.22  -0.15   0.00     0.33  -0.17   0.06    -0.27   0.33   0.05
    58   1    -0.26  -0.13  -0.02    -0.28  -0.14   0.01     0.28   0.30  -0.08
    59   1     0.00   0.28   0.01     0.05   0.36   0.02    -0.02  -0.15  -0.00
                     16                     17                     18
                      A                      A                      A
 Frequencies --    257.8819               268.6917               281.2798
 Red. masses --      1.2297                 2.1812                 2.4354
 Frc consts  --      0.0482                 0.0928                 0.1135
 IR Inten    --      0.4503                 0.0464                 0.1920
  Atom  AN      X      Y      Z        X      Y      Z        X      Y      Z
     1   6    -0.03   0.02   0.01     0.01   0.01  -0.01     0.00  -0.00  -0.01
     2   6    -0.04   0.02   0.03     0.00  -0.01  -0.00    -0.00  -0.02  -0.01
     3   6     0.05   0.02   0.03    -0.03  -0.01  -0.00    -0.03  -0.02  -0.01
     4   6    -0.04   0.01   0.01    -0.00  -0.01  -0.01    -0.00  -0.01  -0.01
     5   6    -0.02   0.01  -0.02    -0.04  -0.01  -0.00     0.01  -0.01   0.01
     6   6    -0.02  -0.00   0.01    -0.05   0.02   0.03     0.01  -0.04   0.07
     7   6    -0.02   0.00  -0.01    -0.01   0.05  -0.02     0.00  -0.02  -0.05
     8   6    -0.01   0.00  -0.01    -0.01   0.04   0.01    -0.02  -0.06  -0.02
     9   6     0.01  -0.00  -0.00    -0.00   0.00  -0.06    -0.02  -0.03   0.04
    10   6     0.01  -0.01   0.01    -0.04  -0.01   0.04    -0.02  -0.02   0.05
    11   6     0.02  -0.00   0.00    -0.04  -0.00   0.02    -0.01   0.01  -0.01
    12   6     0.02  -0.01   0.00    -0.03   0.05  -0.10    -0.01   0.00   0.04
    13   6     0.02  -0.01  -0.00    -0.01  -0.01   0.04     0.01   0.00   0.05
    14   6     0.01  -0.01  -0.01    -0.02   0.01   0.06    -0.02  -0.04  -0.09
    15   6     0.01   0.00   0.00    -0.01   0.00  -0.02    -0.03  -0.00   0.01
    16   6     0.01   0.00   0.00     0.00  -0.02   0.04     0.01   0.01   0.01
    17   6     0.03   0.02   0.00     0.13  -0.13   0.03     0.12   0.16   0.01
    18   6     0.00   0.00   0.00    -0.01   0.01   0.07    -0.00  -0.05   0.01
    19   6    -0.00   0.01   0.00    -0.01  -0.01   0.01    -0.02  -0.07  -0.01
    20   6    -0.00  -0.01  -0.02     0.00   0.01  -0.03    -0.03  -0.02  -0.01
    21   6    -0.02  -0.01  -0.02     0.02   0.02  -0.05     0.01   0.00  -0.04
    22   6    -0.02  -0.02  -0.02     0.12   0.03  -0.05     0.09   0.15  -0.03
    23   8     0.02  -0.04  -0.01    -0.01  -0.02   0.00    -0.07   0.01  -0.03
    24   1     0.17   0.38  -0.08     0.02   0.01  -0.01     0.01   0.01  -0.01
    25   1     0.00  -0.28  -0.26     0.00   0.03  -0.01    -0.00   0.00  -0.02
    26   1    -0.23  -0.02   0.35     0.03   0.01  -0.01     0.01  -0.00   0.01
    27   1    -0.06   0.02   0.02     0.01  -0.01  -0.00     0.00  -0.03  -0.00
    28   1     0.44   0.03   0.08    -0.00  -0.02   0.01    -0.04  -0.02  -0.01
    29   1    -0.06  -0.04  -0.30    -0.06   0.01  -0.04    -0.03  -0.00  -0.00
    30   1    -0.14   0.08   0.32    -0.07  -0.03   0.04    -0.03  -0.03  -0.02
    31   1    -0.07   0.00   0.01    -0.01  -0.00  -0.01    -0.02   0.00  -0.01
    32   1    -0.04   0.04  -0.04    -0.06  -0.03  -0.01    -0.03   0.00  -0.02
    33   1     0.00  -0.00  -0.04    -0.02  -0.01  -0.01     0.07   0.01  -0.01
    34   1    -0.01   0.02   0.03    -0.07   0.06   0.07     0.01   0.05   0.18
    35   1    -0.03  -0.03   0.02    -0.07  -0.03   0.05     0.01  -0.17   0.12
    36   1    -0.02   0.01  -0.01     0.01   0.09  -0.03    -0.01   0.04  -0.06
    37   1    -0.02   0.00  -0.01    -0.01   0.11   0.01    -0.05  -0.06  -0.03
    38   1     0.02  -0.01  -0.00     0.06  -0.09  -0.06    -0.00   0.02   0.04
    39   1     0.01   0.00  -0.01    -0.02   0.03  -0.16    -0.04  -0.06   0.08
    40   1     0.00   0.00   0.02     0.01   0.00   0.12    -0.04   0.02   0.10
    41   1    -0.00  -0.01   0.01    -0.12  -0.06   0.06    -0.03  -0.07   0.06
    42   1     0.02   0.00   0.00    -0.12  -0.01   0.03     0.00   0.04  -0.01
    43   1     0.02  -0.01   0.01    -0.09  -0.01  -0.27     0.00  -0.01   0.04
    44   1     0.02  -0.01   0.00     0.05   0.22  -0.13    -0.04   0.02   0.04
    45   1     0.02  -0.00  -0.00     0.05  -0.10   0.03     0.12   0.06   0.04
    46   1     0.02  -0.01   0.00    -0.02   0.02   0.09    -0.01  -0.01   0.15
    47   1     0.00  -0.01  -0.02     0.01  -0.00   0.11    -0.06   0.02  -0.23
    48   1     0.02  -0.02  -0.01    -0.06   0.03   0.08     0.03  -0.20  -0.11
    49   1    -0.00  -0.00   0.01     0.05   0.07  -0.03    -0.10  -0.02   0.03
    50   1     0.01   0.00   0.01    -0.03  -0.02  -0.09    -0.01   0.01   0.06
    51   1     0.01   0.01   0.00     0.41  -0.02   0.13     0.01   0.13  -0.04
    52   1     0.05   0.01   0.02    -0.08  -0.02   0.03     0.31   0.12   0.14
    53   1     0.03   0.04  -0.01     0.16  -0.43  -0.08     0.15   0.38  -0.08
    54   1     0.01   0.00   0.00     0.01   0.01   0.07     0.02  -0.07   0.01
    55   1     0.00   0.00   0.01     0.01   0.02  -0.02    -0.04  -0.06  -0.03
    56   1    -0.01   0.02   0.00    -0.05  -0.07   0.00    -0.02  -0.09  -0.01
    57   1    -0.09   0.02  -0.04     0.08   0.07  -0.00     0.19   0.13   0.10
    58   1     0.05   0.01  -0.01     0.22   0.07  -0.01     0.01   0.14  -0.11
    59   1    -0.03  -0.10  -0.02     0.15  -0.05  -0.12     0.12   0.31  -0.08
                     19                     20                     21
                      A                      A                      A
 Frequencies --    283.2823               297.8672               316.4783
 Red. masses --      2.2911                 2.6967                 2.4702
 Frc consts  --      0.1083                 0.1410                 0.1458
 IR Inten    --      0.0620                 0.3590                 0.1018
  Atom  AN      X      Y      Z        X      Y      Z        X      Y      Z
     1   6    -0.06  -0.04  -0.01    -0.14  -0.08  -0.04    -0.11  -0.04  -0.00
     2   6    -0.03   0.04   0.00    -0.10   0.06   0.01    -0.06   0.02  -0.02
     3   6     0.05   0.04  -0.03     0.00   0.07  -0.07    -0.02   0.02  -0.01
     4   6    -0.02   0.03   0.03    -0.06   0.05   0.06    -0.02  -0.00   0.00
     5   6     0.04   0.04  -0.02    -0.02   0.06  -0.04     0.06   0.00   0.01
     6   6     0.05  -0.02  -0.02    -0.01   0.02  -0.02     0.07  -0.06   0.03
     7   6    -0.01  -0.05   0.00    -0.02   0.01  -0.02     0.03  -0.07   0.01
     8   6     0.00  -0.03  -0.06    -0.01   0.00  -0.01     0.02  -0.03   0.02
     9   6     0.02  -0.05  -0.08    -0.01   0.03   0.06    -0.04   0.01   0.01
    10   6    -0.04   0.00   0.15     0.01  -0.02  -0.03    -0.01   0.08  -0.07
    11   6     0.02   0.07   0.03    -0.01  -0.03  -0.02     0.01   0.04   0.03
    12   6     0.04   0.01  -0.03    -0.02  -0.01   0.02     0.01   0.00   0.03
    13   6    -0.03  -0.05   0.00     0.02   0.02   0.01    -0.09  -0.03  -0.02
    14   6    -0.05  -0.02   0.04     0.03  -0.00  -0.03    -0.05  -0.00   0.07
    15   6    -0.02   0.04  -0.03     0.02  -0.03   0.02    -0.02   0.03  -0.01
    16   6     0.02   0.04  -0.03    -0.01  -0.02  -0.01     0.02   0.02   0.02
    17   6     0.06   0.09  -0.04    -0.03  -0.01  -0.00     0.05  -0.10   0.02
    18   6     0.01  -0.01  -0.03    -0.01  -0.00  -0.00     0.05   0.02  -0.01
    19   6     0.01  -0.01  -0.00     0.01   0.01   0.05     0.06  -0.01  -0.10
    20   6    -0.01  -0.01   0.03     0.02  -0.00   0.01     0.03  -0.03  -0.00
    21   6    -0.03  -0.02   0.06    -0.00   0.01   0.02    -0.01  -0.04   0.02
    22   6    -0.03  -0.08   0.06     0.23  -0.06   0.03    -0.02   0.15   0.02
    23   8    -0.01   0.01   0.00     0.08  -0.04   0.02     0.04  -0.02  -0.02
    24   1    -0.05  -0.09   0.00    -0.10  -0.14  -0.02    -0.09   0.03  -0.02
    25   1    -0.03  -0.07   0.02    -0.09  -0.16  -0.02    -0.05  -0.17  -0.02
    26   1    -0.11  -0.04  -0.06    -0.27  -0.09  -0.10    -0.22  -0.06   0.07
    27   1    -0.06   0.03   0.01    -0.15   0.04   0.01    -0.07   0.02  -0.02
    28   1    -0.06   0.09  -0.07    -0.11   0.15  -0.11     0.01   0.02  -0.01
    29   1     0.13  -0.03   0.07     0.09  -0.03   0.03    -0.01  -0.01  -0.02
    30   1     0.16   0.07  -0.16     0.12   0.09  -0.22    -0.01   0.06   0.00
    31   1    -0.00   0.01   0.04    -0.05   0.02   0.07    -0.01   0.00  -0.00
    32   1     0.03   0.10  -0.05    -0.05   0.14  -0.09     0.06   0.03   0.00
    33   1     0.08   0.01  -0.05     0.04  -0.00  -0.10     0.09   0.02   0.01
    34   1     0.09  -0.04  -0.02     0.02   0.03  -0.01     0.10  -0.05   0.05
    35   1     0.06  -0.02  -0.02    -0.02   0.01  -0.02     0.09  -0.09   0.04
    36   1    -0.06  -0.10   0.01    -0.02   0.00  -0.02     0.04  -0.07   0.02
    37   1     0.03  -0.01  -0.06    -0.03  -0.01  -0.01     0.04  -0.04   0.02
    38   1     0.19  -0.17  -0.10    -0.08   0.15   0.07    -0.11   0.02   0.01
    39   1    -0.06  -0.02  -0.25     0.03   0.00   0.18    -0.06  -0.01   0.04
    40   1     0.00   0.09   0.35     0.00  -0.04  -0.08    -0.06   0.03  -0.20
    41   1    -0.22  -0.14   0.19     0.08  -0.00  -0.04     0.04   0.20  -0.09
    42   1     0.00   0.17   0.03    -0.00  -0.05  -0.02     0.03   0.00   0.03
    43   1     0.06  -0.04  -0.09    -0.02   0.01   0.06     0.05  -0.01   0.03
    44   1     0.09   0.04  -0.04    -0.06  -0.04   0.03     0.03  -0.04   0.02
    45   1    -0.06  -0.08   0.00     0.05   0.04   0.00    -0.24  -0.04  -0.01
    46   1    -0.02  -0.07  -0.03     0.01   0.03   0.04    -0.06  -0.04  -0.17
    47   1    -0.05  -0.04   0.08     0.03   0.02  -0.06    -0.03  -0.03   0.15
    48   1    -0.08   0.01   0.05     0.06  -0.03  -0.03    -0.08   0.09   0.08
    49   1     0.03   0.08  -0.05    -0.02  -0.08   0.03     0.04   0.08  -0.03
    50   1    -0.09   0.05  -0.08     0.05  -0.03   0.07    -0.09   0.03  -0.07
    51   1     0.22   0.19  -0.06    -0.07  -0.02  -0.02     0.06  -0.14   0.11
    52   1    -0.07   0.19   0.04    -0.01  -0.02  -0.01     0.05  -0.14  -0.06
    53   1     0.07  -0.06  -0.08    -0.04   0.03   0.02     0.05  -0.13  -0.00
    54   1     0.01  -0.04  -0.03    -0.02  -0.03  -0.00     0.09   0.08  -0.01
    55   1    -0.02  -0.01  -0.01     0.01   0.00   0.07     0.04   0.04  -0.20
    56   1     0.04   0.00  -0.00     0.02   0.04   0.05     0.10  -0.10  -0.11
    57   1    -0.03  -0.10   0.02     0.32  -0.10   0.09     0.11   0.11   0.16
    58   1    -0.04  -0.10   0.10     0.26  -0.10   0.16    -0.17   0.12  -0.12
    59   1    -0.03  -0.10   0.06     0.31  -0.05  -0.13    -0.01   0.38   0.04
                     22                     23                     24
                      A                      A                      A
 Frequencies --    327.5017               340.0858               348.6597
 Red. masses --      2.7186                 2.1639                 2.5112
 Frc consts  --      0.1718                 0.1475                 0.1799
 IR Inten    --      0.0247                 0.0413                 0.2473
  Atom  AN      X      Y      Z        X      Y      Z        X      Y      Z
     1   6     0.04   0.05  -0.01     0.01  -0.04   0.01     0.04   0.11  -0.03
     2   6     0.01   0.01   0.01     0.02  -0.03  -0.01    -0.01   0.03   0.00
     3   6     0.05   0.02   0.00    -0.06  -0.04   0.01     0.14   0.05  -0.01
     4   6    -0.00  -0.00   0.01     0.01   0.01  -0.02    -0.03  -0.02   0.00
     5   6    -0.05  -0.01  -0.00     0.02   0.02  -0.01    -0.11  -0.04   0.00
     6   6    -0.06   0.02  -0.02     0.02   0.02  -0.00    -0.13  -0.01  -0.01
     7   6    -0.04   0.02   0.01     0.03   0.02  -0.02    -0.07   0.00   0.02
     8   6    -0.02   0.02  -0.04     0.02  -0.02   0.01    -0.06  -0.02   0.06
     9   6    -0.06   0.05  -0.01     0.02  -0.00   0.03    -0.03  -0.06   0.02
    10   6    -0.08  -0.03   0.01     0.03   0.04  -0.03     0.00  -0.01  -0.01
    11   6    -0.03  -0.01  -0.03     0.02   0.03  -0.00     0.05   0.00   0.02
    12   6    -0.07  -0.01   0.09    -0.00  -0.04   0.11     0.07  -0.05   0.03
    13   6    -0.09   0.02   0.02    -0.08   0.00  -0.05     0.03  -0.04  -0.06
    14   6     0.03  -0.04   0.03    -0.01   0.04   0.10     0.03   0.02   0.04
    15   6     0.01  -0.13   0.09     0.02   0.02  -0.05     0.04   0.05  -0.06
    16   6     0.02  -0.03  -0.06     0.00   0.00  -0.05     0.01   0.02  -0.00
    17   6     0.17  -0.04  -0.08     0.08   0.03  -0.06     0.00   0.03  -0.00
    18   6     0.03   0.03  -0.07    -0.02  -0.04   0.02    -0.03  -0.01   0.04
    19   6     0.05   0.05  -0.06    -0.06  -0.02   0.10    -0.01  -0.05  -0.01
    20   6     0.04   0.03   0.01    -0.04   0.01  -0.00    -0.01  -0.04  -0.01
    21   6    -0.01   0.01   0.02     0.01   0.02  -0.04    -0.03  -0.03   0.00
    22   6    -0.05  -0.02   0.02     0.06  -0.05  -0.04     0.04   0.05   0.01
    23   8     0.05  -0.00   0.03    -0.07   0.03  -0.00     0.01  -0.05  -0.02
    24   1     0.02  -0.01   0.01     0.02   0.01   0.00     0.00   0.02  -0.01
    25   1     0.01   0.13   0.02     0.02  -0.09  -0.01    -0.03   0.28   0.01
    26   1     0.12   0.06  -0.06    -0.04  -0.04   0.05     0.20   0.13  -0.12
    27   1     0.01   0.01   0.01     0.03  -0.03  -0.00    -0.01   0.04   0.00
    28   1     0.02   0.03  -0.00    -0.03  -0.06   0.02     0.08   0.08  -0.02
    29   1     0.08  -0.02   0.04    -0.11   0.04  -0.05     0.25  -0.09   0.11
    30   1     0.09   0.04  -0.04    -0.13  -0.09   0.06     0.28   0.18  -0.11
    31   1     0.00  -0.01   0.01     0.00   0.02  -0.02    -0.03  -0.03   0.01
    32   1    -0.04  -0.02   0.01     0.02   0.02  -0.01    -0.11  -0.08   0.02
    33   1    -0.07  -0.02   0.00     0.02   0.03  -0.01    -0.14  -0.05   0.02
    34   1    -0.07   0.01  -0.04     0.02   0.03   0.01    -0.15  -0.02  -0.03
    35   1    -0.06   0.06  -0.03     0.02   0.00   0.00    -0.15   0.04  -0.02
    36   1    -0.07   0.01   0.01     0.04   0.04  -0.02    -0.04   0.02   0.02
    37   1     0.01  -0.02  -0.04     0.00  -0.02   0.01    -0.06  -0.00   0.06
    38   1    -0.08   0.12  -0.00    -0.01   0.02   0.03    -0.04  -0.13   0.02
    39   1    -0.04   0.03   0.06     0.00  -0.02   0.05    -0.01  -0.03  -0.04
    40   1    -0.04  -0.01   0.10    -0.00   0.02  -0.10    -0.06   0.00  -0.07
    41   1    -0.12  -0.11   0.03     0.08   0.09  -0.04     0.03   0.05  -0.03
    42   1     0.04   0.03  -0.04     0.09   0.06  -0.02     0.08   0.01   0.01
    43   1    -0.01   0.01   0.19     0.07   0.01   0.28     0.10  -0.02   0.11
    44   1    -0.15  -0.09   0.11    -0.06  -0.23   0.13     0.08  -0.16   0.04
    45   1    -0.21   0.06   0.03    -0.34   0.01  -0.03    -0.09  -0.05  -0.05
    46   1    -0.06   0.05  -0.11    -0.04   0.00  -0.29     0.05  -0.05  -0.17
    47   1     0.08  -0.00  -0.00     0.06  -0.03   0.27     0.03  -0.05   0.17
    48   1     0.10  -0.05   0.02    -0.07   0.23   0.13    -0.03   0.14   0.07
    49   1    -0.04  -0.36   0.11     0.14   0.06  -0.08     0.13   0.17  -0.08
    50   1     0.06  -0.05   0.31    -0.04   0.01  -0.13    -0.01   0.02  -0.19
    51   1     0.18  -0.08   0.01     0.11   0.04  -0.06    -0.00   0.04  -0.03
    52   1     0.29  -0.08  -0.04     0.11   0.04  -0.02    -0.02   0.04   0.01
    53   1     0.21   0.02  -0.21     0.09   0.04  -0.11    -0.01   0.03   0.02
    54   1     0.04   0.05  -0.07    -0.08  -0.09   0.02    -0.05   0.03   0.04
    55   1     0.03   0.05  -0.08    -0.05  -0.07   0.20    -0.00  -0.02  -0.07
    56   1     0.12   0.06  -0.06    -0.12   0.08   0.11    -0.00  -0.12  -0.02
    57   1    -0.05  -0.03  -0.02     0.00  -0.03  -0.09     0.14   0.04   0.12
    58   1    -0.07  -0.03   0.03     0.15  -0.04   0.04     0.00   0.04  -0.03
    59   1    -0.06  -0.02   0.05     0.07  -0.17  -0.08     0.08   0.16  -0.05
                     25                     26                     27
                      A                      A                      A
 Frequencies --    365.8976               390.1537               406.0115
 Red. masses --      2.4766                 2.7887                 3.3757
 Frc consts  --      0.1954                 0.2501                 0.3279
 IR Inten    --      0.1077                 1.8552                 0.6262
  Atom  AN      X      Y      Z        X      Y      Z        X      Y      Z
     1   6     0.09   0.02  -0.02     0.11  -0.08  -0.00    -0.04   0.04  -0.02
     2   6    -0.02  -0.01   0.12     0.00  -0.01   0.18    -0.05   0.00  -0.00
     3   6     0.04  -0.01  -0.03    -0.08  -0.01  -0.05     0.05   0.01  -0.00
     4   6    -0.05   0.00   0.10    -0.04   0.05   0.12    -0.01  -0.04   0.02
     5   6     0.00   0.01  -0.00     0.01   0.09  -0.02     0.02  -0.06   0.01
     6   6     0.02  -0.07   0.01     0.02   0.07  -0.02     0.02  -0.07   0.00
     7   6    -0.02  -0.06  -0.10    -0.00   0.04   0.02     0.04  -0.04   0.04
     8   6    -0.00   0.00  -0.11    -0.02   0.00   0.07     0.06   0.08   0.04
     9   6    -0.01   0.10   0.03     0.01  -0.07  -0.00     0.17   0.03  -0.02
    10   6     0.02   0.08  -0.04    -0.00  -0.07   0.00     0.15  -0.06   0.01
    11   6     0.02   0.03   0.04    -0.00  -0.04  -0.01     0.03  -0.04  -0.05
    12   6     0.04  -0.00  -0.02    -0.01  -0.01   0.02    -0.00   0.07   0.02
    13   6     0.02  -0.03  -0.00    -0.00   0.02  -0.01    -0.02   0.10   0.02
    14   6     0.01  -0.03  -0.01    -0.01   0.04   0.01    -0.09   0.12   0.01
    15   6     0.01   0.03   0.03    -0.01  -0.00  -0.03    -0.10  -0.05   0.04
    16   6     0.02   0.02   0.05    -0.01  -0.02  -0.01    -0.05  -0.01  -0.05
    17   6     0.04  -0.06   0.06     0.00   0.04  -0.01     0.03  -0.02  -0.07
    18   6     0.02   0.00  -0.03    -0.02   0.01   0.03    -0.05   0.05   0.03
    19   6    -0.06   0.05   0.04     0.01  -0.01  -0.05    -0.08   0.03   0.01
    20   6    -0.06  -0.01  -0.03     0.02  -0.02  -0.06    -0.07  -0.08  -0.04
    21   6    -0.04  -0.02  -0.01    -0.00   0.02  -0.03    -0.02  -0.07   0.02
    22   6    -0.04  -0.02  -0.01    -0.06   0.05  -0.04     0.00   0.03   0.03
    23   8    -0.06  -0.02  -0.03     0.09  -0.10  -0.03    -0.04  -0.07  -0.08
    24   1     0.20  -0.10   0.01     0.32  -0.21   0.04    -0.05   0.03  -0.02
    25   1    -0.01   0.15  -0.09     0.04  -0.07  -0.13    -0.05   0.08  -0.01
    26   1     0.19   0.03  -0.16     0.07  -0.08  -0.16     0.01   0.04  -0.02
    27   1    -0.08  -0.05   0.12    -0.07  -0.07   0.19    -0.06   0.00  -0.00
    28   1    -0.03   0.13  -0.09    -0.15   0.20  -0.14     0.05   0.02  -0.01
    29   1     0.10  -0.11   0.00    -0.12  -0.01  -0.12     0.11  -0.09   0.04
    30   1     0.12  -0.05  -0.17    -0.11  -0.23  -0.16     0.13   0.10  -0.04
    31   1    -0.13  -0.03   0.10    -0.16   0.02   0.12    -0.01  -0.05   0.02
    32   1    -0.02   0.13  -0.07    -0.04   0.24  -0.11     0.03  -0.04   0.01
    33   1     0.09  -0.04  -0.07     0.09  -0.01  -0.11     0.02  -0.06   0.01
    34   1     0.03   0.01   0.10     0.04   0.03  -0.06     0.02  -0.09  -0.01
    35   1     0.06  -0.20   0.05     0.02   0.13  -0.04     0.01  -0.04  -0.01
    36   1    -0.08  -0.08  -0.10     0.05   0.06   0.02     0.07  -0.06   0.04
    37   1    -0.06  -0.03  -0.11    -0.03   0.02   0.07     0.08   0.13   0.04
    38   1    -0.06   0.30   0.03     0.02  -0.19  -0.01     0.22  -0.04  -0.02
    39   1    -0.01   0.03   0.21     0.03  -0.02  -0.11     0.22   0.09  -0.10
    40   1     0.01   0.04  -0.13    -0.00  -0.06   0.02     0.21  -0.06   0.08
    41   1     0.08   0.16  -0.05    -0.01  -0.09   0.01     0.16  -0.15   0.02
    42   1    -0.00  -0.01   0.04     0.01  -0.04  -0.02     0.06  -0.02  -0.06
    43   1     0.04  -0.03  -0.07    -0.03   0.02   0.06    -0.04   0.10   0.04
    44   1     0.08   0.03  -0.03    -0.04  -0.04   0.02    -0.05   0.08   0.03
    45   1     0.02  -0.04  -0.00    -0.02   0.03  -0.01     0.03   0.14   0.02
    46   1     0.02  -0.04  -0.00    -0.00   0.02  -0.02    -0.04   0.02   0.07
    47   1    -0.04  -0.02  -0.05     0.03   0.02   0.08    -0.02   0.12   0.08
    48   1     0.04  -0.07  -0.02    -0.05   0.10   0.03    -0.11   0.19   0.02
    49   1     0.00   0.06   0.03     0.02   0.04  -0.04    -0.21  -0.26   0.07
    50   1    -0.02   0.03   0.01     0.00  -0.03  -0.07     0.02  -0.01   0.26
    51   1     0.07  -0.09   0.13    -0.00   0.06  -0.05     0.05  -0.04  -0.02
    52   1     0.04  -0.09   0.00     0.01   0.05   0.04     0.07  -0.03  -0.06
    53   1     0.06  -0.10   0.02     0.00   0.07  -0.01     0.05  -0.01  -0.13
    54   1     0.09  -0.09  -0.03    -0.03   0.09   0.03    -0.10   0.07   0.03
    55   1    -0.03  -0.02   0.20     0.02   0.03  -0.12     0.02   0.03   0.09
    56   1    -0.13   0.21   0.06    -0.00  -0.09  -0.06    -0.15   0.08   0.02
    57   1    -0.12   0.02  -0.04    -0.05   0.04  -0.05    -0.01   0.08   0.14
    58   1     0.02   0.01  -0.01    -0.14   0.05  -0.12     0.02   0.08  -0.06
    59   1    -0.06  -0.11   0.02    -0.09   0.12   0.04     0.01   0.08   0.02
                     28                     29                     30
                      A                      A                      A
 Frequencies --    422.9314               429.4886               450.2991
 Red. masses --      2.4314                 3.6033                 3.1080
 Frc consts  --      0.2562                 0.3916                 0.3713
 IR Inten    --      0.1307                 0.6497                 0.7718
  Atom  AN      X      Y      Z        X      Y      Z        X      Y      Z
     1   6     0.03  -0.02   0.01    -0.01  -0.00   0.00     0.01  -0.08   0.01
     2   6     0.02  -0.01   0.01     0.00  -0.01  -0.02     0.05   0.11   0.06
[...]
 06635,0.00003356,-0.00051485,-0.00026629,-0.00018963,0.00014459,0.0002
 6130,0.00002161,0.00007716,0.00007823,0.00003421,-0.00135668,0.0001222
 2,0.00029750,0.00006069,0.00018383,0.00008159,-0.00002569,-0.00008511,
 0.00002700,0.00001967,0.00001053,0.00002283,0.00017482,-0.00009586,0.0
 0009243,0.00035389,-0.00013661,0.00004847,0.00060761,0.00001561,-0.001
 44923,0.00049044,0.00011329,0.00032254,-0.00001943,-0.00002337,0.00014
 454,0.00000588,-0.00001097,-0.00001378,0.00000401,0.00000250,0.0000047
 3,0.00001691,0.00001340,-0.00000598,0.00000263,-0.00000077,0.00000147,
 -0.00000101,-0.00000154,0.00000287,0.00000079,-0.00000003,-0.00000107,
 0.00000139,0.00000033,-0.00000029,-0.00000077,-0.00000494,0.00000131,0
 .00000236,-0.00000488,0.00000162,-0.00000340,0.00000098,0.00000045,0.0
 0000148,-0.00000370,-0.00000226,0.00000225,0.00000064,-0.00000126,0.00
 004911,0.00000447,-0.00001131,0.00000568,0.00000927,0.00000625,0.00000
 803,-0.00002417,0.00000829,0.00006359,-0.00010444,0.00000696,0.0000444
 6,0.00002137,0.00002684,-0.00005048,-0.00001980,0.00013303,0.12358834,
 0.00018166,-0.00017819,0.00007599,-0.00071898,-0.00001354,-0.00061473,
 -0.00022121,0.00008282,0.00030813,0.00051264,0.00001872,-0.00058130,0.
 00006875,-0.00006157,-0.00011615,0.00038864,-0.00011539,0.00005216,0.0
 0036231,-0.00017518,0.00040656,-0.00033387,0.00015603,-0.00006527,0.00
 025227,-0.00001939,0.00008950,-0.00000405,0.00003640,-0.00000181,0.000
 00258,0.00003216,0.00000084,0.00000887,-0.00000406,-0.00000875,-0.0000
 0346,0.00000290,0.00000200,0.00000858,-0.00000970,-0.00000544,-0.00001
 582,-0.00000179,0.00002888,0.00001600,-0.00002227,-0.00006840,-0.00006
 832,0.00003165,0.00003606,-0.00018405,0.00025754,0.00000279,0.00025102
 ,-0.00002427,-0.00011211,-0.00039308,0.00033510,0.00084274,-0.00079583
 ,-0.00109494,0.00273514,-0.00484359,-0.04954933,0.00798885,-0.00011222
 ,-0.00001662,-0.00012145,0.00008301,0.00008769,0.00005272,-0.00000050,
 0.00002628,-0.00000560,-0.00001051,0.00004741,0.00001113,-0.00006543,-
 0.00089703,-0.00006645,0.00014237,0.00000414,-0.00002406,-0.00004961,-
 0.00006127,-0.00001051,-0.00019367,0.00020875,-0.00009922,-0.00005088,
 -0.00000357,0.00017288,0.00001401,0.00010661,-0.00005137,-0.00004793,0
 .00003646,-0.00007657,-0.00022025,0.00010564,-0.00008498,-0.00044731,0
 .00002178,-0.00000786,-0.00011982,0.00011867,0.00015521,0.00046191,0.0
 0000613,0.00012963,-0.00006558,-0.00001812,0.00011042,-0.00002375,0.00
 000087,0.00000367,-0.00000192,-0.00001468,0.00000786,0.00000673,-0.000
 00307,-0.00000905,0.00000219,0.00000172,0.00000283,0.00000321,0.000002
 15,-0.00000202,0.00000092,0.00000037,-0.00000006,0.00000057,-0.0000004
 4,-0.00000080,0.00000226,-0.00000311,-0.00000181,0.00000130,-0.0000049
 5,0.00000180,-0.00000121,0.00000258,0.00000045,0.00000304,-0.00000453,
 0.00000057,0.00000609,-0.00001028,-0.00001418,0.00006533,-0.00000034,-
 0.00001280,-0.00000078,0.00000160,-0.00000937,0.00001768,-0.00002729,0
 .00000252,0.00008553,-0.00003820,-0.00006197,0.00004194,-0.00002415,-0
 .00003256,-0.00024492,-0.00007598,-0.00000678,0.00535666,0.04916445,0.
 00008325,-0.00018423,0.00031510,-0.00013112,-0.00019967,-0.00054097,0.
 00022592,-0.00042896,-0.00003606,0.00072840,0.00074806,0.00014554,0.00
 012047,0.00008116,0.00010620,-0.00021315,0.00047783,0.00041409,-0.0049
 0526,0.00059384,-0.00193516,-0.00047298,-0.00054346,0.00023471,0.00001
 808,0.00013734,-0.00000404,0.00001368,-0.00005153,-0.00003281,0.000025
 70,-0.00002135,0.00000004,-0.00002167,0.00000029,0.00000508,0.00001334
 ,-0.00000123,0.00000255,-0.00002239,0.00000329,0.00000113,0.00005043,0
 .00001841,-0.00001749,-0.00008356,0.00001060,0.00002717,0.00003113,0.0
 0000436,-0.00003246,0.00022426,-0.00004374,-0.00008810,-0.00021906,0.0
 0019050,-0.00020002,0.00228480,-0.00129798,-0.00004197,0.01063700,0.00
 191736,-0.02096158,0.11470990,0.00697243,-0.24968461,-0.00133491,0.000
 20412,0.00010237,0.00008618,0.00014146,0.00002577,-0.00002705,-0.00004
 945,-0.00000269,-0.00001168,0.00012664,0.00004495,0.00029805,-0.000459
 85,0.00037110,0.00025538,0.00019852,0.00004418,0.00016616,0.00024142,0
 .00007056,0.00004845,0.00066672,0.00052614,-0.00009146,-0.00002489,0.0
 0011019,0.00000311,-0.00006845,0.00001303,-0.00006141,-0.00000823,0.00
 000407,0.00001850,-0.00008422,-0.00000059,-0.00000246,-0.00004750,0.00
 008916,0.00071708,0.00001370,-0.00155070,0.00005137,-0.00002377,0.0000
 6923,0.00002792,0.00000649,0.00004336,0.00000418,-0.00000040,0.0000088
 0,0.00002009,0.00003520,-0.00002043,0.00001579,0.00001912,0.00000826,-
 0.00000040,-0.00000446,0.00000606,0.00000145,0.00000133,-0.00000219,0.
 00000420,0.00000431,0.00000277,-0.00000316,-0.00000184,0.00000061,0.00
 000052,0.00001421,-0.00000160,-0.00000295,0.00001786,-0.00000281,0.000
 00755,0.00000029,0.00000162,0.00000275,-0.00000399,0.00000199,-0.00000
 733,0.00000568,0.00001103,-0.00002468,0.00000009,-0.00001202,-0.000013
 50,0.00000928,0.00001715,0.00000726,0.00001704,0.00001134,-0.00001239,
 0.00000306,0.00005433,-0.00001321,0.00007537,-0.00001174,0.00006389,0.
 00011885,-0.00005616,-0.12397112,-0.00967658,0.27204654,0.00022044,-0.
 00023142,0.00016936,-0.00076993,0.00035215,-0.00042054,0.00003911,0.00
 028891,0.00033275,0.00013123,0.00093073,0.00021654,-0.00023152,0.00007
 964,-0.00042626,0.00026247,0.00037066,-0.00000015,0.00046733,-0.000431
 81,0.00108890,0.00005773,-0.00006417,-0.00016620,0.00002516,0.00007240
 ,0.00005887,0.00001161,-0.00001367,-0.00003464,0.00001373,0.00002403,0
 .00002201,-0.00000166,-0.00000985,-0.00001103,0.00000444,0.00000337,0.
 00000493,-0.00000359,-0.00001164,-0.00000640,0.00000550,0.00000934,0.0
 0001418,-0.00000276,-0.00003983,-0.00005868,-0.00000109,0.00001790,-0.
 00000752,-0.00020428,-0.00004856,0.00011657,0.00018184,-0.00006704,0.0
 0026194,-0.00060595,-0.00404561,-0.00379716,-0.01338819,0.01890096,-0.
 00041607,-0.12886769,0.12137389,0.01182415,-0.00166905,0.00143076,0.00
 071289,0.00010882,0.00011664,0.00004938,0.00000024,0.00000624,-0.00002
 715,-0.00002382,-0.00005276,-0.00003102,-0.00004904,-0.00056152,0.0006
 0481,0.00008955,-0.00009621,-0.00008546,-0.00002964,-0.00010651,-0.000
 03210,-0.00001794,-0.00019457,-0.00021547,0.00022162,0.00007182,0.0001
 9632,0.00013306,-0.00069088,-0.00004236,0.00012734,-0.00015789,0.00020
 586,0.00018782,-0.00025409,0.00014190,0.00041488,-0.00000221,0.0005361
 4,-0.00002239,-0.00006213,0.00002678,0.00001716,0.00002095,-0.00009793
 ,-0.00000690,0.00000766,-0.00000164,0.00003207,-0.00000729,-0.00000945
 ,0.00001244,0.00001268,-0.00000980,0.00000038,-0.00000371,0.00000311,-
 0.00000255,-0.00000014,0.00000678,0.00000582,0.00000444,-0.00000589,0.
 00000272,0.00000207,0.00000178,-0.00000171,-0.00000148,0.,0.00000345,0
 .00000518,-0.00000391,-0.00000088,0.00000476,-0.00000057,0.00000548,0.
 00000343,0.00000091,0.00000313,-0.00000408,0.00000714,-0.00000022,-0.0
 0000854,-0.00001591,0.00002534,-0.00000856,-0.00001384,-0.00000850,0.0
 0002052,-0.00000115,0.00001169,-0.00000479,0.00001073,-0.00000635,0.00
 000521,0.00002134,0.00011314,0.00010589,0.00019357,0.00019155,0.000297
 46,0.00026919,-0.00917616,0.01403645,0.00112536,0.13870797,-0.00005302
 ,0.00005603,-0.00009715,-0.00005813,-0.00013785,0.00021880,-0.00014014
 ,0.00003444,-0.00004379,-0.00049380,-0.00017925,0.00021535,0.00013907,
 0.00020543,-0.00033113,0.00089268,-0.00032134,-0.00051405,0.00059996,-
 0.00023803,-0.00034086,-0.00006439,-0.00000016,0.00036759,0.00005782,-
 0.00003410,-0.00001592,0.00000174,-0.00000544,0.00003453,0.00000978,-0
 .00004972,-0.00003642,-0.00001232,0.00002076,0.00002531,-0.00000046,-0
 .00000409,-0.00001182,0.00000463,0.00001962,0.00000428,-0.00000225,-0.
 00000221,-0.00002100,-0.00002155,0.00008399,0.00003796,0.00001579,-0.0
 0006265,-0.00004198,0.00014014,0.00000666,-0.00033653,-0.00030807,-0.0
 0032023,-0.00058974,-0.00036331,0.00090238,-0.00002341,0.00032383,-0.0
 0040054,0.00080691,0.12144588,-0.23177731,-0.01660678,0.00038369,-0.00
 008069,0.00010011,-0.00003167,-0.00003638,-0.00000579,0.00001983,0.000
 02370,0.00000110,-0.00000785,0.00000328,0.00000819,-0.00048340,-0.0000
 3882,-0.00017195,-0.00007842,-0.00002302,0.00001178,0.00000885,0.00002
 903,-0.00000400,-0.00000586,-0.00003620,0.00003276,0.00010744,0.000114
 98,0.00007993,-0.00017888,-0.00019721,-0.00030407,-0.00011239,0.000071
 33,0.00008687,-0.00040900,0.00010492,-0.00014037,-0.00079008,0.0001928
 3,-0.00057488,-0.00012316,0.00004815,0.00017756,0.00000469,-0.00011608
 ,-0.00009388,-0.00000814,0.00000815,0.00000525,-0.00005449,0.00003740,
 0.00006161,-0.00001388,0.00000114,0.00000883,-0.00000843,-0.00000818,-
 0.00001114,-0.00000740,0.00000375,0.00000283,-0.00000955,-0.00001019,0
 .00001608,0.00000131,-0.00000254,-0.00000622,0.00000166,0.00000289,0.0
 0000176,-0.00000806,-0.00000544,0.00000810,0.00000105,-0.00000833,0.00
 000434,-0.00000529,-0.00000138,0.00000107,0.00000076,0.00000259,-0.000
 00397,-0.00000942,0.00002716,0.00002579,0.00002156,0.00000824,-0.00001
 444,0.00000167,0.00006663,0.00005114,-0.00002369,-0.00002048,0.0000266
 4,-0.00006180,0.00003413,0.00012427,0.00011236,0.00008926,0.00025014,0
 .00034080,0.00009913,0.00051408,-0.00182954,0.00171677,-0.00029631,-0.
 13378915,0.25099378,-0.00013541,0.00010941,-0.00000792,0.00033497,-0.0
 0058886,0.00032950,0.00008338,-0.00024421,-0.00025169,0.00032360,0.000
 33357,0.00098765,-0.00032178,-0.00036202,-0.00019767,-0.00008519,-0.00
 015113,-0.00115617,0.00048772,0.00040958,0.00115337,0.00006781,-0.0000
 0217,-0.00025046,0.00004702,0.00004434,0.00002371,0.00002235,0.0000056
 5,-0.00002563,-0.00000569,0.00003123,0.00001916,0.00001424,-0.00001010
 ,-0.00001518,-0.00000336,0.00000291,0.00000317,0.00000576,-0.00001122,
 -0.00000508,-0.00001350,0.00000034,0.00001143,0.00003278,-0.00004497,-
 0.00004672,-0.00000534,0.00001873,0.00000249,-0.00013554,-0.00008011,0
 .00032923,0.00017446,0.00033129,0.00055223,-0.00142071,-0.00351214,-0.
 00445449,-0.01536812,0.02380758,0.00090579,0.01178450,-0.01685392,-0.0
 4910042,-0.00207851,0.00153384,0.00098302,-0.00003726,-0.00003577,-0.0
 0003296,0.00001504,-0.00002295,-0.00001395,0.00000728,-0.00002999,0.00
 001488,-0.00020124,0.00015711,-0.00009474,0.00008676,0.00015072,0.0000
 3787,0.00008742,0.00003747,0.00000521,-0.00005584,0.00020428,0.0000881
 2,0.00023624,0.00026049,0.00002143,-0.00009650,-0.00039402,-0.00012318
 ,0.00020119,0.00002445,0.00006663,0.00021670,-0.00001713,0.00022982,0.
 00063489,-0.00053207,-0.00140170,0.00009566,-0.00026843,0.00029494,0.0
 0006043,0.00012009,0.00004334,-0.00001263,-0.00000614,0.00001179,0.000
 04727,-0.00001650,-0.00004172,0.00000353,-0.00000370,0.00000163,-0.000
 00055,-0.00000375,-0.00000047,-0.00000002,0.00000056,0.00000042,0.0000
 0410,0.00000489,-0.00000450,-0.00000078,-0.00000041,0.00000043,0.00000
 008,-0.00000030,-0.00000008,0.00000295,-0.00000325,-0.00000272,0.00000
 037,-0.00000219,-0.00000075,0.00000205,0.00000235,-0.00000047,-0.00000
 006,-0.00000115,0.00000599,0.00000433,-0.00001484,-0.00001813,0.000017
 04,-0.00000113,0.00000476,-0.00000375,-0.00000656,-0.00002008,0.000008
 65,-0.00000461,-0.00000326,0.00000005,-0.00003153,0.00000679,0.0000345
 7,0.00002931,-0.00000796,0.00006320,0.00038702,-0.00011912,0.01508012,
 -0.02543816,-0.00143562,-0.01037129,0.02016215,0.05355211,-0.00001001,
 -0.00002005,0.00010266,0.00021927,0.00061683,-0.00047149,0.00007395,0.
 00009972,0.00004164,-0.00232413,0.00239052,-0.00281204,-0.00035445,0.0
 0022051,0.00004187,0.00007555,0.00010264,-0.00009551,0.00020773,-0.000
 18970,0.00107343,-0.00031123,-0.00026394,0.00047694,0.00032389,0.00018
 167,0.00011875,0.00004168,-0.00000019,-0.00003722,0.00000424,-0.000050
 54,-0.00003844,-0.00000957,0.00002348,0.00002206,-0.00000608,-0.000005
 88,-0.00001522,0.00000638,0.00002317,0.00000556,-0.00000800,-0.0000126
 3,-0.00003808,-0.00000017,0.00014608,0.00001887,0.00005167,-0.00008131
 ,-0.00008183,0.00029061,0.00014068,-0.00018901,-0.00047676,-0.00004047
 ,-0.00112379,-0.00021274,-0.00258328,0.00011669,-0.01256390,-0.0160941
 8,0.00030592,-0.15193851,-0.13019545,-0.00349444,0.00013152,0.00080428
 ,-0.00005570,0.00004323,-0.00000021,0.00001250,-0.00002669,-0.00006845
 ,0.00003058,0.00000780,-0.00002321,-0.00002737,0.00007734,0.00004072,0
 .00019196,-0.00004943,-0.00009479,-0.00006737,-0.00006850,-0.00002677,
 0.00003884,0.00006599,-0.00017233,-0.00009275,-0.00053750,-0.00130499,
 -0.00041458,0.00010489,-0.00019791,0.00001963,0.00019388,-0.00012255,-
 0.00003212,0.00004354,-0.00003019,-0.00002046,0.00005874,0.00003778,-0
 .00004127,-0.00004121,0.00002048,-0.00003324,0.00054770,-0.00020619,0.
 00119608,-0.00006114,-0.00003170,0.00014607,-0.00006127,0.00002673,0.0
 0004897,-0.00000504,0.00001490,0.00001049,0.00000172,-0.00000015,-0.00
 001357,-0.00000604,0.00000421,0.00000268,-0.00001151,-0.00001138,0.000
 01920,0.00000242,-0.00000316,-0.00000649,0.00000453,0.00000379,0.00000
 402,-0.00000926,-0.00000957,0.00000972,0.00000250,-0.00001453,0.000004
 77,-0.00000543,-0.00000067,0.00000211,-0.00000086,0.00000677,-0.000001
 44,-0.00001292,0.00003270,0.00002645,0.00000168,0.00000949,0.00002522,
 0.00002805,0.00006769,0.00006502,-0.00004604,-0.00001545,0.00002862,-0
 .00005628,-0.00007168,0.00022238,0.00030461,0.00010509,0.00048370,0.00
 033144,0.00128057,0.00053704,-0.01024572,-0.01314600,-0.00044469,0.013
 25559,0.01493003,0.00006456,0.16295828,-0.00012380,0.00011236,-0.00006
 592,0.00041286,-0.00019904,0.00016030,-0.00001617,-0.00004497,-0.00011
 977,0.00013811,0.00096506,0.00038941,0.00009241,-0.00000587,0.00031951
 ,-0.00009365,-0.00009986,-0.00003179,-0.00094277,-0.00007156,0.0001692
 9,-0.00123411,-0.00011164,0.00035853,0.00041056,0.00007289,0.00009555,
 0.00000460,0.00003535,-0.00004424,-0.00001089,0.00003429,0.00000664,0.
 00001304,-0.00000524,-0.00001349,-0.00000730,0.00000096,0.00000053,0.0
 0000287,-0.00000274,-0.00000225,-0.00000184,0.00000392,0.00000238,0.00
 003262,-0.00002074,-0.00000808,-0.00000320,0.00009345,0.00004623,-0.00
 001480,0.00011019,0.00027878,0.00090560,-0.00139568,0.00006751,0.00008
 451,-0.00047036,-0.00059501,0.00212965,0.00252857,-0.00148570,-0.13099
 975,-0.21429322,-0.00468878,-0.00008335,0.00029574,0.00014015,-0.00005
 062,-0.00006725,-0.00001842,-0.00000834,-0.00002594,0.00001834,0.00001
 740,-0.00000401,0.00000151,-0.00020636,0.00019838,-0.00035287,-0.00004
 873,0.00004776,0.00003433,-0.00001481,-0.00000659,0.00002754,-0.000002
 91,0.00001996,0.00002390,0.00000252,-0.00011198,0.00002537,-0.00000861
 ,0.00024248,-0.00003662,-0.00004918,0.00006649,-0.00008501,0.00001308,
 0.00002412,-0.00006566,0.00003857,-0.00009779,0.00000953,0.00019527,-0
 .00001046,-0.00017733,0.00056589,0.00007975,0.00145032,-0.00002467,-0.
 00003877,0.00020277,-0.00002073,-0.00001009,-0.00002293,0.00000308,-0.
 00001030,0.00001313,0.00002354,0.00001253,-0.00000439,0.00000782,0.000
 00024,-0.00000299,0.00000062,0.00000284,-0.00000116,0.00000042,0.00000
 012,0.00000095,0.00000320,0.00000047,0.00000157,0.00000106,-0.00000569
 ,-0.00000098,0.00000190,-0.00000572,-0.00000055,-0.00000008,0.00000183
 ,0.00000047,0.00000157,0.00000143,0.00000427,0.00000081,-0.00000432,-0
 .00001126,-0.00001731,-0.00000122,0.00003607,0.00002497,-0.00007745,-0
 .00003107,0.00000433,-0.00000266,-0.00003535,0.00010288,-0.00009595,0.
 00002583,0.00019317,0.00012585,0.00019155,0.00157750,-0.00171011,0.001
 03726,0.00082463,-0.00014013,0.00044588,-0.01760602,-0.02089069,0.0005
 2608,0.14375894,0.23496104,0.00006049,-0.00014826,0.00027479,-0.000015
 64,0.00069317,-0.00075600,0.00000023,-0.00026045,0.00005842,-0.0034151
 9,0.00230851,-0.00367894,-0.00019088,0.00021800,0.00035362,-0.00000203
 ,-0.00005986,-0.00007482,0.00031039,-0.00071791,0.00137620,-0.00063847
 ,0.00024256,-0.00163956,0.00048221,-0.00002253,0.00012974,0.00001631,0
 .00005352,0.00000513,-0.00002213,0.00001569,-0.00001560,0.00001801,0.0
 0000678,-0.00000122,-0.00001386,0.00000145,-0.00000626,0.00002673,-0.0
 0000359,-0.00000469,-0.00004629,-0.00001579,0.00002765,0.00008962,0.00
 005730,-0.00008194,-0.00014192,0.00003772,0.00003368,-0.00009116,0.000
 39468,0.00001527,-0.00029273,0.00026634,-0.00018769,0.00038161,-0.0008
 1640,0.00046836,-0.01424474,-0.02140027,-0.00008985,-0.00282089,-0.003
 98605,-0.04852689,-0.00011198,0.00026806,0.00008441,0.00009499,0.00010
 168,0.00003921,-0.00002062,-0.00008024,0.00001510,0.00000697,0.0000471
 3,0.00000638,0.00044145,-0.00026982,0.00029034,0.00011111,0.00007347,0
 .00001435,-0.00001004,0.00006945,0.00006252,-0.00007213,0.00026054,0.0
 0010091,-0.00085034,-0.00149266,-0.00046757,0.00010977,-0.00000742,-0.
 00006406,0.00007804,0.00000410,-0.00003467,0.00006473,-0.00001499,-0.0
 0004309,0.00009155,-0.00007385,-0.00000855,-0.00000496,0.00019648,0.00
 028046,0.00124591,0.00091006,-0.00183944,-0.00007356,-0.00003577,0.000
 19937,-0.00004192,0.00000754,-0.00000192,-0.00001846,-0.00003079,0.000
 01799,0.00001250,-0.00000273,-0.00001590,0.00000246,0.00000021,-0.0000
 0288,-0.00000286,-0.00000333,0.00000631,-0.00000151,-0.00000380,-0.000
 00336,0.00000401,0.00000179,0.00000012,-0.00000130,-0.00001530,0.00000
 295,0.00000336,-0.00001994,0.00000483,-0.00000831,0.00000133,0.0000001
 4,-0.00000158,-0.00000289,-0.00000215,0.00000909,-0.00000401,-0.000011
 87,0.00012019,0.00003113,0.00001492,0.00003562,-0.00000407,-0.00000283
 ,0.00001455,-0.00006187,-0.00000234,0.00009561,-0.00014160,0.00002365,
 0.00009310,0.00002368,0.00003660,-0.00016479,0.00028241,0.00042239,0.0
 1708113,0.02416683,0.00173561,-0.00191457,-0.00283547,-0.00085409,0.00
 413312,0.00179008,0.05231673\\0.00001112,0.00000955,0.00001117,-0.0000
 1700,-0.00000293,0.00001191,0.00000202,-0.00002129,0.00002055,0.000028
 45,0.00001561,0.00000054,0.00001897,0.00000094,-0.00000767,-0.00003404
 ,0.00003327,-0.00000646,0.00000831,-0.00000048,0.00000211,-0.00002737,
 -0.00001100,0.00000538,0.00000916,-0.00000580,0.00001631,-0.00003660,0
 .00003165,-0.00001101,0.00001060,-0.00002649,0.00003358,-0.00003418,-0
 .00003095,0.00001623,0.00000773,-0.00001031,0.00001176,0.00001552,0.00
 001799,-0.00001872,0.00002679,0.00002314,-0.00001437,-0.00000387,0.000
 03464,0.00001430,0.00000885,-0.00001415,0.00001565,0.00002094,-0.00004
 340,-0.00000903,0.00001206,-0.00002316,-0.00002102,-0.00000956,0.00001
 062,-0.00001044,-0.00003255,-0.00000879,0.00001906,-0.00000264,0.00001
 407,0.00000279,-0.00001058,-0.00004325,-0.00002366,-0.00000108,0.00000
 175,-0.00000188,-0.00000537,0.00000088,0.00000133,0.00000453,0.0000004
 2,-0.00000187,0.00000228,-0.00000346,-0.00000344,0.00000550,0.00000467
 ,-0.00000055,-0.00000585,0.00000791,-0.00000193,-0.00001145,-0.0000132
 2,-0.00001035,-0.00000546,0.00000288,0.00000156,-0.00000351,-0.0000058
 4,-0.00000133,-0.00001010,0.00000229,0.00000268,-0.00000161,-0.0000064
 5,0.00000137,0.00000798,0.00001782,0.00000752,-0.00000807,0.00000608,-
 0.00001002,-0.00002451,-0.00004302,-0.00000696,-0.00000801,-0.00001346
 ,-0.00000255,0.00000897,0.00000623,-0.00001429,0.00000457,0.00000763,-
 0.00000389,0.00001064,0.00001202,0.00001147,-0.00000893,0.00000804,-0.
 00001369,0.00000332,0.00000131,-0.00000082,0.00000610,0.00000896,-0.00
 001728,-0.00000326,0.00000071,-0.00000242,0.00000133,0.00000484,-0.000
 00592,0.00000002,0.00000400,0.00000047,0.00001161,0.00000071,0.0000013
 1,0.00000583,-0.00000610,0.00000742,-0.00000883,-0.00002352,0.00000193
 ,-0.00000827,0.00000425,0.00000406,0.00002381,0.00001773,0.00001087,-0
 .00000842,-0.00000190,-0.00000878,0.00000278,-0.00000258,-0.00000190,-
 0.00000453,0.00002068,-0.00000758,0.00001320,0.00002020,0.00000377,0.0
 0001326,0.00000937,-0.00000063,-0.00000001,-0.00001098,0.00000926,0.00
 002943,0.00000968,-0.00000594\\\@


 Time has a wonderful way of weeding out the trivial.
                                -- Richard Ben Sapir
 Job cpu time:       0 days  0 hours 18 minutes 37.4 seconds.
 Elapsed time:       0 days  0 hours 21 minutes 24.4 seconds.
 File lengths (MBytes):  RWF=   1168 Int=      0 D2E=      0 Chk=     16 Scr=      1
 Normal termination of Gaussian 16 at Fri Feb 23 16:56:40 2024.
