 Entering Gaussian System, Link 0=g16
 Input=/Volumes/SSD-PMU3/b3lyp_6-31gd_freq/LYCRAZFAMQOPDJ-RKDXNWHRSA-N_calculating/gaussianinput0.gjf
 Output=/Volumes/SSD-PMU3/b3lyp_6-31gd_freq/LYCRAZFAMQOPDJ-RKDXNWHRSA-N_calculating/gaussianinput0.log
 Initial command:
 /Applications/g16/l1.exe "/Users/macmini_m1_2022/PycharmProjects/sphere_model/sphere_model_lib/Gau-92590.inp" -scrdir="/Users/macmini_m1_2022/PycharmProjects/sphere_model/sphere_model_lib/"
 Entering Link 1 = /Applications/g16/l1.exe PID=     92591.
  
 Copyright (c) 1988,1990,1992,1993,1995,1998,2003,2009,2016,
            Gaussian, Inc.  All Rights Reserved.
  
 This is part of the Gaussian(R) 16 program.  It is based on
 the Gaussian(R) 09 system (copyright 2009, Gaussian, Inc.),
 the Gaussian(R) 03 system (copyright 2003, Gaussian, Inc.),
 the Gaussian(R) 98 system (copyright 1998, Gaussian, Inc.),
 the Gaussian(R) 94 system (copyright 1995, Gaussian, Inc.),
 the Gaussian 92(TM) system (copyright 1992, Gaussian, Inc.),
 the Gaussian 90(TM) system (copyright 1990, Gaussian, Inc.),
 the Gaussian 88(TM) system (copyright 1988, Gaussian, Inc.),
 the Gaussian 86(TM) system (copyright 1986, Carnegie Mellon
 University), and the Gaussian 82(TM) system (copyright 1983,
 Carnegie Mellon University). Gaussian is a federally registered
 trademark of Gaussian, Inc.
  
 This software contains proprietary and confidential information,
 including trade secrets, belonging to Gaussian, Inc.
  
 This software is provided under written license and may be
 used, copied, transmitted, or stored only in accord with that
 written license.
  
 The following legend is applicable only to US Government
 contracts under FAR:
  
                    RESTRICTED RIGHTS LEGEND
  
 Use, reproduction and disclosure by the US Government is
 subject to restrictions as set forth in subparagraphs (a)
 and (c) of the Commercial Computer Software - Restricted
 Rights clause in FAR 52.227-19.
  
 Gaussian, Inc.
 340 Quinnipiac St., Bldg. 40, Wallingford CT 06492
  
  
 ---------------------------------------------------------------
 Warning -- This program may not be used in any manner that
 competes with the business of Gaussian, Inc. or will provide
 assistance to any competitor of Gaussian, Inc.  The licensee
 of this program is prohibited from giving any competitor of
 Gaussian, Inc. access to this program.  By using this program,
 the user acknowledges that Gaussian, Inc. is engaged in the
 business of creating and licensing software in the field of
 computational chemistry and represents and warrants to the
 licensee that it is not a competitor of Gaussian, Inc. and that
 it will not use this program in any manner prohibited above.
 ---------------------------------------------------------------
  

 Cite this work as:
 Gaussian 16, Revision A.03,
 M. J. Frisch, G. W. Trucks, H. B. Schlegel, G. E. Scuseria, 
 M. A. Robb, J. R. Cheeseman, G. Scalmani, V. Barone, 
 G. A. Petersson, H. Nakatsuji, X. Li, M. Caricato, A. V. Marenich, 
 J. Bloino, B. G. Janesko, R. Gomperts, B. Mennucci, H. P. Hratchian, 
 J. V. Ortiz, A. F. Izmaylov, J. L. Sonnenberg, D. Williams-Young, 
 F. Ding, F. Lipparini, F. Egidi, J. Goings, B. Peng, A. Petrone, 
 T. Henderson, D. Ranasinghe, V. G. Zakrzewski, J. Gao, N. Rega, 
 G. Zheng, W. Liang, M. Hada, M. Ehara, K. Toyota, R. Fukuda, 
 J. Hasegawa, M. Ishida, T. Nakajima, Y. Honda, O. Kitao, H. Nakai, 
 T. Vreven, K. Throssell, J. A. Montgomery, Jr., J. E. Peralta, 
 F. Ogliaro, M. J. Bearpark, J. J. Heyd, E. N. Brothers, K. N. Kudin, 
 V. N. Staroverov, T. A. Keith, R. Kobayashi, J. Normand, 
 K. Raghavachari, A. P. Rendell, J. C. Burant, S. S. Iyengar, 
 J. Tomasi, M. Cossi, J. M. Millam, M. Klene, C. Adamo, R. Cammi, 
 J. W. Ochterski, R. L. Martin, K. Morokuma, O. Farkas, 
 J. B. Foresman, and D. J. Fox, Gaussian, Inc., Wallingford CT, 2016.
 
 ******************************************
 Gaussian 16:  EM64M-G16RevA.03 25-Dec-2016
                24-Feb-2024 
 ******************************************
 %nprocshared=10
 Will use up to   10 processors via shared memory.
 %mem=12GB
 %chk= 0.chk
 ---------------------
 # freq b3lyp/6-31g(d)
 ---------------------
 1/10=4,30=1,38=1/1,3;
 2/12=2,17=6,18=5,40=1/2;
 3/5=1,6=6,7=1,11=2,25=1,30=1,71=2,74=-5,140=1/1,2,3;
 4//1;
 5/5=2,38=5,98=1/2;
 8/6=4,10=90,11=11/1;
 11/6=1,8=1,9=11,15=111,16=1/1,2,10;
 10/6=1/2;
 6/7=2,8=2,9=2,10=2,28=1/1;
 7/8=1,10=1,25=1/1,2,3,16;
 1/10=4,30=1/3;
 99//99;
 ---------
 good luck
 ---------
 Symbolic Z-matrix:
 Charge =  0 Multiplicity = 1
 O                     1.21729   0.        0. 
 C                     0.        0.        0. 
 C                    -0.82743  -1.28469  -0.00768 
 C                     0.04842  -2.53535  -0.08705 
 C                    -1.88256  -1.22224  -1.141 
 C                    -2.77604   0.03559  -1.07392 
 C                    -3.95287   0.04326  -2.11297 
 C                    -3.4502    0.02374  -3.57134 
 C                    -4.85885  -1.18685  -1.88394 
 C                    -4.82359   1.30229  -1.90559 
 C                    -1.87315   1.28658  -1.12983 
 C                    -0.81425   1.2849   -0.00768 
 H                    -1.38075  -1.29168   0.94672 
 H                     0.77432  -2.5596    0.73051 
 H                     0.61437  -2.55598  -1.02461 
 H                    -0.56651  -3.44092  -0.03605 
 H                    -1.35595  -1.25318  -2.10536 
 H                    -2.48592  -2.13446  -1.08779 
 H                    -3.2598    0.034    -0.08234 
 H                    -2.82958   0.89648  -3.80333 
 H                    -2.86415  -0.87548  -3.79133 
 H                    -4.30079   0.03576  -4.26356 
 H                    -5.20186  -1.24068  -0.84283 
 H                    -5.74802  -1.12783  -2.52273 
 H                    -4.35292  -2.12823  -2.12124 
 H                    -5.15844   1.38861  -0.86396 
 H                    -5.7181    1.2535   -2.53777 
 H                    -4.29352   2.22386  -2.1669 
 H                    -2.46354   2.20453  -1.04873 
 H                    -1.35862   1.3291   -2.09919 
 H                    -0.1271    2.1315   -0.09838 
 H                    -1.32269   1.37009   0.96486 
 

 GradGradGradGradGradGradGradGradGradGradGradGradGradGradGradGradGradGrad
 Berny optimization.
 Initialization pass.
 Trust Radius=3.00D-01 FncErr=1.00D-07 GrdErr=1.00D-07 EigMax=2.50D+02 EigMin=1.00D-04
 Number of steps in this run=      2 maximum allowed number of steps=      2.
 GradGradGradGradGradGradGradGradGradGradGradGradGradGradGradGradGradGrad

                          Input orientation:                          
 ---------------------------------------------------------------------
 Center     Atomic      Atomic             Coordinates (Angstroms)
 Number     Number       Type             X           Y           Z
 ---------------------------------------------------------------------
      1          8           0        1.217293    0.000000    0.000000
      2          6           0        0.000000    0.000000    0.000000
      3          6           0       -0.827431   -1.284690   -0.007683
      4          6           0        0.048423   -2.535348   -0.087049
      5          6           0       -1.882556   -1.222244   -1.140998
      6          6           0       -2.776036    0.035592   -1.073922
      7          6           0       -3.952866    0.043259   -2.112971
      8          6           0       -3.450204    0.023735   -3.571344
      9          6           0       -4.858849   -1.186847   -1.883939
     10          6           0       -4.823594    1.302294   -1.905587
     11          6           0       -1.873147    1.286581   -1.129834
     12          6           0       -0.814247    1.284895   -0.007683
     13          1           0       -1.380753   -1.291684    0.946723
     14          1           0        0.774317   -2.559604    0.730505
     15          1           0        0.614368   -2.555975   -1.024613
     16          1           0       -0.566510   -3.440920   -0.036050
     17          1           0       -1.355947   -1.253175   -2.105358
     18          1           0       -2.485925   -2.134463   -1.087787
     19          1           0       -3.259803    0.033996   -0.082341
     20          1           0       -2.829579    0.896477   -3.803334
     21          1           0       -2.864151   -0.875478   -3.791333
     22          1           0       -4.300792    0.035763   -4.263563
     23          1           0       -5.201860   -1.240682   -0.842826
     24          1           0       -5.748024   -1.127827   -2.522730
     25          1           0       -4.352919   -2.128234   -2.121237
     26          1           0       -5.158436    1.388613   -0.863964
     27          1           0       -5.718097    1.253504   -2.537766
     28          1           0       -4.293522    2.223864   -2.166901
     29          1           0       -2.463544    2.204534   -1.048733
     30          1           0       -1.358621    1.329098   -2.099186
     31          1           0       -0.127104    2.131496   -0.098376
     32          1           0       -1.322689    1.370093    0.964858
 ---------------------------------------------------------------------
                    Distance matrix (angstroms):
                    1          2          3          4          5
     1  O    0.000000
     2  C    1.217293   0.000000
     3  C    2.414826   1.528113   0.000000
     4  C    2.793175   2.537304   1.528910   0.000000
     5  C    3.522048   2.517891   1.549707   2.561978   0.000000
     6  C    4.135366   2.976735   2.584003   3.944771   1.544331
     7  C    5.585433   4.482373   3.995501   5.173383   2.613888
     8  C    5.877124   4.965780   4.614173   5.561439   3.149058
     9  C    6.471270   5.344740   4.447723   5.397091   3.067822
    10  C    6.466803   5.347363   5.124826   6.463059   3.950645
    11  C    3.533077   2.537813   2.994024   4.403064   2.508867
    12  C    2.403782   1.521188   2.569619   3.917238   2.951514
    13  H    3.051979   2.114524   1.103225   2.158224   2.148303
    14  H    2.698414   2.772143   2.176218   1.093574   3.514261
    15  H    2.818929   2.821398   2.174649   1.095329   2.833198
    16  H    3.875975   3.487429   2.172145   1.095812   2.806316
    17  H    3.553103   2.800281   2.163461   2.773048   1.099211
    18  H    4.410560   3.452396   2.153913   2.754107   1.095002
    19  H    4.477982   3.261020   2.767840   4.188784   2.143759
    20  H    5.625495   4.824473   4.813840   5.819888   3.531836
    21  H    5.639047   4.831566   4.316444   4.995996   2.847464
    22  H    6.973415   6.056076   5.649809   6.555116   4.144980
    23  H    6.592054   5.413778   4.453654   5.460113   3.332720
    24  H    7.493451   6.377769   5.528318   6.443016   4.106086
    25  H    6.329004   5.289322   4.196158   4.865745   2.807914
    26  H    6.582143   5.411482   5.161140   6.566007   4.198180
    27  H    7.490738   6.380295   6.063197   7.322170   4.774062
    28  H    6.325355   5.298619   5.383861   6.769665   4.329075
    29  H    4.416828   3.468265   3.991909   5.449890   3.476905
    30  H    3.578885   2.831772   3.389459   4.578473   2.775244
    31  H    2.521975   2.137547   3.488411   4.670157   3.926353
    32  H    3.042961   2.134856   2.870364   4.270706   3.386487
                    6          7          8          9         10
     6  C    0.000000
     7  C    1.569908   0.000000
     8  C    2.586844   1.542693   0.000000
     9  C    2.547272   1.544805   2.509407   0.000000
    10  C    2.547292   1.544780   2.509115   2.489485   0.000000
    11  C    1.543797   2.614888   3.169047   3.949802   3.050767
    12  C    2.558562   3.978043   4.608522   5.097906   4.435900
    13  H    2.791323   4.214210   5.140611   4.485620   5.168902
    14  H    4.753526   6.099714   6.559430   6.360215   7.293822
    15  H    4.267727   5.366579   5.446236   5.706931   6.725607
    16  H    4.247978   5.283986   5.728685   5.188421   6.641989
    17  H    2.177483   2.902548   2.857539   3.510520   4.312181
    18  H    2.189405   2.818757   3.428660   2.676304   4.236129
    19  H    1.103298   2.145665   3.494209   2.700585   2.716293
    20  H    2.862460   2.201609   1.095752   3.484574   2.782486
    21  H    2.867427   2.201426   1.095645   2.777395   3.483984
    22  H    3.535349   2.178567   1.096728   2.732913   2.727173
    23  H    2.750800   2.195850   3.480210   1.097484   2.781955
    24  H    3.505039   2.182186   2.775908   1.096435   2.672251
    25  H    2.874991   2.208052   2.747485   1.094753   3.469375
    26  H    2.747831   2.196223   3.480065   2.786233   1.097519
    27  H    3.504550   2.182014   2.779200   2.668541   1.096433
    28  H    2.878524   2.207712   2.743030   3.468806   1.094784
    29  H    2.191482   2.832277   3.477492   4.235153   2.667971
    30  H    2.175635   2.895458   2.871575   4.316006   3.470481
    31  H    3.515870   4.801644   5.248539   6.048888   5.100059
    32  H    2.837205   4.260440   5.188076   5.211335   4.527735
                   11         12         13         14         15
    11  C    0.000000
    12  C    1.542885   0.000000
    13  H    3.346938   2.805455   0.000000
    14  H    5.026238   4.224764   2.509721   0.000000
    15  H    4.578650   4.222247   3.076541   1.762395   0.000000
    16  H    5.025229   4.732389   2.499610   1.778241   1.776192
    17  H    2.769387   3.336986   3.052425   3.779802   2.597583
    18  H    3.475746   3.956405   2.463922   3.757141   3.129454
    19  H    2.142201   2.747920   2.519371   4.864319   4.754474
    20  H    2.866103   4.315020   5.426803   6.744498   5.612618
    21  H    3.569337   4.815114   4.982256   6.043323   4.751726
    22  H    4.156713   5.641706   6.118482   7.578481   6.431695
    23  H    4.189244   5.130999   4.219709   6.318989   5.965865
    24  H    4.773279   6.040600   5.580055   7.427951   6.690590
    25  H    4.335102   5.351519   4.352696   5.882777   5.104849
    26  H    3.297608   4.428990   4.973275   7.302623   6.993629
    27  H    4.094754   5.518156   6.118186   8.208095   7.543333
    28  H    2.795035   4.201100   5.526116   7.547153   6.945435
    29  H    1.094433   2.156317   4.168671   6.028801   5.668913
    30  H    1.098266   2.161639   4.018277   5.261044   4.487893
    31  H    2.196919   1.094132   3.792365   4.848301   4.835295
    32  H    2.167421   1.100731   2.662472   4.460367   4.808762
                   16         17         18         19         20
    16  H    0.000000
    17  H    3.113113   0.000000
    18  H    2.548948   1.757546   0.000000
    19  H    4.396705   3.061711   2.512374   0.000000
    20  H    6.174700   3.110582   4.083980   3.843794   0.000000
    21  H    5.095370   2.293435   3.006203   3.839311   1.772333
    22  H    6.626013   3.871863   4.253137   4.308860   1.765533
    23  H    5.194074   4.047862   2.869696   2.444325   4.354282
    24  H    6.195326   4.413644   3.703197   3.673768   3.775589
    25  H    4.517526   3.122150   2.133946   3.166581   3.781388
    26  H    6.715327   4.793644   4.427694   2.459823   3.782284
    27  H    7.405069   5.049631   4.901805   3.682325   3.173747
    28  H    7.107807   4.552245   4.840135   3.195229   2.565735
    29  H    6.041144   3.781399   4.339230   2.505829   3.071290
    30  H    5.257094   2.582282   3.780211   3.059321   2.292378
    31  H    5.590061   4.122382   4.974070   3.770088   4.749248
    32  H    4.971868   4.038424   4.224735   2.575692   5.023015
                   21         22         23         24         25
    21  H    0.000000
    22  H    1.765587   0.000000
    23  H    3.780470   3.760675   0.000000
    24  H    3.160658   2.545373   1.770059   0.000000
    25  H    2.564186   3.045515   1.772790   1.763045   0.000000
    26  H    4.354233   3.758062   2.629739   3.071089   3.820708
    27  H    3.774785   2.543624   3.059458   2.381567   3.670607
    28  H    3.779921   3.030484   3.818551   3.670970   4.352743
    29  H    4.143527   4.291175   4.405711   4.905620   4.846946
    30  H    3.160718   3.874740   4.790897   5.048042   4.573779
    31  H    5.492836   6.257839   6.138317   6.935086   6.332044
    32  H    5.480880   6.163272   5.013166   6.163316   5.562784
                   26         27         28         29         30
    26  H    0.000000
    27  H    1.770053   0.000000
    28  H    1.772954   1.763109   0.000000
    29  H    2.821756   3.703214   2.144643   0.000000
    30  H    3.995987   4.382134   3.069012   1.758037   0.000000
    31  H    5.143180   6.162848   4.652566   2.523384   2.482683
    32  H    4.249457   5.621528   4.400305   2.460161   3.064529
                   31         32
    31  H    0.000000
    32  H    1.771899   0.000000
 Stoichiometry    C11H20O
 Framework group  C1[X(C11H20O)]
 Deg. of freedom    90
 Full point group                 C1      NOp   1
 Largest Abelian subgroup         C1      NOp   1
 Largest concise Abelian subgroup C1      NOp   1
                         Standard orientation:                         
 ---------------------------------------------------------------------
 Center     Atomic      Atomic             Coordinates (Angstroms)
 Number     Number       Type             X           Y           Z
 ---------------------------------------------------------------------
      1          8           0        3.351640   -0.797773    0.509131
      2          6           0        2.283772   -0.617285   -0.046644
      3          6           0        1.780517    0.770566   -0.441273
      4          6           0        2.733461    1.879294    0.006149
      5          6           0        0.337750    0.974921    0.086226
      6          6           0       -0.637408   -0.137072   -0.358180
      7          6           0       -2.135199    0.130145    0.028894
      8          6           0       -2.342159    0.215573    1.555252
      9          6           0       -2.611244    1.453076   -0.611151
     10          6           0       -3.027943   -0.999942   -0.529906
     11          6           0       -0.090431   -1.496805    0.126847
     12          6           0        1.339971   -1.760443   -0.387877
     13          1           0        1.722614    0.767386   -1.542973
     14          1           0        3.739662    1.716640   -0.390093
     15          1           0        2.814819    1.906163    1.098121
     16          1           0        2.376123    2.856837   -0.336669
     17          1           0        0.374446    1.020350    1.183884
     18          1           0       -0.007285    1.957078   -0.253402
     19          1           0       -0.618640   -0.159466   -1.461090
     20          1           0       -2.054888   -0.713035    2.061055
     21          1           0       -1.768085    1.034939    2.001925
     22          1           0       -3.399618    0.396655    1.782852
     23          1           0       -2.437684    1.456447   -1.694819
     24          1           0       -3.686959    1.588472   -0.447827
     25          1           0       -2.107768    2.327501   -0.186441
     26          1           0       -2.871649   -1.135775   -1.607714
     27          1           0       -4.086410   -0.758284   -0.376883
     28          1           0       -2.841798   -1.960351   -0.038463
     29          1           0       -0.733645   -2.320567   -0.197922
     30          1           0       -0.079487   -1.521392    1.224784
     31          1           0        1.753301   -2.686821    0.022129
     32          1           0        1.313317   -1.862766   -1.483518
 ---------------------------------------------------------------------
 Rotational constants (GHZ):           1.6300744           0.5625493           0.4781035
 Standard basis: 6-31G(d) (6D, 7F)
 There are   220 symmetry adapted cartesian basis functions of A   symmetry.
 There are   220 symmetry adapted basis functions of A   symmetry.
   220 basis functions,   416 primitive gaussians,   220 cartesian basis functions
    47 alpha electrons       47 beta electrons
       nuclear repulsion energy       764.4892184112 Hartrees.
 NAtoms=   32 NActive=   32 NUniq=   32 SFac= 1.00D+00 NAtFMM=   60 NAOKFM=F Big=F
 Integral buffers will be    131072 words long.
 Raffenetti 2 integral format.
 Two-electron integral symmetry is turned on.
 One-electron integrals computed using PRISM.
 NBasis=   220 RedAO= T EigKep=  2.67D-03  NBF=   220
 NBsUse=   220 1.00D-06 EigRej= -1.00D+00 NBFU=   220
 ExpMin= 1.61D-01 ExpMax= 5.48D+03 ExpMxC= 8.25D+02 IAcc=3 IRadAn=         5 AccDes= 0.00D+00
 Harris functional with IExCor=  402 and IRadAn=       5 diagonalized for initial guess.
 HarFok:  IExCor=  402 AccDes= 0.00D+00 IRadAn=         5 IDoV= 1 UseB2=F ITyADJ=14
 ICtDFT=  3500011 ScaDFX=  1.000000  1.000000  1.000000  1.000000
 FoFCou: FMM=F IPFlag=           0 FMFlag=      100000 FMFlg1=           0
         NFxFlg=           0 DoJE=T BraDBF=F KetDBF=T FulRan=T
         wScrn=  0.000000 ICntrl=       500 IOpCl=  0 I1Cent=   200000004 NGrid=           0
         NMat0=    1 NMatS0=      1 NMatT0=    0 NMatD0=    1 NMtDS0=    0 NMtDT0=    0
 Petite list used in FoFCou.
 Requested convergence on RMS density matrix=1.00D-08 within 128 cycles.
 Requested convergence on MAX density matrix=1.00D-06.
 Requested convergence on             energy=1.00D-06.
 No special actions if energy rises.
 Integral accuracy reduced to 1.0D-05 until final iterations.
 Initial convergence to 1.0D-05 achieved.  Increase integral accuracy.
 SCF Done:  E(RB3LYP) =  -506.455788670     A.U. after   14 cycles
            NFock= 14  Conv=0.33D-08     -V/T= 2.0099
 DoSCS=F DFT=T ScalE2(SS,OS)=  1.000000  1.000000
 Range of M.O.s used for correlation:     1   220
 NBasis=   220 NAE=    47 NBE=    47 NFC=     0 NFV=     0
 NROrb=    220 NOA=    47 NOB=    47 NVA=   173 NVB=   173
 Symmetrizing basis deriv contribution to polar:
 IMax=3 JMax=2 DiffMx= 0.00D+00
 G2DrvN: will do    33 centers at a time, making    1 passes.
 Calling FoFCou, ICntrl=  3107 FMM=F I1Cent=   0 AccDes= 0.00D+00.
 End of G2Drv F.D. properties file   721 does not exist.
 End of G2Drv F.D. properties file   722 does not exist.
 End of G2Drv F.D. properties file   788 does not exist.
          IDoAtm=11111111111111111111111111111111
          Differentiating once with respect to electric field.
                with respect to dipole field.
          Differentiating once with respect to nuclear coordinates.
 Keep R1 ints in memory in canonical form, NReq=306010901.
          There are    99 degrees of freedom in the 1st order CPHF.  IDoFFX=6 NUNeed=     3.
     96 vectors produced by pass  0 Test12= 8.21D-15 1.01D-09 XBig12= 8.30D+01 2.61D+00.
 AX will form    96 AO Fock derivatives at one time.
     96 vectors produced by pass  1 Test12= 8.21D-15 1.01D-09 XBig12= 1.21D+01 1.06D+00.
     96 vectors produced by pass  2 Test12= 8.21D-15 1.01D-09 XBig12= 7.61D-02 2.90D-02.
     96 vectors produced by pass  3 Test12= 8.21D-15 1.01D-09 XBig12= 2.13D-04 2.14D-03.
     96 vectors produced by pass  4 Test12= 8.21D-15 1.01D-09 XBig12= 1.90D-07 3.32D-05.
     41 vectors produced by pass  5 Test12= 8.21D-15 1.01D-09 XBig12= 1.29D-10 1.14D-06.
      4 vectors produced by pass  6 Test12= 8.21D-15 1.01D-09 XBig12= 9.84D-14 3.87D-08.
      1 vectors produced by pass  7 Test12= 8.21D-15 1.01D-09 XBig12= 7.15D-17 1.06D-09.
 InvSVY:  IOpt=1 It=  1 EMax= 8.88D-15
 Solved reduced A of dimension   526 with    99 vectors.
 Isotropic polarizability for W=    0.000000      114.23 Bohr**3.
 End of Minotr F.D. properties file   721 does not exist.
 End of Minotr F.D. properties file   722 does not exist.
 End of Minotr F.D. properties file   788 does not exist.

 **********************************************************************

            Population analysis using the SCF density.

 **********************************************************************

 Orbital symmetries:
       Occupied  (A) (A) (A) (A) (A) (A) (A) (A) (A) (A) (A) (A)
                 (A) (A) (A) (A) (A) (A) (A) (A) (A) (A) (A) (A)
                 (A) (A) (A) (A) (A) (A) (A) (A) (A) (A) (A) (A)
                 (A) (A) (A) (A) (A) (A) (A) (A) (A) (A) (A)
       Virtual   (A) (A) (A) (A) (A) (A) (A) (A) (A) (A) (A) (A)
                 (A) (A) (A) (A) (A) (A) (A) (A) (A) (A) (A) (A)
                 (A) (A) (A) (A) (A) (A) (A) (A) (A) (A) (A) (A)
                 (A) (A) (A) (A) (A) (A) (A) (A) (A) (A) (A) (A)
                 (A) (A) (A) (A) (A) (A) (A) (A) (A) (A) (A) (A)
                 (A) (A) (A) (A) (A) (A) (A) (A) (A) (A) (A) (A)
                 (A) (A) (A) (A) (A) (A) (A) (A) (A) (A) (A) (A)
                 (A) (A) (A) (A) (A) (A) (A) (A) (A) (A) (A) (A)
                 (A) (A) (A) (A) (A) (A) (A) (A) (A) (A) (A) (A)
                 (A) (A) (A) (A) (A) (A) (A) (A) (A) (A) (A) (A)
                 (A) (A) (A) (A) (A) (A) (A) (A) (A) (A) (A) (A)
                 (A) (A) (A) (A) (A) (A) (A) (A) (A) (A) (A) (A)
                 (A) (A) (A) (A) (A) (A) (A) (A) (A) (A) (A) (A)
                 (A) (A) (A) (A) (A) (A) (A) (A) (A) (A) (A) (A)
                 (A) (A) (A) (A) (A)
 The electronic state is 1-A.
 Alpha  occ. eigenvalues --  -19.13194 -10.26450 -10.20225 -10.19502 -10.19380
 Alpha  occ. eigenvalues --  -10.19000 -10.18864 -10.18798 -10.17531 -10.17523
 Alpha  occ. eigenvalues --  -10.17503 -10.17150  -1.03040  -0.84555  -0.80388
 Alpha  occ. eigenvalues --   -0.76916  -0.71969  -0.68797  -0.68641  -0.66813
 Alpha  occ. eigenvalues --   -0.60781  -0.60041  -0.53105  -0.52512  -0.47331
 Alpha  occ. eigenvalues --   -0.46694  -0.45337  -0.44341  -0.44264  -0.42494
 Alpha  occ. eigenvalues --   -0.42462  -0.41658  -0.39302  -0.38625  -0.37981
 Alpha  occ. eigenvalues --   -0.37699  -0.37358  -0.36172  -0.35948  -0.34675
 Alpha  occ. eigenvalues --   -0.34259  -0.34007  -0.33357  -0.31600  -0.30548
 Alpha  occ. eigenvalues --   -0.30003  -0.23304
 Alpha virt. eigenvalues --   -0.01066   0.07665   0.09344   0.10508   0.11292
 Alpha virt. eigenvalues --    0.12389   0.12641   0.13574   0.13850   0.15478
 Alpha virt. eigenvalues --    0.15625   0.16139   0.16810   0.17213   0.17937
 Alpha virt. eigenvalues --    0.18154   0.18979   0.19557   0.20494   0.21057
 Alpha virt. eigenvalues --    0.22354   0.22947   0.23475   0.23893   0.24913
 Alpha virt. eigenvalues --    0.25352   0.26129   0.27521   0.28011   0.29359
 Alpha virt. eigenvalues --    0.30448   0.32965   0.36968   0.49201   0.49429
 Alpha virt. eigenvalues --    0.50128   0.50807   0.52789   0.53290   0.55373
 Alpha virt. eigenvalues --    0.56465   0.57657   0.59024   0.60918   0.61724
 Alpha virt. eigenvalues --    0.63542   0.65658   0.66330   0.66508   0.68335
 Alpha virt. eigenvalues --    0.70208   0.70619   0.71307   0.74723   0.74804
 Alpha virt. eigenvalues --    0.77130   0.78273   0.81059   0.81363   0.82579
 Alpha virt. eigenvalues --    0.84909   0.85798   0.86643   0.87034   0.87822
 Alpha virt. eigenvalues --    0.88824   0.89277   0.90203   0.90756   0.91115
 Alpha virt. eigenvalues --    0.91657   0.92246   0.92292   0.93172   0.93553
 Alpha virt. eigenvalues --    0.95168   0.96220   0.96784   0.97780   0.99029
 Alpha virt. eigenvalues --    1.00245   1.01048   1.02465   1.02830   1.03353
 Alpha virt. eigenvalues --    1.04650   1.08070   1.13402   1.14928   1.22151
 Alpha virt. eigenvalues --    1.24465   1.29416   1.34176   1.35465   1.39487
 Alpha virt. eigenvalues --    1.43547   1.46479   1.49478   1.51077   1.56292
 Alpha virt. eigenvalues --    1.59354   1.60540   1.60681   1.67028   1.69937
 Alpha virt. eigenvalues --    1.70560   1.71922   1.75738   1.77790   1.79320
 Alpha virt. eigenvalues --    1.79788   1.82740   1.84186   1.86184   1.87351
 Alpha virt. eigenvalues --    1.87983   1.88808   1.92653   1.93584   1.94358
 Alpha virt. eigenvalues --    1.96585   1.98472   2.01408   2.03384   2.04232
 Alpha virt. eigenvalues --    2.05673   2.06523   2.08980   2.10385   2.11105
 Alpha virt. eigenvalues --    2.13033   2.17330   2.19069   2.22650   2.23824
 Alpha virt. eigenvalues --    2.25862   2.26745   2.27375   2.28078   2.29380
 Alpha virt. eigenvalues --    2.32367   2.35546   2.37825   2.42052   2.42652
 Alpha virt. eigenvalues --    2.45524   2.50281   2.53919   2.54234   2.58578
 Alpha virt. eigenvalues --    2.60868   2.64125   2.65297   2.68283   2.74515
 Alpha virt. eigenvalues --    2.78436   2.81385   2.85664   2.86092   2.99049
 Alpha virt. eigenvalues --    3.04540   4.01341   4.11571   4.19982   4.25509
 Alpha virt. eigenvalues --    4.30470   4.31049   4.33304   4.38283   4.57674
 Alpha virt. eigenvalues --    4.58775   4.63917   4.71377
          Condensed to atoms (all electrons):
               1          2          3          4          5          6
     1  O    8.005667   0.590895  -0.094126   0.006124   0.000590   0.000154
     2  C    0.590895   4.509373   0.294722  -0.031269  -0.023936  -0.013085
     3  C   -0.094126   0.294722   5.253972   0.344253   0.344639  -0.026896
     4  C    0.006124  -0.031269   0.344253   5.084782  -0.044630   0.003426
     5  C    0.000590  -0.023936   0.344639  -0.044630   5.103120   0.368571
     6  C    0.000154  -0.013085  -0.026896   0.003426   0.368571   4.969909
     7  C    0.000001   0.000313   0.003266  -0.000101  -0.032752   0.378283
     8  C   -0.000000  -0.000031   0.000179  -0.000000  -0.007543  -0.051291
     9  C   -0.000000  -0.000008   0.000155  -0.000002  -0.006961  -0.050012
    10  C   -0.000000  -0.000007  -0.000098   0.000001   0.004344  -0.049666
    11  C    0.001008  -0.027108  -0.002534  -0.000004  -0.046655   0.374257
    12  C   -0.075978   0.347188  -0.141828   0.006727  -0.005495  -0.034896
    13  H    0.001290  -0.037121   0.355367  -0.038848  -0.044008  -0.002693
    14  H    0.004818  -0.003427  -0.027062   0.372201   0.004251  -0.000126
    15  H    0.003205  -0.005706  -0.033817   0.378847  -0.005195   0.000080
    16  H    0.000507   0.004868  -0.030440   0.362642  -0.003740   0.000037
    17  H    0.000471  -0.005278  -0.042524  -0.002963   0.366118  -0.036443
    18  H   -0.000069   0.003404  -0.032109  -0.002680   0.365388  -0.031269
    19  H   -0.000010  -0.002721  -0.003559   0.000056  -0.051619   0.363931
    20  H   -0.000000  -0.000003  -0.000011   0.000000  -0.000062  -0.005605
    21  H   -0.000000  -0.000001  -0.000039   0.000006   0.002003  -0.005742
    22  H    0.000000   0.000000  -0.000001  -0.000000   0.000075   0.005280
    23  H   -0.000000  -0.000000  -0.000053   0.000000  -0.000520  -0.005525
    24  H   -0.000000   0.000000  -0.000001  -0.000000   0.000239   0.004888
    25  H   -0.000000  -0.000004  -0.000065   0.000007   0.000511  -0.005511
    26  H   -0.000000  -0.000000  -0.000002   0.000000   0.000031  -0.005344
    27  H   -0.000000   0.000000   0.000001  -0.000000  -0.000114   0.004877
    28  H   -0.000000  -0.000004  -0.000001   0.000000  -0.000049  -0.005656
    29  H   -0.000064   0.003300  -0.000209   0.000010   0.005311  -0.031482
    30  H    0.000474  -0.003337   0.000526  -0.000049  -0.007291  -0.037252
    31  H    0.005230  -0.024192   0.006958  -0.000170  -0.000175   0.003689
    32  H    0.001358  -0.029878   0.003338  -0.000111  -0.001315  -0.003934
               7          8          9         10         11         12
     1  O    0.000001  -0.000000  -0.000000  -0.000000   0.001008  -0.075978
     2  C    0.000313  -0.000031  -0.000008  -0.000007  -0.027108   0.347188
     3  C    0.003266   0.000179   0.000155  -0.000098  -0.002534  -0.141828
     4  C   -0.000101  -0.000000  -0.000002   0.000001  -0.000004   0.006727
     5  C   -0.032752  -0.007543  -0.006961   0.004344  -0.046655  -0.005495
     6  C    0.378283  -0.051291  -0.050012  -0.049666   0.374257  -0.034896
     7  C    4.755666   0.382485   0.380710   0.379781  -0.033682   0.003545
     8  C    0.382485   5.161297  -0.063792  -0.063750  -0.007582   0.000164
     9  C    0.380710  -0.063792   5.168966  -0.063310   0.004465  -0.000119
    10  C    0.379781  -0.063750  -0.063310   5.169113  -0.006927   0.000150
    11  C   -0.033682  -0.007582   0.004465  -0.006927   5.080978   0.329762
    12  C    0.003545   0.000164  -0.000119   0.000150   0.329762   5.296582
    13  H   -0.000004   0.000003  -0.000013  -0.000004  -0.001833   0.002478
    14  H    0.000001   0.000000   0.000000  -0.000000  -0.000002   0.000191
    15  H   -0.000000  -0.000002   0.000000   0.000000  -0.000045   0.000200
    16  H    0.000000   0.000000  -0.000004  -0.000000  -0.000009  -0.000097
    17  H   -0.005538   0.002572  -0.000338   0.000024  -0.007689   0.000521
    18  H   -0.006044  -0.000370   0.003048   0.000081   0.005336  -0.000255
    19  H   -0.040342   0.006324  -0.007375  -0.006938  -0.052913  -0.002424
    20  H   -0.028515   0.367245   0.005629  -0.004752   0.001899  -0.000058
    21  H   -0.028458   0.367480  -0.004804   0.005618   0.000014  -0.000010
    22  H   -0.029600   0.367375  -0.005155  -0.005189   0.000063  -0.000001
    23  H   -0.029871   0.005839   0.365373  -0.004050   0.000030  -0.000003
    24  H   -0.027996  -0.004110   0.364876  -0.006955  -0.000120   0.000001
    25  H   -0.027319  -0.005038   0.366259   0.005730  -0.000045  -0.000001
    26  H   -0.029958   0.005844  -0.003996   0.365272  -0.000657  -0.000056
    27  H   -0.027930  -0.004127  -0.006963   0.365005   0.000254  -0.000001
    28  H   -0.027171  -0.005074   0.005727   0.366394   0.000718  -0.000054
    29  H   -0.006204  -0.000229   0.000069   0.003224   0.366863  -0.028992
    30  H   -0.005503   0.002612   0.000018  -0.000419   0.370569  -0.041877
    31  H   -0.000095   0.000001   0.000001   0.000000  -0.025360   0.342028
    32  H   -0.000008   0.000002  -0.000004  -0.000014  -0.035849   0.348877
              13         14         15         16         17         18
     1  O    0.001290   0.004818   0.003205   0.000507   0.000471  -0.000069
     2  C   -0.037121  -0.003427  -0.005706   0.004868  -0.005278   0.003404
     3  C    0.355367  -0.027062  -0.033817  -0.030440  -0.042524  -0.032109
     4  C   -0.038848   0.372201   0.378847   0.362642  -0.002963  -0.002680
     5  C   -0.044008   0.004251  -0.005195  -0.003740   0.366118   0.365388
     6  C   -0.002693  -0.000126   0.000080   0.000037  -0.036443  -0.031269
     7  C   -0.000004   0.000001  -0.000000   0.000000  -0.005538  -0.006044
     8  C    0.000003   0.000000  -0.000002   0.000000   0.002572  -0.000370
     9  C   -0.000013   0.000000   0.000000  -0.000004  -0.000338   0.003048
    10  C   -0.000004  -0.000000   0.000000  -0.000000   0.000024   0.000081
    11  C   -0.001833  -0.000002  -0.000045  -0.000009  -0.007689   0.005336
    12  C    0.002478   0.000191   0.000200  -0.000097   0.000521  -0.000255
    13  H    0.617501  -0.002475   0.005327  -0.003298   0.006440  -0.006710
    14  H   -0.002475   0.549181  -0.027562  -0.029922  -0.000027  -0.000081
    15  H    0.005327  -0.027562   0.558352  -0.031566   0.005246  -0.000488
    16  H   -0.003298  -0.029922  -0.031566   0.592499  -0.000235   0.004041
    17  H    0.006440  -0.000027   0.005246  -0.000235   0.602422  -0.037893
    18  H   -0.006710  -0.000081  -0.000488   0.004041  -0.037893   0.593304
    19  H    0.006229   0.000001   0.000008  -0.000004   0.006332  -0.003821
    20  H   -0.000000  -0.000000   0.000000   0.000000   0.000061   0.000031
    21  H   -0.000001  -0.000000  -0.000003   0.000001   0.003140   0.000255
    22  H    0.000000   0.000000   0.000000  -0.000000  -0.000072  -0.000036
    23  H    0.000014  -0.000000  -0.000000   0.000000   0.000067   0.000494
    24  H   -0.000000   0.000000  -0.000000   0.000000  -0.000028  -0.000118
    25  H    0.000010  -0.000000   0.000001  -0.000007   0.000304   0.003922
    26  H    0.000000  -0.000000  -0.000000   0.000000   0.000003  -0.000008
    27  H    0.000000   0.000000   0.000000  -0.000000   0.000002  -0.000004
    28  H    0.000000  -0.000000   0.000000  -0.000000  -0.000003  -0.000002
    29  H   -0.000029  -0.000000   0.000000  -0.000000  -0.000003  -0.000183
    30  H    0.000111  -0.000000  -0.000007  -0.000000   0.004857   0.000007
    31  H   -0.000150  -0.000005  -0.000001   0.000002  -0.000041   0.000019
    32  H    0.001540  -0.000018  -0.000002  -0.000002   0.000104  -0.000019
              19         20         21         22         23         24
     1  O   -0.000010  -0.000000  -0.000000   0.000000  -0.000000  -0.000000
     2  C   -0.002721  -0.000003  -0.000001   0.000000  -0.000000   0.000000
     3  C   -0.003559  -0.000011  -0.000039  -0.000001  -0.000053  -0.000001
     4  C    0.000056   0.000000   0.000006  -0.000000   0.000000  -0.000000
     5  C   -0.051619  -0.000062   0.002003   0.000075  -0.000520   0.000239
     6  C    0.363931  -0.005605  -0.005742   0.005280  -0.005525   0.004888
     7  C   -0.040342  -0.028515  -0.028458  -0.029600  -0.029871  -0.027996
     8  C    0.006324   0.367245   0.367480   0.367375   0.005839  -0.004110
     9  C   -0.007375   0.005629  -0.004804  -0.005155   0.365373   0.364876
    10  C   -0.006938  -0.004752   0.005618  -0.005189  -0.004050  -0.006955
    11  C   -0.052913   0.001899   0.000014   0.000063   0.000030  -0.000120
    12  C   -0.002424  -0.000058  -0.000010  -0.000001  -0.000003   0.000001
    13  H    0.006229  -0.000000  -0.000001   0.000000   0.000014  -0.000000
    14  H    0.000001  -0.000000  -0.000000   0.000000  -0.000000   0.000000
    15  H    0.000008   0.000000  -0.000003   0.000000  -0.000000  -0.000000
    16  H   -0.000004   0.000000   0.000001  -0.000000   0.000000   0.000000
    17  H    0.006332   0.000061   0.003140  -0.000072   0.000067  -0.000028
    18  H   -0.003821   0.000031   0.000255  -0.000036   0.000494  -0.000118
    19  H    0.658887  -0.000034  -0.000030  -0.000152   0.006120  -0.000051
    20  H   -0.000034   0.574702  -0.030897  -0.030482  -0.000192  -0.000080
    21  H   -0.000030  -0.030897   0.573838  -0.030449  -0.000036  -0.000156
    22  H   -0.000152  -0.030482  -0.030449   0.580075  -0.000039   0.003947
    23  H    0.006120  -0.000192  -0.000036  -0.000039   0.583414  -0.030205
    24  H   -0.000051  -0.000080  -0.000156   0.003947  -0.030205   0.580484
    25  H   -0.000097  -0.000016   0.003870  -0.000127  -0.031508  -0.030124
    26  H    0.005983  -0.000041  -0.000191  -0.000035   0.003353  -0.000100
    27  H   -0.000072  -0.000161  -0.000082   0.003953  -0.000102   0.005376
    28  H   -0.000105   0.003878  -0.000014  -0.000123  -0.000072   0.000019
    29  H   -0.004029   0.000154   0.000019  -0.000031  -0.000009  -0.000003
    30  H    0.006379   0.003424   0.000029  -0.000084   0.000003   0.000002
    31  H   -0.000001   0.000005   0.000000  -0.000000   0.000000  -0.000000
    32  H    0.005498   0.000000  -0.000000   0.000000   0.000000   0.000000
              25         26         27         28         29         30
     1  O   -0.000000  -0.000000  -0.000000  -0.000000  -0.000064   0.000474
     2  C   -0.000004  -0.000000   0.000000  -0.000004   0.003300  -0.003337
     3  C   -0.000065  -0.000002   0.000001  -0.000001  -0.000209   0.000526
     4  C    0.000007   0.000000  -0.000000   0.000000   0.000010  -0.000049
     5  C    0.000511   0.000031  -0.000114  -0.000049   0.005311  -0.007291
     6  C   -0.005511  -0.005344   0.004877  -0.005656  -0.031482  -0.037252
     7  C   -0.027319  -0.029958  -0.027930  -0.027171  -0.006204  -0.005503
     8  C   -0.005038   0.005844  -0.004127  -0.005074  -0.000229   0.002612
     9  C    0.366259  -0.003996  -0.006963   0.005727   0.000069   0.000018
    10  C    0.005730   0.365272   0.365005   0.366394   0.003224  -0.000419
    11  C   -0.000045  -0.000657   0.000254   0.000718   0.366863   0.370569
    12  C   -0.000001  -0.000056  -0.000001  -0.000054  -0.028992  -0.041877
    13  H    0.000010   0.000000   0.000000   0.000000  -0.000029   0.000111
    14  H   -0.000000  -0.000000   0.000000  -0.000000  -0.000000  -0.000000
    15  H    0.000001  -0.000000   0.000000   0.000000   0.000000  -0.000007
    16  H   -0.000007   0.000000  -0.000000  -0.000000  -0.000000  -0.000000
    17  H    0.000304   0.000003   0.000002  -0.000003  -0.000003   0.004857
    18  H    0.003922  -0.000008  -0.000004  -0.000002  -0.000183   0.000007
    19  H   -0.000097   0.005983  -0.000072  -0.000105  -0.004029   0.006379
    20  H   -0.000016  -0.000041  -0.000161   0.003878   0.000154   0.003424
    21  H    0.003870  -0.000191  -0.000082  -0.000014   0.000019   0.000029
    22  H   -0.000127  -0.000035   0.003953  -0.000123  -0.000031  -0.000084
    23  H   -0.031508   0.003353  -0.000102  -0.000072  -0.000009   0.000003
    24  H   -0.030124  -0.000100   0.005376   0.000019  -0.000003   0.000002
    25  H    0.574680  -0.000074   0.000022  -0.000195  -0.000002  -0.000002
    26  H   -0.000074   0.583683  -0.030210  -0.031590   0.000578   0.000084
    27  H    0.000022  -0.030210   0.580356  -0.030219  -0.000099  -0.000032
    28  H   -0.000195  -0.031590  -0.030219   0.575267   0.003368   0.000328
    29  H   -0.000002   0.000578  -0.000099   0.003368   0.589778  -0.037379
    30  H   -0.000002   0.000084  -0.000032   0.000328  -0.037379   0.596162
    31  H    0.000000   0.000001  -0.000000   0.000003  -0.002513  -0.003014
    32  H    0.000000   0.000015  -0.000000   0.000006  -0.006306   0.005738
              31         32
     1  O    0.005230   0.001358
     2  C   -0.024192  -0.029878
     3  C    0.006958   0.003338
     4  C   -0.000170  -0.000111
     5  C   -0.000175  -0.001315
     6  C    0.003689  -0.003934
     7  C   -0.000095  -0.000008
     8  C    0.000001   0.000002
     9  C    0.000001  -0.000004
    10  C    0.000000  -0.000014
    11  C   -0.025360  -0.035849
    12  C    0.342028   0.348877
    13  H   -0.000150   0.001540
    14  H   -0.000005  -0.000018
    15  H   -0.000001  -0.000002
    16  H    0.000002  -0.000002
    17  H   -0.000041   0.000104
    18  H    0.000019  -0.000019
    19  H   -0.000001   0.005498
    20  H    0.000005   0.000000
    21  H    0.000000  -0.000000
    22  H   -0.000000   0.000000
    23  H    0.000000   0.000000
    24  H   -0.000000   0.000000
    25  H    0.000000   0.000000
    26  H    0.000001   0.000015
    27  H   -0.000000  -0.000000
    28  H    0.000003   0.000006
    29  H   -0.002513  -0.006306
    30  H   -0.003014   0.005738
    31  H    0.564185  -0.027266
    32  H   -0.027266   0.586966
 Mulliken charges:
               1
     1  O   -0.451545
     2  C    0.453054
     3  C   -0.172000
     4  C   -0.438254
     5  C   -0.283132
     6  C   -0.074955
     7  C    0.103038
     8  C   -0.456486
     9  C   -0.452439
    10  C   -0.452658
    11  C   -0.287203
    12  C   -0.346272
    13  H    0.140879
    14  H    0.160064
    15  H    0.153128
    16  H    0.134728
    17  H    0.140388
    18  H    0.142828
    19  H    0.110547
    20  H    0.143878
    21  H    0.144641
    22  H    0.140805
    23  H    0.137473
    24  H    0.140213
    25  H    0.144820
    26  H    0.137415
    27  H    0.140268
    28  H    0.144619
    29  H    0.145092
    30  H    0.144924
    31  H    0.160859
    32  H    0.151283
 Sum of Mulliken charges =  -0.00000
 Mulliken charges with hydrogens summed into heavy atoms:
               1
     1  O   -0.451545
     2  C    0.453054
     3  C   -0.031122
     4  C    0.009667
     5  C    0.000084
     6  C    0.035591
     7  C    0.103038
     8  C   -0.027162
     9  C   -0.029933
    10  C   -0.030356
    11  C    0.002814
    12  C   -0.034129
 APT charges:
               1
     1  O   -0.636476
     2  C    0.687200
     3  C   -0.013355
     4  C    0.062599
     5  C    0.080088
     6  C    0.078686
     7  C    0.137167
     8  C    0.028795
     9  C    0.035669
    10  C    0.036577
    11  C    0.103333
    12  C   -0.044056
    13  H   -0.040278
    14  H   -0.013436
    15  H   -0.009769
    16  H   -0.026492
    17  H   -0.028972
    18  H   -0.034434
    19  H   -0.070505
    20  H   -0.018517
    21  H   -0.018495
    22  H   -0.026846
    23  H   -0.024652
    24  H   -0.032528
    25  H   -0.018068
    26  H   -0.024844
    27  H   -0.033194
    28  H   -0.018227
    29  H   -0.037045
    30  H   -0.031269
    31  H   -0.035950
    32  H   -0.012706
 Sum of APT charges =   0.00000
 APT charges with hydrogens summed into heavy atoms:
               1
     1  O   -0.636476
     2  C    0.687200
     3  C   -0.053633
     4  C    0.012902
     5  C    0.016682
     6  C    0.008181
     7  C    0.137167
     8  C   -0.035062
     9  C   -0.039579
    10  C   -0.039688
    11  C    0.035018
    12  C   -0.092712
 Electronic spatial extent (au):  <R**2>=           2551.4504
 Charge=             -0.0000 electrons
 Dipole moment (field-independent basis, Debye):
    X=             -2.7920    Y=              0.4632    Z=             -1.1538  Tot=              3.0563
 Quadrupole moment (field-independent basis, Debye-Ang):
   XX=            -88.6409   YY=            -75.4947   ZZ=            -75.5684
   XY=              3.1071   XZ=             -4.0853   YZ=              0.9086
 Traceless Quadrupole moment (field-independent basis, Debye-Ang):
   XX=             -8.7395   YY=              4.4067   ZZ=              4.3329
   XY=              3.1071   XZ=             -4.0853   YZ=              0.9086
 Octapole moment (field-independent basis, Debye-Ang**2):
  XXX=            -40.7169  YYY=             -6.2267  ZZZ=             -0.3378  XYY=              4.1176
  XXY=             13.0203  XXZ=            -11.9127  XZZ=              6.1402  YZZ=             -1.4523
  YYZ=              0.3927  XYZ=              2.9851
 Hexadecapole moment (field-independent basis, Debye-Ang**3):
 XXXX=          -2473.5501 YYYY=           -775.4063 ZZZZ=           -323.7727 XXXY=             34.4185
 XXXZ=            -49.5155 YYYX=            -11.4963 YYYZ=             -2.7485 ZZZX=              9.5375
 ZZZY=              0.1603 XXYY=           -531.9538 XXZZ=           -444.7946 YYZZ=           -184.9235
 XXYZ=              9.5863 YYXZ=             -3.2495 ZZXY=             -1.2988
 N-N= 7.644892184112D+02 E-N=-2.702474691131D+03  KE= 5.015113254277D+02
  Exact polarizability: 133.181   0.223 111.650   2.807  -0.325  97.845
 Approx polarizability: 171.284  -3.154 154.184   8.661  -1.776 154.770
 Calling FoFJK, ICntrl=    100127 FMM=F ISym2X=0 I1Cent= 0 IOpClX= 0 NMat=1 NMatS=1 NMatT=0.
 Full mass-weighted force constant matrix:
 Low frequencies ---   -8.1477   -0.0006   -0.0002    0.0001    2.9207    3.6231
 Low frequencies ---   32.7948   62.2195  120.3050
 Diagonal vibrational polarizability:
        6.0321681       7.1084486      19.2985636
 Harmonic frequencies (cm**-1), IR intensities (KM/Mole), Raman scattering
 activities (A**4/AMU), depolarization ratios for plane and unpolarized
 incident light, reduced masses (AMU), force constants (mDyne/A),
 and normal coordinates:
                      1                      2                      3
                      A                      A                      A
 Frequencies --     32.7810                62.2148               120.3043
 Red. masses --      2.5502                 5.7189                 2.3176
 Frc consts  --      0.0016                 0.0130                 0.0198
 IR Inten    --      0.0851                 2.8336                 0.0594
  Atom  AN      X      Y      Z        X      Y      Z        X      Y      Z
     1   8     0.00  -0.04  -0.05    -0.20   0.03   0.39    -0.01   0.03   0.03
     2   6     0.00  -0.00  -0.03    -0.03   0.01   0.05    -0.01   0.01   0.01
     3   6     0.00   0.02   0.06     0.03  -0.01  -0.08    -0.04  -0.00   0.01
     4   6    -0.00  -0.01   0.14     0.02   0.00  -0.10     0.02   0.02  -0.18
     5   6     0.00  -0.02   0.07     0.02   0.00  -0.11     0.03  -0.06   0.23
     6   6     0.00   0.02  -0.01     0.00   0.01  -0.10     0.02   0.02   0.07
     7   6     0.00   0.01  -0.00     0.03  -0.00   0.03     0.00   0.01   0.01
     8   6     0.04   0.17  -0.01     0.16  -0.02   0.05    -0.08   0.01  -0.01
     9   6    -0.05  -0.08  -0.14    -0.03   0.00   0.09     0.04   0.01  -0.03
    10   6     0.01  -0.08   0.15    -0.01  -0.00   0.10     0.03   0.01  -0.04
    11   6    -0.01  -0.02  -0.09     0.01  -0.03  -0.21    -0.02  -0.05  -0.06
    12   6    -0.00   0.02  -0.09     0.04   0.02  -0.17     0.01  -0.00  -0.01
    13   1     0.01   0.10   0.06     0.06  -0.07  -0.08    -0.22  -0.03   0.03
    14   1     0.00   0.02   0.13     0.03  -0.01  -0.07    -0.05   0.03  -0.37
    15   1    -0.01  -0.08   0.14    -0.01   0.05  -0.10     0.23   0.05  -0.20
    16   1    -0.00   0.02   0.20     0.03  -0.01  -0.15    -0.06   0.00  -0.15
    17   1     0.00  -0.10   0.07     0.01   0.01  -0.11     0.14  -0.28   0.23
    18   1    -0.00   0.01   0.15     0.03  -0.00  -0.12     0.01   0.01   0.45
    19   1     0.01   0.08  -0.01    -0.07   0.07  -0.10     0.07   0.14   0.07
    20   1     0.17   0.27   0.10     0.23  -0.01   0.02    -0.04   0.04   0.02
    21   1    -0.06   0.30  -0.13     0.17   0.00   0.00    -0.14   0.05   0.01
    22   1     0.02   0.07   0.00     0.17  -0.06   0.14    -0.10  -0.04  -0.05
    23   1    -0.15  -0.23  -0.16    -0.15   0.00   0.07     0.05  -0.02  -0.02
    24   1    -0.03  -0.04  -0.06    -0.01   0.00   0.20     0.04   0.04  -0.04
    25   1     0.01  -0.02  -0.32     0.02  -0.00   0.04     0.05   0.01  -0.04
    26   1     0.04  -0.25   0.17    -0.09  -0.01   0.09     0.14  -0.03  -0.02
    27   1     0.01  -0.05   0.08    -0.00  -0.00   0.18     0.02   0.03  -0.15
    28   1    -0.00   0.00   0.31     0.02  -0.00   0.09    -0.03   0.02   0.01
    29   1    -0.00   0.01  -0.16     0.02  -0.00  -0.32    -0.01  -0.00  -0.20
    30   1    -0.03  -0.10  -0.09    -0.03  -0.14  -0.21    -0.09  -0.18  -0.06
    31   1    -0.00  -0.01  -0.15     0.01  -0.02  -0.23     0.01  -0.00  -0.01
    32   1     0.00   0.08  -0.10     0.10   0.14  -0.18     0.05   0.01  -0.01
                      4                      5                      6
                      A                      A                      A
 Frequencies --    155.4655               177.9207               202.2901
 Red. masses --      2.6556                 2.0395                 1.0996
 Frc consts  --      0.0378                 0.0380                 0.0265
 IR Inten    --      0.4629                 0.1872                 0.1615
  Atom  AN      X      Y      Z        X      Y      Z        X      Y      Z
     1   8    -0.10  -0.06   0.04    -0.06   0.03   0.03     0.01   0.02   0.00
     2   6    -0.03  -0.01  -0.06    -0.01   0.01  -0.06     0.00   0.00   0.01
     3   6     0.03   0.03  -0.02    -0.03   0.01  -0.03     0.00  -0.00  -0.01
     4   6     0.12  -0.05  -0.02    -0.08   0.03   0.04     0.02  -0.03   0.01
     5   6     0.03   0.10   0.00    -0.02  -0.05   0.00    -0.00   0.01  -0.02
     6   6     0.02   0.06   0.08     0.01  -0.09   0.05    -0.00   0.01  -0.03
     7   6    -0.00  -0.01   0.02     0.02  -0.01   0.02    -0.00   0.00  -0.01
     8   6    -0.09  -0.03   0.01    -0.01   0.05   0.01     0.02  -0.01  -0.01
     9   6    -0.06  -0.05  -0.01     0.15   0.01  -0.05    -0.03   0.00   0.01
    10   6     0.11  -0.08  -0.04    -0.04   0.04   0.02    -0.01   0.00  -0.00
    11   6     0.05   0.10   0.13     0.06  -0.06   0.08    -0.01   0.01  -0.01
    12   6    -0.06   0.05  -0.12     0.01  -0.00  -0.11     0.00  -0.01   0.05
    13   1    -0.00   0.06  -0.02    -0.04   0.06  -0.03     0.01   0.01  -0.01
    14   1     0.07  -0.08  -0.14    -0.11   0.20  -0.10    -0.11   0.26  -0.43
    15   1     0.24  -0.16  -0.03     0.03  -0.14   0.03     0.44  -0.41  -0.01
    16   1     0.15  -0.01   0.10    -0.22   0.05   0.23    -0.24   0.05   0.49
    17   1     0.04   0.17  -0.00     0.02  -0.04   0.00    -0.02   0.02  -0.02
    18   1     0.03   0.08  -0.07    -0.06  -0.07   0.01     0.01   0.00  -0.04
    19   1     0.03   0.00   0.08     0.01  -0.13   0.05    -0.00   0.01  -0.03
    20   1    -0.04  -0.01   0.02    -0.20  -0.01   0.02     0.05  -0.00  -0.02
    21   1    -0.17   0.01   0.03     0.13  -0.06   0.02     0.02   0.00  -0.02
    22   1    -0.11  -0.12  -0.04     0.02   0.25  -0.03     0.03  -0.03   0.01
    23   1    -0.06  -0.06  -0.01     0.43   0.06  -0.01    -0.10  -0.01  -0.00
    24   1    -0.07  -0.09  -0.02     0.11  -0.01  -0.32    -0.02   0.01   0.08
    25   1    -0.10  -0.02  -0.03     0.03   0.00   0.11     0.01   0.00  -0.03
    26   1     0.26  -0.14  -0.01    -0.15   0.11  -0.00    -0.03   0.01  -0.01
    27   1     0.08  -0.11  -0.20    -0.02   0.03   0.15    -0.01   0.00   0.01
    28   1     0.07  -0.04   0.05     0.01   0.00  -0.06    -0.00   0.00  -0.01
    29   1    -0.03   0.08   0.33     0.04  -0.09   0.19    -0.01   0.01  -0.03
    30   1     0.25   0.21   0.13     0.19  -0.00   0.08    -0.05   0.01  -0.01
    31   1    -0.04  -0.01  -0.27     0.08  -0.02  -0.22    -0.01   0.01   0.11
    32   1    -0.24   0.17  -0.13    -0.12   0.10  -0.11     0.04  -0.07   0.05
                      7                      8                      9
                      A                      A                      A
 Frequencies --    234.2206               255.4781               266.6107
 Red. masses --      1.2781                 1.2497                 1.0641
 Frc consts  --      0.0413                 0.0481                 0.0446
 IR Inten    --      0.0061                 0.1042                 0.0193
  Atom  AN      X      Y      Z        X      Y      Z        X      Y      Z
     1   8    -0.02   0.00   0.00    -0.00   0.01  -0.02    -0.02   0.01  -0.00
     2   6    -0.01  -0.01  -0.02    -0.02  -0.00   0.01    -0.02   0.01  -0.01
     3   6    -0.02  -0.01  -0.02    -0.01  -0.00  -0.01    -0.00   0.01  -0.02
     4   6    -0.08   0.03   0.01    -0.01  -0.01   0.01    -0.01   0.00   0.01
     5   6    -0.01  -0.03  -0.02    -0.01   0.02  -0.04     0.01   0.00   0.01
     6   6     0.01  -0.03   0.01    -0.00   0.01  -0.01     0.01   0.01  -0.00
     7   6     0.02   0.01   0.00     0.01   0.01   0.02     0.01  -0.00  -0.00
     8   6     0.03  -0.01   0.00    -0.02   0.02   0.02     0.02  -0.02   0.00
     9   6     0.06   0.03   0.03     0.04   0.03   0.04     0.01  -0.00  -0.01
    10   6     0.02   0.03  -0.04     0.07  -0.05   0.03     0.02  -0.01   0.01
    11   6     0.01  -0.02   0.05    -0.04  -0.01  -0.06    -0.02   0.00  -0.00
    12   6    -0.01  -0.02  -0.01    -0.01  -0.01   0.03    -0.02  -0.00   0.01
    13   1    -0.01   0.00  -0.02     0.02  -0.01  -0.01    -0.01   0.03  -0.02
    14   1    -0.06   0.10   0.04    -0.01   0.01  -0.01     0.00   0.01   0.04
    15   1    -0.12   0.01   0.02    -0.00  -0.04   0.01    -0.04  -0.01   0.02
    16   1    -0.14   0.01   0.02    -0.02  -0.00   0.04    -0.00   0.01   0.02
    17   1    -0.00  -0.01  -0.02    -0.03   0.08  -0.05     0.03  -0.02   0.00
    18   1    -0.01  -0.03  -0.03    -0.02   0.00  -0.10     0.01   0.01   0.04
    19   1     0.01  -0.06   0.01    -0.04   0.03  -0.01     0.01   0.01  -0.00
    20   1     0.36   0.11   0.03     0.00   0.04   0.04    -0.39  -0.19  -0.08
    21   1    -0.23   0.21  -0.05    -0.07   0.05   0.01     0.36  -0.31   0.09
    22   1    -0.02  -0.35   0.02    -0.04  -0.03  -0.02     0.10   0.41  -0.00
    23   1    -0.18  -0.06  -0.01     0.42   0.23   0.10    -0.17  -0.10  -0.04
    24   1     0.11   0.18   0.26    -0.03  -0.14  -0.32     0.05   0.10   0.17
    25   1     0.26  -0.01  -0.14    -0.22   0.02   0.36     0.16  -0.01  -0.16
    26   1     0.26  -0.15   0.02     0.31  -0.28   0.09     0.23  -0.21   0.06
    27   1     0.01   0.17  -0.33     0.04   0.03  -0.27     0.01   0.10  -0.25
    28   1    -0.20   0.08   0.15    -0.09   0.05   0.27    -0.15   0.06   0.21
    29   1    -0.01  -0.03   0.11    -0.03   0.02  -0.15    -0.03   0.02  -0.01
    30   1     0.06   0.03   0.05    -0.11  -0.08  -0.06    -0.04   0.00  -0.00
    31   1     0.01  -0.01  -0.02    -0.02   0.00   0.08    -0.01   0.01   0.03
    32   1    -0.05  -0.02  -0.01     0.05  -0.06   0.03    -0.01  -0.03   0.01
                     10                     11                     12
                      A                      A                      A
 Frequencies --    272.9320               283.4715               310.9878
 Red. masses --      2.6823                 2.8639                 2.3457
 Frc consts  --      0.1177                 0.1356                 0.1337
 IR Inten    --      0.3582                 3.3423                 0.7809
  Atom  AN      X      Y      Z        X      Y      Z        X      Y      Z
     1   8    -0.11   0.04  -0.03    -0.05   0.21  -0.01    -0.02   0.05   0.02
     2   6    -0.11   0.01  -0.04    -0.04   0.07  -0.08     0.02  -0.02  -0.07
     3   6    -0.07   0.03  -0.02    -0.02   0.04  -0.08     0.01  -0.04  -0.10
     4   6    -0.02  -0.04   0.02     0.16  -0.17   0.07    -0.07  -0.04   0.04
     5   6    -0.02   0.00   0.09    -0.01  -0.01  -0.00     0.04  -0.06  -0.02
     6   6     0.03   0.03  -0.01    -0.01  -0.04   0.01     0.01  -0.01   0.01
     7   6     0.06   0.00  -0.05    -0.02  -0.02   0.01     0.01   0.03   0.03
     8   6     0.24  -0.02  -0.03    -0.07  -0.03   0.01    -0.09   0.15   0.02
     9   6    -0.00  -0.02  -0.03     0.06  -0.01  -0.01    -0.09   0.03   0.10
    10   6     0.10  -0.02  -0.05    -0.09   0.02   0.03     0.15  -0.02  -0.07
    11   6    -0.05   0.03   0.05     0.01  -0.05  -0.01     0.02  -0.03  -0.01
    12   6    -0.08  -0.03   0.07     0.04  -0.02   0.03     0.04  -0.06   0.01
    13   1    -0.13   0.09  -0.01    -0.03   0.14  -0.08     0.01   0.01  -0.10
    14   1    -0.01  -0.12   0.10     0.17  -0.44   0.20    -0.02   0.03   0.16
    15   1    -0.09  -0.03   0.03     0.03  -0.25   0.08    -0.21  -0.12   0.06
    16   1     0.08  -0.01  -0.01     0.47  -0.06   0.06    -0.08  -0.03   0.08
    17   1     0.05  -0.15   0.09     0.05  -0.06  -0.00     0.12  -0.11  -0.02
    18   1    -0.05   0.04   0.24    -0.05  -0.00   0.06     0.02  -0.04   0.05
    19   1     0.11   0.03  -0.01    -0.02  -0.03   0.01    -0.03  -0.00   0.01
    20   1     0.36  -0.00  -0.07     0.04   0.01   0.03    -0.22   0.17   0.14
    21   1     0.28   0.00  -0.11    -0.19   0.05   0.02    -0.05   0.14  -0.02
    22   1     0.28  -0.05   0.14    -0.10  -0.17  -0.03    -0.09   0.28  -0.10
    23   1     0.14   0.06  -0.01     0.02  -0.06  -0.01    -0.24   0.08   0.07
    24   1    -0.04  -0.15  -0.17     0.08   0.09   0.03    -0.07  -0.03   0.26
    25   1    -0.16   0.02   0.08     0.14  -0.03  -0.06    -0.07   0.04   0.07
    26   1     0.01   0.12  -0.09    -0.09  -0.04   0.04     0.13   0.20  -0.10
    27   1     0.09  -0.13   0.08    -0.07   0.11   0.01     0.11  -0.24   0.02
    28   1     0.23  -0.06  -0.18    -0.17   0.02   0.07     0.35  -0.06  -0.24
    29   1    -0.08   0.03   0.10     0.02  -0.04  -0.06     0.04  -0.04  -0.03
    30   1    -0.05   0.09   0.05    -0.03  -0.08  -0.01    -0.00  -0.05  -0.01
    31   1    -0.06   0.03   0.17     0.09   0.05   0.13     0.04  -0.02   0.09
    32   1    -0.10  -0.16   0.08     0.06  -0.14   0.04     0.04  -0.16   0.02
                     13                     14                     15
                      A                      A                      A
 Frequencies --    340.4484               361.2896               388.3816
 Red. masses --      1.9664                 2.2491                 2.7308
 Frc consts  --      0.1343                 0.1730                 0.2427
 IR Inten    --      0.2549                 0.7020                 1.9633
  Atom  AN      X      Y      Z        X      Y      Z        X      Y      Z
     1   8    -0.05  -0.03  -0.03     0.03   0.04  -0.04    -0.04  -0.06  -0.00
     2   6    -0.06   0.01   0.01    -0.05   0.01   0.09    -0.00   0.05  -0.03
     3   6    -0.01   0.03  -0.01    -0.09  -0.01   0.13     0.11   0.09  -0.07
     4   6    -0.02   0.03   0.00     0.03  -0.07  -0.03     0.09   0.12   0.02
     5   6    -0.00   0.07  -0.04    -0.12   0.06  -0.03     0.07  -0.03  -0.05
     6   6     0.02   0.03   0.02    -0.02  -0.05   0.04     0.00  -0.06   0.07
     7   6     0.05   0.00   0.05     0.01  -0.03   0.03    -0.01  -0.03   0.08
     8   6    -0.07  -0.06   0.05     0.06   0.10   0.03     0.03   0.03   0.10
     9   6     0.15  -0.02  -0.04     0.03  -0.03   0.03    -0.06  -0.12  -0.03
    10   6     0.10  -0.03   0.05     0.05   0.01  -0.10    -0.04   0.08  -0.10
    11   6    -0.06  -0.00  -0.06     0.02  -0.08  -0.01    -0.08  -0.11   0.01
    12   6    -0.05  -0.00   0.04     0.02   0.01  -0.05    -0.05   0.04   0.05
    13   1     0.02   0.01  -0.01    -0.07  -0.10   0.13     0.16   0.13  -0.07
    14   1    -0.01   0.07  -0.00    -0.04  -0.22  -0.15     0.11   0.17   0.05
    15   1    -0.02   0.03   0.00     0.18   0.01  -0.05     0.04   0.09   0.03
    16   1    -0.04   0.03   0.02     0.11  -0.05  -0.08     0.07   0.12   0.04
    17   1    -0.03   0.19  -0.05    -0.26   0.31  -0.03     0.14   0.02  -0.05
    18   1     0.01   0.03  -0.16    -0.13  -0.04  -0.30    -0.02  -0.06  -0.05
    19   1    -0.03   0.06   0.02    -0.02  -0.07   0.04    -0.05  -0.09   0.07
    20   1    -0.07  -0.07   0.03     0.00   0.13   0.13     0.07   0.07   0.14
    21   1    -0.17  -0.04   0.15     0.16   0.10  -0.09     0.05   0.06   0.01
    22   1    -0.11  -0.14  -0.06     0.09   0.23   0.07     0.04   0.04   0.14
    23   1     0.03  -0.22  -0.06    -0.07  -0.06   0.02     0.03  -0.21  -0.02
    24   1     0.19   0.18   0.06     0.05   0.02   0.13    -0.09  -0.22  -0.15
    25   1     0.35  -0.04  -0.24     0.09  -0.03  -0.03    -0.20  -0.01  -0.08
    26   1    -0.09   0.16  -0.00     0.16   0.13  -0.10     0.12   0.21  -0.10
    27   1     0.10  -0.20   0.30     0.03  -0.03  -0.18    -0.04   0.18  -0.26
    28   1     0.33  -0.07  -0.14     0.02  -0.04  -0.19    -0.23  -0.01  -0.21
    29   1    -0.06   0.06  -0.22     0.03  -0.06  -0.09    -0.05  -0.06  -0.20
    30   1    -0.18  -0.13  -0.06     0.01  -0.17  -0.01    -0.20  -0.28   0.01
    31   1    -0.05   0.03   0.11     0.05  -0.05  -0.21     0.04   0.08   0.05
    32   1     0.01  -0.07   0.04     0.02   0.21  -0.07    -0.06   0.01   0.05
                     16                     17                     18
                      A                      A                      A
 Frequencies --    394.3528               444.7850               453.4644
 Red. masses --      2.6541                 2.5253                 2.6942
 Frc consts  --      0.2432                 0.2943                 0.3264
 IR Inten    --      1.8833                 0.5300                 0.8437
  Atom  AN      X      Y      Z        X      Y      Z        X      Y      Z
     1   8    -0.05  -0.06  -0.02     0.06   0.06  -0.00     0.08   0.03   0.03
     2   6    -0.04   0.06   0.00     0.01   0.03   0.07     0.06   0.01   0.04
     3   6     0.05   0.09   0.02     0.03  -0.03  -0.02     0.03  -0.06  -0.07
     4   6     0.11   0.10  -0.00     0.02  -0.03  -0.00    -0.03  -0.07   0.00
     5   6     0.00  -0.05  -0.00     0.01  -0.12  -0.04     0.03  -0.06  -0.01
     6   6     0.00  -0.08  -0.06    -0.05  -0.08   0.01    -0.10   0.05  -0.04
     7   6     0.00  -0.07  -0.09    -0.01   0.12  -0.02    -0.08  -0.08   0.05
     8   6    -0.01   0.07  -0.12     0.01  -0.07  -0.01     0.03   0.04   0.07
     9   6     0.06   0.05   0.14    -0.06   0.12  -0.07     0.11  -0.06   0.02
    10   6    -0.02  -0.13   0.02     0.11   0.02   0.06    -0.04  -0.10  -0.08
    11   6    -0.05  -0.05   0.04    -0.09  -0.09   0.06    -0.07   0.14  -0.02
    12   6    -0.06   0.06   0.03    -0.07   0.11  -0.01    -0.07   0.13   0.01
    13   1     0.06   0.12   0.02     0.08  -0.07  -0.02     0.05  -0.10  -0.07
    14   1     0.08   0.04  -0.06     0.02  -0.05  -0.00    -0.00  -0.02   0.05
    15   1     0.17   0.13  -0.01     0.03  -0.06  -0.00    -0.09  -0.15   0.01
    16   1     0.14   0.10  -0.02     0.04  -0.02   0.02    -0.03  -0.05   0.06
    17   1    -0.02  -0.14   0.00     0.02  -0.13  -0.04     0.12  -0.25  -0.00
    18   1    -0.06  -0.05   0.07    -0.03  -0.12  -0.01     0.12   0.04   0.19
    19   1     0.06  -0.13  -0.06    -0.05  -0.17   0.02    -0.16   0.08  -0.04
    20   1    -0.05   0.14   0.03     0.06  -0.16  -0.20     0.08   0.11   0.17
    21   1    -0.02   0.13  -0.23    -0.01  -0.14   0.15     0.09   0.09  -0.11
    22   1    -0.02   0.14  -0.19     0.01  -0.17   0.05     0.06   0.09   0.17
    23   1    -0.09   0.29   0.11    -0.07   0.07  -0.07     0.21  -0.11   0.04
    24   1     0.10   0.15   0.33    -0.07   0.07  -0.07     0.12   0.16  -0.07
    25   1     0.21  -0.11   0.28    -0.10   0.16  -0.12     0.25  -0.16   0.04
    26   1    -0.15  -0.19   0.01     0.11  -0.03   0.06     0.05   0.03  -0.08
    27   1    -0.02  -0.17   0.14     0.08  -0.15   0.08    -0.06  -0.16  -0.14
    28   1     0.08  -0.08   0.06     0.29   0.09   0.12    -0.03  -0.15  -0.18
    29   1    -0.01  -0.09   0.05     0.01  -0.13  -0.04    -0.03   0.09   0.02
    30   1    -0.09  -0.01   0.04    -0.13  -0.17   0.06    -0.10   0.21  -0.02
    31   1     0.03   0.08  -0.01    -0.03  -0.02  -0.33    -0.18   0.02  -0.14
    32   1    -0.10   0.07   0.03    -0.17   0.43  -0.04    -0.09   0.30  -0.01
                     19                     20                     21
                      A                      A                      A
 Frequencies --    509.5562               529.5306               572.7903
 Red. masses --      2.2201                 2.4304                 3.5951
 Frc consts  --      0.3396                 0.4015                 0.6950
 IR Inten    --      1.4415                 0.5171                 3.6438
  Atom  AN      X      Y      Z        X      Y      Z        X      Y      Z
     1   8     0.03   0.08  -0.01    -0.00   0.04  -0.03     0.03   0.21   0.00
     2   6    -0.01  -0.03   0.03    -0.05   0.01   0.06    -0.01  -0.11  -0.03
     3   6     0.03  -0.06  -0.05    -0.02  -0.01   0.04     0.10  -0.05   0.14
     4   6    -0.07  -0.04   0.00    -0.01  -0.02  -0.01     0.10   0.12   0.03
     5   6     0.10   0.10   0.03    -0.00  -0.07  -0.02     0.06  -0.02  -0.01
     6   6     0.09   0.06   0.13     0.06  -0.02  -0.14    -0.02   0.01  -0.05
     7   6     0.05  -0.04  -0.06     0.18  -0.03   0.02    -0.04   0.00   0.02
     8   6     0.01  -0.00  -0.11    -0.04   0.01  -0.01    -0.01   0.00   0.05
     9   6    -0.01  -0.04   0.04     0.01  -0.14   0.05     0.00   0.01  -0.01
    10   6    -0.06  -0.02   0.01     0.05   0.13   0.04    -0.00  -0.04  -0.01
    11   6    -0.05  -0.04   0.03    -0.03   0.05  -0.01    -0.09  -0.01  -0.01
    12   6    -0.06  -0.00  -0.01    -0.07   0.04   0.00    -0.12  -0.23  -0.11
    13   1     0.01  -0.10  -0.05     0.02  -0.06   0.04     0.15   0.03   0.14
    14   1    -0.01   0.09   0.09    -0.03  -0.04  -0.05     0.07   0.24  -0.06
    15   1    -0.17  -0.09   0.01     0.04   0.01  -0.01     0.20   0.38   0.02
    16   1    -0.15  -0.06   0.03    -0.01  -0.03  -0.02    -0.12  -0.01  -0.14
    17   1     0.19   0.31   0.02    -0.08  -0.25  -0.01    -0.07   0.01  -0.01
    18   1     0.12   0.05  -0.14    -0.02  -0.02   0.12     0.13  -0.02  -0.08
    19   1     0.20   0.05   0.13     0.03  -0.03  -0.14    -0.05   0.03  -0.05
    20   1     0.01   0.03  -0.05    -0.20   0.03   0.12     0.01   0.01   0.04
    21   1     0.01   0.03  -0.15    -0.20   0.05   0.11     0.01   0.00   0.02
    22   1     0.01   0.01  -0.13    -0.11   0.01  -0.34     0.00   0.01   0.08
    23   1    -0.06   0.09   0.03    -0.05  -0.13   0.05     0.05  -0.02  -0.00
    24   1    -0.00  -0.10   0.11    -0.01  -0.37   0.09     0.00   0.08  -0.06
    25   1    -0.03  -0.06   0.12    -0.16  -0.03   0.02     0.04  -0.01  -0.01
    26   1    -0.20  -0.08  -0.01    -0.01   0.13   0.03     0.02   0.01  -0.02
    27   1    -0.01   0.12   0.12     0.11   0.35   0.07    -0.02  -0.10  -0.02
    28   1    -0.14  -0.02   0.03    -0.15   0.07   0.01     0.04  -0.04  -0.05
    29   1    -0.10   0.11  -0.25    -0.06   0.02   0.13    -0.24   0.01   0.24
    30   1    -0.17  -0.30   0.03    -0.03   0.25  -0.00     0.07   0.18  -0.00
    31   1    -0.07  -0.11  -0.25    -0.08  -0.02  -0.12    -0.23  -0.27  -0.08
    32   1    -0.15   0.25  -0.03    -0.08   0.18  -0.01    -0.17  -0.26  -0.10
                     22                     23                     24
                      A                      A                      A
 Frequencies --    686.4545               731.6350               776.0647
 Red. masses --      3.9647                 2.6117                 2.6842
 Frc consts  --      1.1007                 0.8237                 0.9525
 IR Inten    --      1.2525                 3.2345                 1.8425
  Atom  AN      X      Y      Z        X      Y      Z        X      Y      Z
     1   8     0.12  -0.02   0.14    -0.09   0.03  -0.02    -0.01  -0.00   0.03
     2   6     0.26  -0.05  -0.22    -0.00   0.07  -0.14     0.06  -0.01  -0.11
     3   6    -0.06   0.06  -0.02     0.08  -0.13   0.15    -0.03   0.01   0.05
     4   6     0.01   0.02  -0.00    -0.02  -0.07   0.01    -0.04  -0.04  -0.01
     5   6    -0.17  -0.00   0.04     0.07  -0.12   0.01     0.01   0.01   0.01
     6   6    -0.09  -0.01   0.05    -0.02  -0.02   0.06     0.15  -0.01  -0.12
     7   6     0.04  -0.01  -0.01    -0.00   0.00  -0.00     0.08  -0.01  -0.03
     8   6     0.03  -0.01  -0.09     0.01  -0.00  -0.04    -0.00   0.01   0.20
     9   6     0.03  -0.07   0.03    -0.00  -0.02   0.01    -0.03   0.12  -0.06
    10   6     0.06   0.07   0.03     0.00   0.01   0.01    -0.07  -0.11  -0.06
    11   6    -0.13   0.04   0.03    -0.00   0.06  -0.02    -0.00   0.01   0.05
    12   6    -0.06  -0.01  -0.02    -0.00   0.17  -0.01    -0.01   0.02   0.05
    13   1    -0.24   0.27  -0.01     0.02  -0.04   0.15    -0.13   0.15   0.05
    14   1    -0.02  -0.14  -0.01    -0.05   0.02  -0.10    -0.07  -0.08  -0.06
    15   1     0.05  -0.03  -0.00     0.08   0.19  -0.01     0.03   0.04  -0.01
    16   1     0.18   0.09   0.02    -0.23  -0.21  -0.19    -0.03  -0.05  -0.06
    17   1    -0.27   0.18   0.03    -0.11   0.25   0.00    -0.17   0.03   0.02
    18   1    -0.17  -0.07  -0.17     0.22  -0.20  -0.38     0.02  -0.02  -0.09
    19   1    -0.05  -0.02   0.05    -0.00   0.01   0.06     0.26  -0.06  -0.11
    20   1    -0.01  -0.01  -0.08     0.02  -0.01  -0.06    -0.11   0.02   0.30
    21   1    -0.00  -0.00  -0.07     0.02  -0.01  -0.05    -0.11   0.03   0.29
    22   1     0.02  -0.01  -0.16     0.01   0.00  -0.01    -0.04   0.01   0.01
    23   1    -0.01  -0.06   0.03    -0.00  -0.01   0.01    -0.09   0.16  -0.07
    24   1     0.04  -0.13   0.08    -0.01  -0.04   0.01    -0.03   0.04  -0.02
    25   1    -0.00  -0.05   0.03    -0.01  -0.02   0.02    -0.08   0.16  -0.07
    26   1     0.03   0.06   0.03    -0.00   0.01   0.01    -0.15  -0.14  -0.07
    27   1     0.08   0.11   0.06     0.01   0.03   0.01    -0.04  -0.02  -0.02
    28   1     0.04   0.07   0.04     0.00   0.02   0.01    -0.14  -0.13  -0.07
    29   1    -0.06   0.06  -0.16     0.10   0.00  -0.07     0.04   0.08  -0.22
    30   1    -0.25  -0.10   0.03     0.01  -0.01  -0.02    -0.31  -0.07   0.05
    31   1    -0.20  -0.04   0.06     0.05   0.35   0.35     0.07  -0.03  -0.15
    32   1    -0.27  -0.21   0.01     0.04  -0.25   0.03    -0.29   0.12   0.05
                     25                     26                     27
                      A                      A                      A
 Frequencies --    831.7882               874.9796               903.8026
 Red. masses --      1.7510                 2.4069                 1.8833
 Frc consts  --      0.7138                 1.0857                 0.9064
 IR Inten    --      2.7001                 3.9839                 3.9458
  Atom  AN      X      Y      Z        X      Y      Z        X      Y      Z
     1   8     0.05  -0.01   0.01    -0.01   0.02  -0.02    -0.04   0.02  -0.02
     2   6     0.02   0.06   0.08    -0.04  -0.07   0.04    -0.04  -0.07  -0.02
     3   6    -0.01   0.03  -0.04    -0.03  -0.01  -0.02     0.04  -0.08  -0.08
     4   6    -0.01   0.01  -0.02     0.04   0.06   0.03     0.11   0.05  -0.01
     5   6     0.02  -0.04   0.05    -0.08  -0.12  -0.09    -0.09  -0.03   0.11
     6   6     0.03  -0.05   0.06     0.01  -0.01   0.16    -0.01  -0.04  -0.02
     7   6     0.07  -0.01  -0.01     0.07  -0.02   0.02    -0.01  -0.02  -0.01
     8   6     0.01   0.00   0.05     0.01  -0.00  -0.01     0.00  -0.01   0.01
     9   6    -0.00   0.06  -0.03     0.01   0.07  -0.03    -0.00   0.01  -0.01
    10   6    -0.02  -0.05  -0.03    -0.01  -0.05  -0.02     0.01   0.02   0.01
    11   6    -0.06  -0.01  -0.08     0.10   0.18  -0.01     0.06   0.04  -0.05
    12   6    -0.08   0.02  -0.07    -0.02  -0.01  -0.01     0.02   0.02   0.09
    13   1    -0.10  -0.12  -0.04     0.18  -0.02  -0.03    -0.26  -0.09  -0.05
    14   1     0.02  -0.05   0.09    -0.01  -0.03  -0.06     0.27   0.41   0.25
    15   1    -0.11  -0.20  -0.01     0.15   0.12   0.02    -0.22  -0.08   0.02
    16   1     0.12   0.11   0.12     0.09   0.06  -0.02    -0.09   0.03   0.11
    17   1     0.03   0.25   0.03     0.05  -0.26  -0.08    -0.23   0.27   0.10
    18   1    -0.10  -0.18  -0.22    -0.22  -0.10   0.11    -0.10  -0.17  -0.25
    19   1     0.08   0.10   0.05    -0.07  -0.18   0.16     0.06   0.15  -0.02
    20   1    -0.04   0.01   0.09    -0.00   0.00   0.01    -0.01   0.01   0.05
    21   1    -0.04   0.01   0.09    -0.00   0.00   0.00    -0.00   0.01  -0.01
    22   1    -0.01   0.01  -0.05     0.00  -0.00  -0.06     0.00   0.02  -0.01
    23   1    -0.09   0.11  -0.05    -0.11   0.10  -0.05    -0.02   0.03  -0.01
    24   1    -0.00  -0.06   0.04     0.00  -0.10   0.07    -0.00   0.00   0.00
    25   1    -0.08   0.11  -0.04    -0.11   0.15  -0.05    -0.01   0.01   0.00
    26   1    -0.10  -0.07  -0.04    -0.11  -0.05  -0.04     0.04   0.02   0.02
    27   1     0.02   0.04   0.04     0.03   0.09   0.04     0.00  -0.00  -0.01
    28   1    -0.09  -0.07  -0.03    -0.13  -0.09  -0.04     0.04   0.03   0.02
    29   1    -0.19  -0.08   0.34     0.06   0.36  -0.38     0.16  -0.05  -0.01
    30   1     0.29   0.24  -0.07     0.01  -0.26  -0.02    -0.05   0.15  -0.04
    31   1    -0.18   0.12   0.25    -0.28  -0.09   0.08    -0.06  -0.12  -0.15
    32   1     0.24  -0.24  -0.06     0.03  -0.04  -0.01    -0.03   0.29   0.06
                     28                     29                     30
                      A                      A                      A
 Frequencies --    919.0713               940.1434               941.5014
 Red. masses --      2.0623                 1.7627                 1.7650
 Frc consts  --      1.0264                 0.9179                 0.9218
 IR Inten    --      2.5040                 0.6886                 0.8578
  Atom  AN      X      Y      Z        X      Y      Z        X      Y      Z
     1   8     0.00  -0.01   0.00    -0.01  -0.00  -0.00    -0.00   0.00  -0.00
     2   6    -0.00  -0.01   0.02    -0.00  -0.01  -0.01    -0.00  -0.01   0.00
     3   6    -0.07   0.07   0.00    -0.02   0.02   0.00     0.00  -0.01  -0.00
     4   6    -0.05   0.04   0.01    -0.02   0.01   0.01     0.01   0.01  -0.00
     5   6     0.09  -0.13  -0.00     0.05  -0.04   0.00    -0.01  -0.01   0.00
     6   6     0.15  -0.02  -0.01    -0.01   0.02   0.00    -0.00   0.01   0.00
     7   6    -0.10   0.02  -0.01     0.03   0.01   0.13     0.03   0.15  -0.01
     8   6    -0.05   0.01  -0.01     0.07  -0.01  -0.12     0.01   0.09   0.00
     9   6    -0.02  -0.06   0.02    -0.02   0.08   0.04     0.09  -0.08   0.06
    10   6    -0.00   0.06   0.02    -0.06  -0.08   0.04    -0.11  -0.04  -0.06
    11   6     0.04   0.07  -0.04    -0.01  -0.01  -0.02    -0.00   0.00   0.00
    12   6    -0.03  -0.04   0.04     0.03  -0.02   0.04     0.01  -0.00   0.00
    13   1    -0.13   0.16   0.01    -0.05   0.12   0.00    -0.03  -0.02  -0.00
    14   1    -0.14  -0.30  -0.08    -0.06  -0.11  -0.05     0.03   0.04   0.03
    15   1     0.11  -0.06  -0.01     0.07   0.02   0.00    -0.02  -0.01   0.00
    16   1     0.25   0.16   0.05     0.07   0.04  -0.01    -0.01   0.01   0.01
    17   1     0.02   0.19  -0.02     0.02   0.11  -0.00    -0.04   0.00   0.00
    18   1    -0.01  -0.27  -0.31     0.05  -0.08  -0.13    -0.02  -0.02  -0.01
    19   1     0.22   0.08  -0.01    -0.10   0.15  -0.00     0.00   0.01   0.00
    20   1     0.11  -0.01  -0.14    -0.11  -0.01  -0.02     0.02  -0.12  -0.39
    21   1     0.11  -0.04  -0.12    -0.10   0.04   0.01    -0.05  -0.09   0.41
    22   1     0.01   0.00   0.30    -0.00  -0.02  -0.45    -0.02  -0.15   0.01
    23   1     0.08  -0.06   0.04     0.11  -0.30   0.06    -0.07  -0.15   0.04
    24   1    -0.01   0.11  -0.05    -0.06   0.11  -0.19     0.07  -0.42   0.15
    25   1     0.11  -0.16   0.08    -0.06   0.23  -0.23    -0.16   0.12  -0.05
    26   1     0.08   0.02   0.03     0.18   0.22   0.03    -0.01  -0.19  -0.03
    27   1    -0.05  -0.11  -0.03    -0.09  -0.10  -0.17    -0.19  -0.37  -0.10
    28   1     0.15   0.11   0.07    -0.14  -0.22  -0.21     0.20   0.08   0.06
    29   1    -0.02   0.12  -0.06    -0.01  -0.04   0.08     0.02  -0.01  -0.01
    30   1    -0.04   0.10  -0.04    -0.04   0.13  -0.01     0.01  -0.01   0.00
    31   1    -0.12  -0.14  -0.10     0.08  -0.08  -0.13     0.01  -0.01  -0.01
    32   1    -0.07   0.13   0.02    -0.01   0.16   0.02     0.01   0.01  -0.00
                     31                     32                     33
                      A                      A                      A
 Frequencies --    964.3304               970.1705               986.2791
 Red. masses --      1.7019                 1.2119                 1.7700
 Frc consts  --      0.9325                 0.6721                 1.0144
 IR Inten    --      0.7393                 0.1761                 4.3434
  Atom  AN      X      Y      Z        X      Y      Z        X      Y      Z
     1   8     0.03   0.01   0.01    -0.00  -0.00  -0.00     0.01   0.01   0.01
     2   6     0.01   0.03   0.03    -0.00   0.00  -0.00     0.01  -0.07  -0.02
     3   6     0.03  -0.00   0.02    -0.00  -0.00  -0.00     0.02   0.05  -0.03
     4   6     0.01  -0.02  -0.04     0.00   0.01   0.00    -0.03  -0.06   0.04
     5   6    -0.03   0.06   0.01     0.00  -0.01  -0.00     0.01   0.08   0.02
     6   6     0.11  -0.07  -0.05    -0.01   0.01   0.00    -0.01  -0.08   0.01
     7   6    -0.05   0.00   0.04     0.00  -0.00  -0.00     0.00  -0.02   0.01
     8   6     0.01   0.01  -0.04     0.01   0.07   0.00    -0.01   0.01  -0.00
     9   6    -0.03   0.01   0.03    -0.02  -0.04  -0.07     0.02   0.01  -0.03
    10   6    -0.04   0.02   0.05     0.01  -0.04   0.06    -0.01   0.01   0.02
    11   6     0.06   0.01   0.02    -0.01   0.00   0.00     0.08  -0.03  -0.10
    12   6    -0.11   0.03  -0.06     0.02  -0.01   0.00    -0.10   0.05   0.08
    13   1    -0.05  -0.20   0.02    -0.02  -0.00  -0.00     0.16   0.40  -0.03
    14   1     0.11   0.14   0.13     0.00  -0.01   0.01    -0.11  -0.03  -0.18
    15   1    -0.19  -0.15  -0.02     0.00  -0.01   0.00     0.15   0.26   0.01
    16   1    -0.07  -0.01   0.08     0.02   0.02   0.01    -0.18  -0.20  -0.21
    17   1    -0.12  -0.12   0.02    -0.02   0.01  -0.00     0.16   0.06   0.01
    18   1    -0.08   0.08   0.12     0.04  -0.01  -0.02    -0.11   0.06   0.09
    19   1     0.18  -0.26  -0.05    -0.02   0.01   0.00    -0.04   0.03   0.01
    20   1    -0.03  -0.02  -0.07     0.01  -0.12  -0.34     0.02  -0.01  -0.06
[...]
 6175,0.00042744,-0.00183488,-0.00010627,-0.22100683,-0.01233487,-0.123
 04910,0.00043937,0.00016645,-0.00019437,-0.00007532,0.00015116,0.00011
 206,0.00002612,-0.00000667,0.00000487,-0.00005981,0.00006084,-0.000006
 68,-0.00000260,-0.00000250,0.00001217,0.00001650,0.00001454,0.00000525
 ,-0.00007413,0.00001030,0.00005991,0.00004436,0.00014761,-0.00001295,0
 .00021779,-0.00001894,-0.00015497,-0.00003696,0.00007711,-0.00002353,0
 .00045739,-0.00002845,0.00026690,0.00024563,0.00030096,0.00104146,0.00
 003645,0.00004369,0.00009421,0.00102223,0.00039884,0.00024061,0.000275
 27,-0.00017167,0.00039927,0.00978252,0.00061985,0.00607930,0.23967927,
 -0.00000440,0.00017712,0.00001125,-0.00012561,-0.00045809,-0.00011155,
 0.00029133,-0.00042217,-0.00020145,0.00014739,0.00008097,0.00019745,0.
 00119161,0.00069274,0.00130962,0.00227840,-0.00497107,-0.00177874,0.02
 189612,-0.00013262,0.01635161,-0.00036661,0.00060239,0.00097747,0.0017
 7146,0.00081636,0.00113540,-0.01347771,-0.04842448,-0.00924930,-0.0003
 2311,-0.00092157,-0.00038794,-0.00006876,0.00047277,0.00005075,-0.0000
 3691,0.00000647,-0.00000126,0.00005677,-0.00007754,0.00000780,-0.00000
 345,0.00000031,-0.00001009,-0.00001489,0.00000615,-0.00000251,0.000045
 11,-0.00001177,-0.00007680,-0.00007615,0.00002934,0.00003727,-0.000197
 25,-0.00005195,-0.00013327,-0.00007382,-0.00001475,-0.00013726,-0.0003
 0543,-0.00001348,0.00014795,-0.00013698,0.00019456,-0.00049913,-0.0001
 1334,-0.00010480,0.00001334,-0.00041323,-0.00072344,-0.00036621,-0.000
 17453,0.00041355,-0.00011931,-0.00163474,-0.00100185,-0.00062548,0.012
 10960,0.05401029,-0.00008114,0.00002810,-0.00000199,0.00010598,-0.0000
 7000,0.00001677,0.00003523,0.00000160,0.00004072,-0.00000751,-0.000012
 57,-0.00001137,-0.00000982,-0.00028530,0.00048123,0.00029324,-0.000032
 90,0.00007803,0.00403608,0.00039755,0.00128265,0.00079474,-0.00004558,
 0.00068186,-0.00010741,-0.00024733,-0.00006675,-0.12330408,-0.00849346
 ,-0.13765141,0.00025132,0.00000975,0.00019729,0.00000438,-0.00002602,-
 0.00002085,0.00000099,-0.00001286,0.00000776,-0.00000682,0.00000456,-0
 .00000760,0.00000278,-0.00000076,0.00000115,0.00000429,0.00000562,0.00
 000182,-0.00011158,0.00013429,-0.00000080,0.00001399,0.00006645,-0.000
 01889,0.00013086,-0.00016732,0.00054393,0.00007236,-0.00000209,-0.0000
 3837,-0.00008939,0.00015334,0.00012220,-0.00000748,-0.00022901,0.00015
 910,-0.00015732,0.00002359,-0.00008522,0.00025023,0.00037295,0.0004323
 0,0.00038666,0.00007372,0.00008188,-0.02632094,-0.00228068,-0.01734595
 ,0.13602447,0.01061060,0.14590880,0.00005665,-0.00001272,0.00000502,-0
 .00007848,0.00003988,-0.00002580,0.00001834,-0.00007100,-0.00003156,0.
 00001513,0.00001356,0.00002697,0.00000591,0.00001443,0.00019710,0.0008
 5308,-0.00049791,-0.00015100,0.01061343,0.01536130,-0.00480727,0.00098
 543,0.00009456,-0.00061447,-0.00201659,0.00247337,0.00034392,-0.113893
 60,-0.10960299,0.03270649,-0.00143670,-0.00023610,-0.00102872,-0.00007
 319,0.00011563,0.00000005,-0.00000162,0.00000332,-0.00000181,0.0000113
 3,-0.00000995,0.00000305,-0.00000005,0.00000037,-0.00000275,-0.0000037
 2,-0.00000212,-0.00000102,0.00000638,-0.00000749,-0.00000217,0.0000375
 4,-0.00007869,0.00002157,-0.00009517,0.00004400,-0.00006856,0.00006356
 ,-0.00015176,0.00010763,0.00007932,-0.00006319,-0.00031554,-0.00010012
 ,-0.00014517,0.00010107,-0.00014913,0.00004514,-0.00011900,0.00028362,
 0.00018631,0.00038174,0.00093841,0.00098086,-0.00002251,-0.00524280,-0
 .00705533,0.00115676,-0.01321584,-0.02208513,0.00781588,0.12493945,-0.
 00014511,0.00026654,0.00003687,-0.00001034,-0.00062759,-0.00019186,0.0
 0008555,0.00007265,0.00002580,0.00004178,0.00001204,0.00003879,0.00012
 806,0.00012444,0.00004347,-0.00104811,-0.00022006,-0.00046735,-0.01488
 617,-0.02091264,0.00611612,-0.00131270,0.00086157,0.00125384,0.0049814
 3,-0.00414458,-0.00147195,-0.10847168,-0.23257490,0.05318246,-0.000271
 59,-0.00072615,-0.00056854,-0.00010592,0.00086552,0.00006527,-0.000016
 60,-0.00000135,-0.00000981,0.00001266,-0.00001944,0.00000830,-0.000005
 28,-0.00000515,-0.00000596,-0.00000436,0.00003537,-0.00000596,0.000037
 20,-0.00003040,-0.00002603,-0.00009934,0.00022140,-0.00006335,0.000064
 87,0.00001682,-0.00007215,0.00079682,0.00041953,-0.00087521,0.00020039
 ,0.00043083,0.00009845,0.00003100,-0.00008200,-0.00010778,0.00005980,0
 .00026669,0.00016651,0.00017771,0.00040169,-0.00009171,-0.00105798,-0.
 00169396,0.00038451,0.00183732,0.00314029,-0.00034232,-0.00091046,-0.0
 0099021,-0.00006429,0.12026930,0.25348247,0.00015624,-0.00015427,-0.00
 003464,-0.00008529,0.00037716,0.00011589,0.00001420,-0.00001071,-0.000
 03592,-0.00002623,-0.00001181,-0.00000143,-0.00023605,-0.00014159,0.00
 007422,0.00046656,0.00055142,-0.00019470,-0.00275734,-0.00400760,-0.00
 055593,-0.00064933,-0.00085207,0.00049447,0.00023032,-0.00109945,-0.00
 016097,0.03212135,0.05341002,-0.06510675,-0.00069354,0.00090869,0.0002
 1927,0.00014671,-0.00044426,-0.00009610,0.00000345,-0.00000199,-0.0000
 0083,0.00000143,0.00000721,-0.00000263,0.00000549,0.00000262,0.0000005
 8,0.00000059,-0.00001705,-0.00000138,-0.00000019,0.00002989,0.00000220
 ,0.00002366,-0.00008848,-0.00001157,-0.00004140,0.00003570,0.00011929,
 0.00027838,-0.00003687,0.00014803,-0.00013196,0.00019985,-0.00000459,-
 0.00011967,-0.00008653,-0.00004615,-0.00015066,-0.00032507,0.00029545,
 0.00039352,0.00010599,0.00008451,-0.00001769,-0.00035102,0.00067024,0.
 01608953,0.02726584,-0.00639653,-0.00950425,-0.01736733,0.00529010,-0.
 03447249,-0.05727569,0.06568514,-0.00162300,0.00157605,0.00076582,-0.0
 0066475,-0.00430002,-0.00390612,-0.00016643,0.00010298,0.00056013,0.00
 017140,0.00008846,0.00016751,-0.00262342,-0.00283388,-0.00001285,0.012
 80379,-0.01651949,-0.00186153,0.00071582,0.00050068,-0.00025285,0.0000
 1400,0.00005716,-0.00006498,0.00012590,0.00004252,0.00027476,-0.001909
 47,-0.00007148,-0.00134830,-0.12611910,0.12063370,0.01576540,-0.014039
 25,0.01988720,-0.00132285,-0.00002604,-0.00004325,0.00000829,0.0000394
 2,-0.00006946,0.00002933,-0.00002689,-0.00002526,-0.00003128,-0.000003
 90,0.00011922,-0.00001763,0.00000262,-0.00005292,-0.00018433,0.0008578
 1,-0.00119876,-0.00000051,0.00074671,0.00083773,-0.00001447,-0.0000220
 2,0.00004256,-0.00001258,-0.00003302,-0.00002362,0.00006546,0.00004481
 ,0.00002766,-0.00002771,-0.00000099,-0.00002675,0.00000484,0.00004375,
 0.00007504,0.00001244,0.00003956,0.00009487,0.00002263,-0.00010356,0.0
 0010475,0.00012539,-0.00004323,-0.00020014,0.00008932,-0.00258135,-0.0
 0052907,-0.00118180,0.14144167,0.00007758,0.00005964,0.00011609,-0.000
 45489,0.00075015,-0.00021620,-0.00034291,0.00059935,-0.00024921,0.0001
 0932,0.00007943,0.00014338,-0.00550769,-0.00363857,0.00066957,0.015277
 61,-0.02173544,-0.00312532,0.00137123,-0.00039127,0.00045319,-0.000272
 46,0.00002643,-0.00014343,-0.00006088,0.00016861,0.00003587,0.00061791
 ,-0.00053534,0.00082463,0.11869118,-0.23221599,-0.01854013,-0.00025934
 ,0.00132629,-0.00006720,0.00001408,-0.00002717,0.00004530,0.00008081,-
 0.00005481,0.00002410,-0.00000966,-0.00000374,-0.00001485,-0.00004307,
 0.00007558,-0.00002370,-0.00004478,0.00033087,-0.00008547,0.00117501,-
 0.00168917,-0.00003348,0.00002853,0.00099886,0.00044188,0.00007783,-0.
 00006337,-0.00010796,-0.00001389,0.00015421,0.00018497,-0.00004189,0.0
 0000316,-0.00011145,0.00004543,-0.00002326,0.00000172,-0.00014406,0.00
 003159,-0.00006288,0.00008543,0.00021532,0.00007878,-0.00025651,-0.000
 10127,0.00009558,0.00028960,0.00072868,0.00005823,0.00042368,0.0013961
 1,-0.00051785,-0.13026577,0.25131682,-0.00237947,0.00179635,0.00099934
 ,-0.00166984,-0.00365735,-0.00422649,0.00017915,-0.00008485,0.00035403
 ,0.00014708,0.00004974,0.00006073,0.00015011,0.00007484,0.00026259,-0.
 00070235,0.00248268,-0.00079778,0.00038319,-0.00059788,0.00014932,-0.0
 0019961,-0.00001499,-0.00008816,-0.00017287,0.00011190,-0.00000938,-0.
 00094818,-0.00071484,0.00035365,0.01528334,-0.01855612,-0.05141187,-0.
 01647345,0.02346976,-0.00128826,-0.00002772,-0.00001876,0.00000452,0.0
 0001080,-0.00004251,0.00003118,-0.00003487,0.00000108,-0.00000621,-0.0
 0000051,0.00005974,0.00000943,-0.00028968,0.00036517,0.00031406,-0.000
 00117,0.00002914,0.00060148,-0.00051914,0.00002138,0.00023253,0.000185
 91,-0.00009267,-0.00003332,0.00006812,0.00017394,0.00007401,-0.0000619
 2,-0.00000633,-0.00002756,0.00001948,0.00001484,-0.00001930,-0.0000154
 0,-0.00003841,-0.00002116,0.00002459,0.00007110,-0.00001327,0.00021540
 ,0.00012123,-0.00015822,0.00014508,0.00017965,-0.00012976,-0.00133968,
 0.00022482,-0.00050037,-0.00991885,0.01996866,0.05501540,-0.00008423,-
 0.00034224,0.00032472,0.00169439,-0.00056713,-0.00046702,0.00002261,0.
 00001359,-0.00024198,0.00007261,0.00002762,0.00004613,0.00029396,0.001
 41016,-0.00035448,-0.01089157,-0.00111818,0.01852432,0.00058081,0.0003
 3278,0.00127743,-0.00048241,-0.00099037,0.00015942,-0.00004594,-0.0000
 6853,-0.00026411,-0.00025554,-0.00008239,-0.00016309,-0.10598462,-0.00
 148465,0.10695534,0.01005213,0.00079084,-0.02266283,-0.00013068,0.0000
 0098,-0.00001996,0.00001938,-0.00002942,0.00000382,0.00000705,0.000012
 76,0.00000510,-0.00001179,0.00001370,0.00000561,0.00072089,-0.00037094
 ,-0.00032417,-0.00000110,0.00005154,-0.00027617,-0.00178126,-0.0038436
 5,-0.00024809,-0.00022583,0.00032571,-0.00127765,0.00006321,0.00007162
 ,-0.00006149,0.00031847,0.00038580,-0.00014028,0.00018793,0.00014391,-
 0.00017108,-0.00007567,-0.00004247,-0.00011750,0.00000972,-0.00002624,
 0.00000191,0.00032230,-0.00002140,-0.00015465,-0.00010214,0.00000029,-
 0.00010739,-0.00006476,0.00010423,0.00017926,-0.00872797,-0.00084083,0
 .01643955,0.11625835,-0.00011561,0.00015358,-0.00015682,-0.00038983,-0
 .00025859,0.00077424,0.00020454,-0.00012377,-0.00011018,0.00003100,0.0
 0000903,0.00003387,-0.00072956,0.00183837,0.00129363,-0.01333803,-0.00
 182828,0.02499445,0.00060659,0.00065533,0.00032368,-0.00015529,0.00012
 528,-0.00028618,0.00001428,-0.00001394,0.00005627,0.00007524,-0.000002
 37,-0.00000786,-0.00110403,-0.05273165,0.00684953,-0.00035998,-0.00008
 720,0.00032809,-0.00004177,0.00010427,-0.00020038,0.00001413,-0.000021
 78,-0.00000600,0.00002817,-0.00003181,-0.00000981,0.00000618,0.0000099
 0,0.00000068,0.00042617,-0.00040318,-0.00059999,0.00007054,0.00032145,
 -0.00036938,-0.00347373,-0.00434410,0.00054457,-0.00026981,0.00022871,
 -0.00044818,-0.00004182,-0.00015341,-0.00009421,0.00013652,0.00003963,
 -0.00005468,0.00013675,0.00008231,-0.00012014,-0.00001316,-0.00001214,
 -0.00013688,0.00000962,-0.00003140,-0.00002323,-0.00001573,-0.00014382
 ,0.00005477,0.00001083,0.00009658,0.00003032,-0.00003868,0.00003073,-0
 .00014357,0.01274055,0.00161362,-0.02532781,0.00566776,0.05372956,-0.0
 0130021,0.00032180,0.00037433,0.00224261,-0.00157810,-0.00050862,-0.00
 003473,0.00036446,-0.00033280,0.00008095,0.00003736,-0.00003391,-0.000
 08185,-0.00047375,0.00006349,0.00178459,0.00074906,-0.00088461,-0.0001
 5573,0.00037834,-0.00037114,-0.00052772,0.00010549,-0.00092665,0.00018
 319,-0.00005385,0.00007988,0.00010282,0.00007489,0.00011601,0.10672262
 ,0.00633919,-0.24397038,0.00886601,0.00127891,-0.02223344,-0.00002345,
 -0.00003734,0.00017152,-0.00000266,-0.00000882,0.00001333,-0.00004514,
 0.00004747,0.00002505,-0.00001895,0.00003833,0.00001319,-0.00031807,0.
 00056624,0.00034669,-0.00017627,0.00008557,0.00030896,-0.00015365,0.00
 023185,0.00106481,-0.00119791,-0.00105412,-0.00056813,0.00003698,0.000
 00984,0.00001710,-0.00022609,-0.00021118,0.00020250,-0.00001284,-0.000
 00613,0.00007132,0.00006158,0.00007533,-0.00000140,-0.00000259,0.00002
 254,-0.00000012,-0.00007632,-0.00001966,0.00004068,0.00005568,0.000029
 70,0.00002265,0.00008117,0.00002386,-0.00004966,0.00121655,-0.00056053
 ,-0.00192654,-0.11323822,-0.00679922,0.27068846,0.00189441,-0.00134408
 ,0.00007260,0.01170402,0.01600265,-0.00208059,-0.00220739,0.00247635,0
 .00030434,0.00077854,0.00079355,0.00003996,-0.00027201,0.00023402,-0.0
 0007884,-0.00215640,0.00191545,-0.00415133,0.00000110,-0.00140428,0.00
 048556,-0.00018070,-0.00000475,0.00006360,-0.00030946,0.00020574,-0.00
 038821,0.00006851,-0.00015890,0.00000012,-0.01279872,-0.01635111,0.003
 02098,-0.15523241,-0.13252844,0.01662348,-0.00007148,-0.00004820,-0.00
 006660,0.00005778,-0.00007091,-0.00001621,-0.00000156,-0.00004141,0.00
 002756,-0.00016531,0.00036368,0.00003535,0.00006646,-0.00006249,0.0000
 0987,0.00005406,-0.00010133,0.00002582,0.00033220,0.00043518,-0.000052
 52,0.00003892,0.00002645,0.00000056,0.00001835,-0.00001653,-0.00001211
 ,-0.00000223,0.00000131,-0.00009903,0.00001411,0.00001101,0.00002768,-
 0.00013943,-0.00015909,-0.00000272,0.00002019,-0.00003394,-0.00000323,
 0.00001025,0.00000307,0.00001803,-0.00005181,0.00003095,-0.00002515,0.
 00003082,0.00003650,-0.00000633,0.00015055,0.00029740,0.00058106,0.001
 16417,0.00024868,0.00007795,0.16614122,0.00000782,0.00608594,-0.000611
 62,-0.02257719,-0.02687856,0.00351295,0.00528644,-0.00311618,-0.000534
 57,-0.00156603,-0.00099015,-0.00006093,0.00045474,0.00032526,0.0004006
 9,0.00056338,0.00082242,0.00031867,0.00018374,0.00018228,0.00018897,-0
 .00002835,-0.00003439,-0.00001677,0.00004349,-0.00001368,-0.00000791,-
 0.00003254,0.00000288,-0.00004949,0.00194786,0.00258566,-0.00094821,-0
 .12783049,-0.20829216,0.01985908,0.00010878,0.00048440,0.00017824,0.00
 002727,0.00002141,0.00008432,0.00004931,-0.00006645,-0.00008875,0.0003
 7298,-0.00055972,-0.00008074,-0.00003599,-0.00001016,-0.00010564,-0.00
 009786,0.00000261,-0.00008000,-0.00001421,-0.00005549,0.00006294,0.000
 00375,0.00001726,-0.00000042,-0.00000379,0.00000843,0.00001983,-0.0000
 0074,0.00001180,-0.00000608,0.00000626,-0.00000318,0.00000034,0.000008
 02,0.00001967,0.00000061,0.00000156,0.00001782,0.00002008,-0.00000205,
 -0.00000142,0.00000457,-0.00001948,0.00000927,0.00000097,0.00000332,-0
 .00000221,0.00000814,-0.00021441,0.00043081,-0.00043090,-0.00005728,0.
 00013978,-0.00041802,0.14056089,0.22548198,-0.00062047,0.00020128,-0.0
 0122286,0.00075943,-0.00201845,-0.00061545,0.00003973,0.00035253,0.001
 12999,0.00008908,-0.00002514,0.00040602,-0.00009367,0.00054711,-0.0000
 8020,-0.00268924,0.00173466,-0.00404014,-0.00052539,-0.00134562,0.0007
 2750,-0.00002744,-0.00002100,0.00015653,-0.00035967,0.00017053,-0.0004
 3421,0.00009066,-0.00013637,-0.00002591,-0.01554794,-0.02076821,0.0024
 0833,0.01632106,0.02015656,-0.05286772,-0.00042930,-0.00032473,0.00027
 251,0.00002935,-0.00004823,-0.00000190,-0.00005904,0.00007431,0.000011
 56,-0.00000771,0.00004184,-0.00002017,0.00004096,-0.00002840,-0.000005
 75,0.00010226,-0.00006402,0.00005846,-0.00025761,-0.00003407,0.0003262
 4,0.00003074,0.00004244,-0.00002147,0.00000908,-0.00001366,-0.00001675
 ,0.00000103,0.00001496,-0.00004196,0.00000764,0.00001869,0.00001922,-0
 .00014860,-0.00017288,0.00000017,0.00002026,-0.00002997,-0.00000305,-0
 .00000887,0.00001121,0.00001325,-0.00004290,0.00002688,-0.00000739,0.0
 0002081,0.00003487,0.00000670,0.00062265,0.00035310,0.00076285,0.00087
 226,-0.00038109,0.00089196,-0.01552286,-0.02151712,0.05424101,-0.00131
 828,0.00410237,-0.00308797,-0.01174252,-0.00069875,0.01713873,0.000084
 16,-0.00028554,-0.00089208,-0.00002264,0.00010657,-0.00040897,-0.00008
 454,-0.00034296,-0.00002774,0.00161769,0.00052790,-0.00042496,0.000095
 10,0.00033103,-0.00013876,-0.00003690,0.00008761,-0.00015928,0.0000402
 8,-0.00003375,0.00010242,0.00004215,0.00002473,0.00002065,0.00998422,-
 0.00256490,-0.02343527,-0.10061868,0.00752051,0.11044006,0.00072223,0.
 00025298,-0.00033520,-0.00001632,-0.00002007,0.00006039,0.00003194,-0.
 00014501,-0.00004004,0.00001395,0.00002582,0.00000064,-0.00011903,0.00
 004535,-0.00002180,-0.00001739,-0.00000670,-0.00002385,-0.00017154,0.0
 0000499,0.00044363,-0.00005081,-0.00010702,0.00012569,-0.00000535,-0.0
 0000538,0.00001383,-0.00004953,-0.00008447,0.00002023,-0.00001964,-0.0
 0001924,0.00000700,0.00003149,0.00003476,0.00000753,-0.00000310,0.0000
 1400,0.00000008,-0.00005028,-0.00000289,0.00002157,0.00001545,0.000013
 16,0.00002321,0.00001470,0.00001009,-0.00003648,0.00151658,-0.00010400
 ,0.00092187,-0.00292246,-0.00034051,-0.00392033,-0.00895675,0.00285080
 ,0.01728369,0.11199582,0.00278472,-0.00299566,0.00344632,0.01317823,0.
 00209470,-0.02815230,-0.00148664,-0.00036667,0.00307557,0.00015263,0.0
 0008427,0.00039986,0.00049946,0.00018473,0.00024393,0.00043847,0.00003
 751,-0.00104890,-0.00008139,0.00005219,0.00006180,0.00003282,-0.000056
 17,0.00002031,0.00002568,-0.00002866,-0.00000182,-0.00001268,0.0000223
 1,-0.00000544,-0.00107306,0.00047690,0.00164761,0.00877657,-0.05372173
 ,-0.02232318,-0.00042951,-0.00168655,-0.00001300,-0.00002600,0.0000387
 2,-0.00007746,-0.00003812,0.00011609,0.00002989,-0.00002934,0.00001851
 ,0.00001918,0.00000441,0.00010301,0.00004751,0.00005200,-0.00000046,0.
 00000865,-0.00023885,0.00006489,0.00004048,-0.00000825,0.00002279,-0.0
 0000980,-0.00000232,0.00000072,-0.00000540,0.00001634,0.00000387,0.000
 01837,-0.00001757,-0.00000513,0.00000372,0.00001405,0.00001007,0.00001
 840,-0.00000577,-0.00000059,0.00000106,0.00000781,0.00002277,-0.000015
 63,0.00001041,-0.00001779,-0.00000150,-0.00001081,-0.00001403,0.000030
 70,-0.00055683,0.00017390,0.00036741,0.00053246,0.00100930,0.00044053,
 -0.01131745,0.00337405,0.02314802,-0.01119149,0.05098211,-0.00063706,-
 0.00059010,-0.00084200,0.00051533,0.00029154,0.00105879,0.00081170,0.0
 0008988,-0.00076863,-0.00015279,-0.00022940,0.00025308,-0.00037564,-0.
 00007431,-0.00006723,0.00178188,0.00077359,0.00047385,-0.00024361,0.00
 012532,0.00019427,0.00016283,0.00022169,-0.00008781,-0.00002793,-0.000
 00772,0.00000677,0.00004723,0.00008325,-0.00008586,0.01008804,-0.00186
 637,-0.02544356,0.10613534,-0.01731644,-0.23663487,-0.00034853,0.00011
 386,0.00063177,0.00002559,0.00002517,-0.00002185,-0.00006548,0.0001123
 7,0.00003288,0.00002184,-0.00003498,-0.00001086,-0.00002365,0.00018518
 ,0.00016562,0.00000877,-0.00004954,0.00001085,-0.00081926,-0.00071315,
 0.00066685,-0.00005181,-0.00017720,0.00015933,-0.00001100,-0.00000921,
 0.00001588,-0.00008867,-0.00008532,0.00007966,-0.00003217,-0.00002067,
 0.00002261,-0.00000086,-0.00000002,0.00000564,0.00000055,0.00000739,-0
 .00000112,-0.00007319,-0.00000976,0.00005156,-0.00001865,-0.00001911,0
 .00003610,0.00003508,-0.00006398,-0.00000595,0.00042812,0.00036463,0.0
 0143252,-0.00450472,-0.00000848,-0.00270454,0.00109123,0.00029677,-0.0
 0202737,-0.11367853,0.01858511,0.26340362\\-0.00003884,-0.00003272,0.0
 0004547,0.00003649,0.00000544,-0.00004674,-0.00000527,-0.00000910,0.00
 009323,0.00000480,0.00000291,0.00001233,0.00000409,-0.00001460,-0.0000
 2893,-0.00002570,-0.00002263,0.00002034,0.00001946,0.00001860,0.000004
 56,0.00001271,-0.00000673,-0.00000875,-0.00002478,-0.00000932,-0.00000
 512,-0.00000179,0.00000311,0.00000571,0.00001165,0.00002477,-0.0000209
 9,-0.00008238,-0.00000498,-0.00000844,0.00002913,-0.00000131,-0.000022
 37,0.00000302,0.00001108,-0.00000673,0.00000630,-0.00000612,-0.0000171
 8,0.00001327,0.00000866,-0.00001622,-0.00000282,0.00000642,-0.00000643
 ,0.00000899,-0.00001160,0.00001292,0.00000674,0.00000659,-0.00001597,-
 0.00001363,-0.00000026,0.00000192,0.00000620,-0.00000793,0.00002038,-0
 .00000292,-0.00000668,0.00000393,0.00001189,0.00000736,0.00000581,0.00
 000455,-0.00000057,0.00000281,-0.00000535,0.00001685,-0.00000451,-0.00
 000361,-0.00000332,-0.00000229,0.00000663,0.00000210,-0.00000627,0.000
 00621,0.00001503,0.00000429,-0.00000412,0.00000059,-0.00000715,0.00000
 721,0.00000196,0.00001846,0.00000311,0.00000738,-0.00001560,0.00000875
 ,-0.00000099,-0.00001250\\\@


 TO DETECT ERRORS, THE PROGRAMMER MUST HAVE A CONNIVING MIND,
 ONE THAT DELIGHTS IN UNCOVERING FLAWS WHERE BEAUTY AND
 PERFECTION WERE ONCE THOUGHT TO LIE.

             -- THE PSYCHOLOGY OF COMPUTER PROGRAMMING
                GERALD M. WEINBERG
 Job cpu time:       0 days  0 hours  3 minutes  9.2 seconds.
 Elapsed time:       0 days  0 hours  3 minutes 25.3 seconds.
 File lengths (MBytes):  RWF=    188 Int=      0 D2E=      0 Chk=     16 Scr=      1
 Normal termination of Gaussian 16 at Sat Feb 24 04:32:11 2024.
