 Entering Gaussian System, Link 0=g16
 Input=/Volumes/SSD-PMU3/b3lyp_6-31gd_freq/QFVBBSYSSMMVFR-QBENWVRFSA-N_calculating/gaussianinput0.gjf
 Output=/Volumes/SSD-PMU3/b3lyp_6-31gd_freq/QFVBBSYSSMMVFR-QBENWVRFSA-N_calculating/gaussianinput0.log
 Initial command:
 /Applications/g16/l1.exe "/Users/macmini_m1_2022/PycharmProjects/sphere_model/sphere_model_lib/Gau-77906.inp" -scrdir="/Users/macmini_m1_2022/PycharmProjects/sphere_model/sphere_model_lib/"
 Entering Link 1 = /Applications/g16/l1.exe PID=     77907.
  
 Copyright (c) 1988,1990,1992,1993,1995,1998,2003,2009,2016,
            Gaussian, Inc.  All Rights Reserved.
  
 This is part of the Gaussian(R) 16 program.  It is based on
 the Gaussian(R) 09 system (copyright 2009, Gaussian, Inc.),
 the Gaussian(R) 03 system (copyright 2003, Gaussian, Inc.),
 the Gaussian(R) 98 system (copyright 1998, Gaussian, Inc.),
 the Gaussian(R) 94 system (copyright 1995, Gaussian, Inc.),
 the Gaussian 92(TM) system (copyright 1992, Gaussian, Inc.),
 the Gaussian 90(TM) system (copyright 1990, Gaussian, Inc.),
 the Gaussian 88(TM) system (copyright 1988, Gaussian, Inc.),
 the Gaussian 86(TM) system (copyright 1986, Carnegie Mellon
 University), and the Gaussian 82(TM) system (copyright 1983,
 Carnegie Mellon University). Gaussian is a federally registered
 trademark of Gaussian, Inc.
  
 This software contains proprietary and confidential information,
 including trade secrets, belonging to Gaussian, Inc.
  
 This software is provided under written license and may be
 used, copied, transmitted, or stored only in accord with that
 written license.
  
 The following legend is applicable only to US Government
 contracts under FAR:
  
                    RESTRICTED RIGHTS LEGEND
  
 Use, reproduction and disclosure by the US Government is
 subject to restrictions as set forth in subparagraphs (a)
 and (c) of the Commercial Computer Software - Restricted
 Rights clause in FAR 52.227-19.
  
 Gaussian, Inc.
 340 Quinnipiac St., Bldg. 40, Wallingford CT 06492
  
  
 ---------------------------------------------------------------
 Warning -- This program may not be used in any manner that
 competes with the business of Gaussian, Inc. or will provide
 assistance to any competitor of Gaussian, Inc.  The licensee
 of this program is prohibited from giving any competitor of
 Gaussian, Inc. access to this program.  By using this program,
 the user acknowledges that Gaussian, Inc. is engaged in the
 business of creating and licensing software in the field of
 computational chemistry and represents and warrants to the
 licensee that it is not a competitor of Gaussian, Inc. and that
 it will not use this program in any manner prohibited above.
 ---------------------------------------------------------------
  

 Cite this work as:
 Gaussian 16, Revision A.03,
 M. J. Frisch, G. W. Trucks, H. B. Schlegel, G. E. Scuseria, 
 M. A. Robb, J. R. Cheeseman, G. Scalmani, V. Barone, 
 G. A. Petersson, H. Nakatsuji, X. Li, M. Caricato, A. V. Marenich, 
 J. Bloino, B. G. Janesko, R. Gomperts, B. Mennucci, H. P. Hratchian, 
 J. V. Ortiz, A. F. Izmaylov, J. L. Sonnenberg, D. Williams-Young, 
 F. Ding, F. Lipparini, F. Egidi, J. Goings, B. Peng, A. Petrone, 
 T. Henderson, D. Ranasinghe, V. G. Zakrzewski, J. Gao, N. Rega, 
 G. Zheng, W. Liang, M. Hada, M. Ehara, K. Toyota, R. Fukuda, 
 J. Hasegawa, M. Ishida, T. Nakajima, Y. Honda, O. Kitao, H. Nakai, 
 T. Vreven, K. Throssell, J. A. Montgomery, Jr., J. E. Peralta, 
 F. Ogliaro, M. J. Bearpark, J. J. Heyd, E. N. Brothers, K. N. Kudin, 
 V. N. Staroverov, T. A. Keith, R. Kobayashi, J. Normand, 
 K. Raghavachari, A. P. Rendell, J. C. Burant, S. S. Iyengar, 
 J. Tomasi, M. Cossi, J. M. Millam, M. Klene, C. Adamo, R. Cammi, 
 J. W. Ochterski, R. L. Martin, K. Morokuma, O. Farkas, 
 J. B. Foresman, and D. J. Fox, Gaussian, Inc., Wallingford CT, 2016.
 
 ******************************************
 Gaussian 16:  EM64M-G16RevA.03 25-Dec-2016
                23-Feb-2024 
 ******************************************
 %nprocshared=10
 Will use up to   10 processors via shared memory.
 %mem=12GB
 %chk= 0.chk
 ---------------------
 # freq b3lyp/6-31g(d)
 ---------------------
 1/10=4,30=1,38=1/1,3;
 2/12=2,17=6,18=5,40=1/2;
 3/5=1,6=6,7=1,11=2,25=1,30=1,71=2,74=-5,140=1/1,2,3;
 4//1;
 5/5=2,38=5,98=1/2;
 8/6=4,10=90,11=11/1;
 11/6=1,8=1,9=11,15=111,16=1/1,2,10;
 10/6=1/2;
 6/7=2,8=2,9=2,10=2,28=1/1;
 7/8=1,10=1,25=1/1,2,3,16;
 1/10=4,30=1/3;
 99//99;
 ---------
 good luck
 ---------
 Symbolic Z-matrix:
 Charge =  0 Multiplicity = 1
 O                     1.21616   0.        0. 
 C                     0.        0.        0. 
 C                    -0.85225  -1.26368  -0.00074 
 C                    -1.75017  -1.24918   1.26083 
 C                    -1.74122  -1.25308  -1.26946 
 C                    -2.6258    0.0094   -1.27199 
 C                    -1.72976   1.26203  -1.27477 
 C                    -0.85025   1.26607  -0.00074 
 C                    -1.75412   1.25695   1.25668 
 C                    -2.66974   0.00671   1.28295 
 C                    -3.58157  -0.03192   2.51648 
 C                    -4.47784  -1.10171   2.69146 
 C                    -5.32577  -1.18135   3.79351 
 C                    -5.27983  -0.16961   4.74548 
 F                    -6.09769  -0.23673   5.8178 
 C                    -4.41332   0.90525   4.61694 
 C                    -3.57183   0.96457   3.50329 
 C                    -3.52334   0.01638  -0.01848 
 H                    -0.18705  -2.13309   0.00861 
 H                    -2.35493  -2.16432   1.27617 
 H                    -1.13169  -1.26577   2.16743 
 H                    -2.36408  -2.15794  -1.28432 
 H                    -1.11346  -1.28174  -2.16951 
 H                    -3.2586    0.00995  -2.16897 
 H                    -2.34305   2.17304  -1.29692 
 H                    -1.09605   1.27961  -2.17098 
 H                    -0.18196   2.13289   0.01509 
 H                    -2.36151   2.17184   1.25961 
 H                    -1.12604   1.28458   2.15636 
 H                    -4.52188  -1.89749   1.95342 
 H                    -6.01443  -2.01017   3.92208 
 H                    -4.40033   1.67966   5.37707 
 H                    -2.90101   1.81198   3.42002 
 H                    -4.17072   0.9035   -0.0193 
 H                    -4.18787  -0.85635  -0.03722 
 

 GradGradGradGradGradGradGradGradGradGradGradGradGradGradGradGradGradGrad
 Berny optimization.
 Initialization pass.
 Trust Radius=3.00D-01 FncErr=1.00D-07 GrdErr=1.00D-07 EigMax=2.50D+02 EigMin=1.00D-04
 Number of steps in this run=      2 maximum allowed number of steps=      2.
 GradGradGradGradGradGradGradGradGradGradGradGradGradGradGradGradGradGrad

                          Input orientation:                          
 ---------------------------------------------------------------------
 Center     Atomic      Atomic             Coordinates (Angstroms)
 Number     Number       Type             X           Y           Z
 ---------------------------------------------------------------------
      1          8           0        1.216162    0.000000    0.000000
      2          6           0        0.000000    0.000000    0.000000
      3          6           0       -0.852254   -1.263678   -0.000735
      4          6           0       -1.750170   -1.249181    1.260830
      5          6           0       -1.741215   -1.253075   -1.269456
      6          6           0       -2.625804    0.009396   -1.271991
      7          6           0       -1.729755    1.262025   -1.274766
      8          6           0       -0.850246    1.266071   -0.000735
      9          6           0       -1.754124    1.256952    1.256682
     10          6           0       -2.669744    0.006713    1.282950
     11          6           0       -3.581568   -0.031922    2.516481
     12          6           0       -4.477841   -1.101709    2.691463
     13          6           0       -5.325773   -1.181352    3.793507
     14          6           0       -5.279827   -0.169614    4.745476
     15          9           0       -6.097692   -0.236729    5.817803
     16          6           0       -4.413316    0.905245    4.616936
     17          6           0       -3.571831    0.964570    3.503293
     18          6           0       -3.523336    0.016384   -0.018476
     19          1           0       -0.187045   -2.133093    0.008606
     20          1           0       -2.354933   -2.164318    1.276168
     21          1           0       -1.131685   -1.265771    2.167427
     22          1           0       -2.364075   -2.157941   -1.284315
     23          1           0       -1.113456   -1.281741   -2.169511
     24          1           0       -3.258596    0.009945   -2.168971
     25          1           0       -2.343053    2.173038   -1.296918
     26          1           0       -1.096053    1.279606   -2.170978
     27          1           0       -0.181962    2.132886    0.015088
     28          1           0       -2.361505    2.171835    1.259612
     29          1           0       -1.126037    1.284576    2.156364
     30          1           0       -4.521878   -1.897490    1.953424
     31          1           0       -6.014429   -2.010166    3.922079
     32          1           0       -4.400331    1.679655    5.377069
     33          1           0       -2.901007    1.811983    3.420016
     34          1           0       -4.170719    0.903497   -0.019299
     35          1           0       -4.187872   -0.856345   -0.037222
 ---------------------------------------------------------------------
                    Distance matrix (angstroms):
                    1          2          3          4          5
     1  O    0.000000
     2  C    1.216162   0.000000
     3  C    2.423887   1.524211   0.000000
     4  C    3.456772   2.492637   1.548551   0.000000
     5  C    3.453664   2.492698   1.549199   2.530305   0.000000
     6  C    4.047067   2.917687   2.526319   2.960732   1.541537
     7  C    3.449081   2.491945   2.961813   3.568728   2.515132
     8  C    2.423423   1.525075   2.529750   2.954302   2.957968
     9  C    3.461470   2.497224   2.957709   2.506140   3.561148
    10  C    4.092221   2.962016   2.562228   1.556719   2.993995
    11  C    5.417740   4.377365   3.911873   2.532271   4.383085
    12  C    6.393700   5.339363   4.518744   3.083610   4.816733
    13  C    7.653966   6.644558   5.866466   4.382236   6.203853
    14  C    8.046501   7.101048   6.582317   5.076091   7.062228
    15  F    9.348547   8.431175   7.900926   6.379029   8.380996
    16  C    7.336661   6.450808   6.221597   4.795555   6.815283
    17  C    6.010685   5.095236   4.963809   3.639750   5.572095
    18  C    4.739562   3.523423   2.962018   2.526340   2.520403
    19  H    2.553263   2.141295   1.094748   2.189229   2.196205
    20  H    4.366417   3.443630   2.167874   1.097018   2.772583
    21  H    3.436903   2.753294   2.186095   1.097596   3.490538
    22  H    4.373131   3.448916   2.175520   2.771369   1.098616
    23  H    3.431728   2.754891   2.184523   3.489084   1.097726
    24  H    4.972725   3.914458   3.480495   3.952756   2.169514
    25  H    4.367162   3.448766   3.964037   4.313371   3.478680
    26  H    3.420069   2.748066   3.352266   4.312765   2.764679
    27  H    2.550330   2.140687   3.462108   3.930589   3.942849
    28  H    4.370720   3.446766   3.958417   3.475210   4.302436
    29  H    3.433065   2.751000   3.349870   2.758885   4.307477
    30  H    6.351491   5.278609   4.205543   2.929566   4.305150
    31  H    8.467876   7.456328   6.526390   5.083822   6.766504
    32  H    7.954817   7.148218   7.083279   5.704810   7.736155
    33  H    5.650741   4.836903   5.035734   3.918831   5.721088
    34  H    5.462158   4.267502   3.963484   3.483075   3.480831
    35  H    5.471590   4.274691   3.360595   2.789561   2.768018
                    6          7          8          9         10
     6  C    0.000000
     7  C    1.540127   0.000000
     8  C    2.519510   1.548130   0.000000
     9  C    2.951340   2.531570   1.548605   0.000000
    10  C    2.555320   3.000216   2.558203   1.549886   0.000000
    11  C    3.907392   4.413283   3.934626   2.566679   1.534443
    12  C    4.513708   5.373099   5.100368   3.878210   2.545923
    13  C    5.862336   6.677487   6.357397   5.013730   3.843031
    14  C    6.579194   7.134137   6.648977   5.161139   4.339667
    15  F    7.898086   8.463431   7.978063   6.473136   5.689902
    16  C    6.219100   6.483899   5.843676   4.299571   3.868186
    17  C    4.960913   5.129481   4.447037   2.904618   2.580925
    18  C    1.541724   2.519289   2.950838   2.509013   1.556413
    19  H    3.489661   3.943834   3.463270   3.937745   3.516606
    20  H    3.360285   4.317168   3.957541   3.473678   2.193747
    21  H    3.960813   4.312323   3.345199   2.753365   2.183378
    22  H    2.183118   3.478307   3.957665   4.300023   3.371945
    23  H    2.181690   2.766069   3.356220   4.312101   4.000204
    24  H    1.097725   2.169023   3.475521   3.943800   3.501788
    25  H    2.182182   1.098440   2.175121   2.776135   3.384584
    26  H    2.182143   1.097763   2.184161   3.490333   4.003296
    27  H    3.483984   2.194945   1.094633   2.186438   3.509579
    28  H    3.339912   2.765851   2.166284   1.098149   2.187078
    29  H    3.953353   3.483911   2.174737   1.097581   2.186051
    30  H    4.199359   5.310339   5.225681   4.253988   2.739694
    31  H    6.522252   7.488182   7.265740   5.994047   4.713780
    32  H    7.081575   7.180063   6.457161   4.915148   4.749261
    33  H    5.033884   4.869832   4.025566   2.510660   2.807051
    34  H    2.180692   2.768221   3.340261   2.755538   2.180138
    35  H    2.171225   3.472945   3.955468   3.473232   2.189163
                   11         12         13         14         15
    11  C    0.000000
    12  C    1.406545   0.000000
    13  C    2.448313   1.392779   0.000000
    14  C    2.805612   2.393941   1.389953   0.000000
    15  F    4.155906   3.625756   2.363461   1.350294   0.000000
    16  C    2.445812   2.781991   2.421673   1.386609   2.362903
    17  C    1.402458   2.397797   2.786668   2.397216   3.630434
    18  C    2.536086   3.083015   4.383442   5.080856   6.383849
    19  H    4.714567   5.164533   6.452737   7.227006   8.501689
    20  H    2.755018   2.763863   4.016106   4.956808   6.192761
    21  H    2.765167   3.390913   4.499071   5.005495   6.248632
    22  H    4.521979   4.624980   5.958998   6.986661   8.250517
    23  H    5.441704   5.914437   7.301457   8.149388   9.472689
    24  H    4.696757   5.132850   6.422114   7.206053   8.479969
    25  H    4.575782   5.584664   6.786824   7.114997   8.397830
    26  H    5.465360   6.383611   7.715045   8.212280   9.546533
    27  H    4.743488   6.006677   7.191621   7.325729   8.618726
    28  H    2.815105   4.152730   5.143090   5.113730   6.366897
    29  H    2.809356   4.149130   5.137978   5.106089   6.359077
    30  H    2.163691   1.086236   2.131902   3.369807   4.491630
    31  H    3.436272   2.168136   1.085224   2.145986   2.597264
    32  H    3.432613   3.867101   3.398451   2.142946   2.597654
    33  H    2.163221   3.392167   3.870276   3.367841   4.490590
    34  H    2.766277   3.385765   4.496469   5.008470   6.251808
    35  H    2.751123   2.754997   4.009356   4.953601   6.189722
                   16         17         18         19         20
    16  C    0.000000
    17  C    1.397075   0.000000
    18  C    4.803039   3.647501   0.000000
    19  H    6.951947   5.767593   3.968857   0.000000
    20  H    4.981956   4.028755   2.792263   2.511459   0.000000
    21  H    4.634923   3.565567   3.484550   2.510996   1.760132
    22  H    6.957533   5.842084   2.770185   2.532138   2.560507
    23  H    7.856707   6.578011   3.481322   2.515399   3.767348
    24  H    6.941432   5.760556   2.166739   4.332306   4.172890
    25  H    6.392727   5.100227   2.771036   4.989542   5.043171
    26  H    7.564401   6.198877   3.481479   4.150108   5.032714
    27  H    6.370908   5.002374   3.955438   4.265987   4.977759
    28  H    4.133498   2.820724   2.762124   4.982539   4.336190
    29  H    4.123652   2.810432   3.476389   4.144277   3.765608
    30  H    3.867998   3.390586   2.923763   4.756953   2.285940
    31  H    3.397942   3.871785   5.083348   7.020597   4.518464
    32  H    1.085210   2.169976   5.713799   7.817239   5.981402
    33  H    2.131166   1.083997   3.928702   5.879365   4.550302
    34  H    4.642578   3.573661   1.098214   5.009123   3.792994
    35  H    4.981487   4.028708   1.097094   4.199857   2.606809
                   21         22         23         24         25
    21  H    0.000000
    22  H    3.772171   0.000000
    23  H    4.337006   1.765034   0.000000
    24  H    4.995553   2.506494   2.504013   0.000000
    25  H    5.029364   4.331048   3.769460   2.505527   0.000000
    26  H    5.030107   3.769719   2.561407   2.507715   1.765562
    27  H    4.133450   4.986107   4.159307   4.329280   2.528495
    28  H    3.762143   5.021806   5.024311   4.151352   2.556597
    29  H    2.550377   5.022144   5.029845   4.988087   3.767711
    30  H    3.455181   3.899603   5.384708   4.714693   5.646344
    31  H    5.241576   6.360303   7.852236   6.984007   7.629949
    32  H    5.446226   7.952831   8.747816   7.812439   7.001280
    33  H    3.764578   6.178942   6.633949   5.883195   4.763522
    34  H    4.327034   3.773146   4.329611   2.500299   2.566010
    35  H    3.790565   2.564299   3.765588   2.481606   3.763954
                   26         27         28         29         30
    26  H    0.000000
    27  H    2.518439   0.000000
    28  H    3.763826   2.510132   0.000000
    29  H    4.327449   2.489171   1.765722   0.000000
    30  H    6.232247   6.231849   4.659184   4.658161   0.000000
    31  H    8.493431   8.151511   6.158061   6.153816   2.473056
    32  H    8.249322   6.837463   4.620877   4.609775   4.952987
    33  H    5.899195   4.369178   2.255638   2.241761   4.305613
    34  H    3.771571   4.174058   2.552949   3.761492   3.443904
    35  H    4.321406   4.998555   3.766599   4.332458   2.271170
                   31         32         33         34         35
    31  H    0.000000
    32  H    4.282183   0.000000
    33  H    4.955228   2.468915   0.000000
    34  H    5.236713   5.456733   3.777089   0.000000
    35  H    4.510397   5.982556   4.552855   1.760017   0.000000
 Stoichiometry    C16H17FO
 Framework group  C1[X(C16H17FO)]
 Deg. of freedom    99
 Full point group                 C1      NOp   1
 Largest Abelian subgroup         C1      NOp   1
 Largest concise Abelian subgroup C1      NOp   1
                         Standard orientation:                         
 ---------------------------------------------------------------------
 Center     Atomic      Atomic             Coordinates (Angstroms)
 Number     Number       Type             X           Y           Z
 ---------------------------------------------------------------------
      1          8           0        3.688714   -1.498691   -1.385287
      2          6           0        2.905223   -0.812672   -0.757139
      3          6           0        2.321807    0.499562   -1.267911
      4          6           0        0.779489    0.366710   -1.308097
      5          6           0        2.719123    1.627429   -0.282988
      6          6           0        2.186073    1.297349    1.125288
      7          6           0        2.800081   -0.030570    1.606555
      8          6           0        2.393022   -1.165391    0.635374
      9          6           0        0.849380   -1.277277    0.582183
     10          6           0        0.204874    0.048381    0.103236
     11          6           0       -1.326445   -0.027685    0.041678
     12          6           0       -2.067166    1.094133   -0.372116
     13          6           0       -3.457958    1.074640   -0.443881
     14          6           0       -4.128012   -0.091956   -0.094524
     15          9           0       -5.476375   -0.121813   -0.160260
     16          6           0       -3.441822   -1.223507    0.319506
     17          6           0       -2.046879   -1.181224    0.384040
     18          6           0        0.649948    1.173238    1.082536
     19          1           0        2.719186    0.691480   -2.269774
     20          1           0        0.352863    1.302078   -1.690886
     21          1           0        0.484539   -0.423863   -2.010035
     22          1           0        2.304203    2.581325   -0.636374
     23          1           0        3.810693    1.741513   -0.261472
     24          1           0        2.464012    2.101741    1.818615
     25          1           0        2.447086   -0.272733    2.618148
     26          1           0        3.893820    0.047826    1.658246
     27          1           0        2.835416   -2.120365    0.936261
     28          1           0        0.481133   -1.537845    1.583397
     29          1           0        0.567124   -2.098893   -0.088609
     30          1           0       -1.553426    2.010815   -0.647202
     31          1           0       -4.022793    1.944025   -0.764571
     32          1           0       -3.993045   -2.119648    0.585526
     33          1           0       -1.527639   -2.075396    0.709455
     34          1           0        0.258031    0.955372    2.085038
     35          1           0        0.212038    2.131447    0.776454
 ---------------------------------------------------------------------
 Rotational constants (GHZ):           1.1051297           0.2310890           0.2232469
 Standard basis: 6-31G(d) (6D, 7F)
 There are   304 symmetry adapted cartesian basis functions of A   symmetry.
 There are   304 symmetry adapted basis functions of A   symmetry.
   304 basis functions,   572 primitive gaussians,   304 cartesian basis functions
    65 alpha electrons       65 beta electrons
       nuclear repulsion energy      1335.8378692343 Hartrees.
 NAtoms=   35 NActive=   35 NUniq=   35 SFac= 1.00D+00 NAtFMM=   60 NAOKFM=F Big=F
 Integral buffers will be    131072 words long.
 Raffenetti 2 integral format.
 Two-electron integral symmetry is turned on.
 One-electron integrals computed using PRISM.
 NBasis=   304 RedAO= T EigKep=  4.23D-04  NBF=   304
 NBsUse=   304 1.00D-06 EigRej= -1.00D+00 NBFU=   304
 ExpMin= 1.61D-01 ExpMax= 7.00D+03 ExpMxC= 1.05D+03 IAcc=3 IRadAn=         5 AccDes= 0.00D+00
 Harris functional with IExCor=  402 and IRadAn=       5 diagonalized for initial guess.
 HarFok:  IExCor=  402 AccDes= 0.00D+00 IRadAn=         5 IDoV= 1 UseB2=F ITyADJ=14
 ICtDFT=  3500011 ScaDFX=  1.000000  1.000000  1.000000  1.000000
 FoFCou: FMM=F IPFlag=           0 FMFlag=      100000 FMFlg1=           0
         NFxFlg=           0 DoJE=T BraDBF=F KetDBF=T FulRan=T
         wScrn=  0.000000 ICntrl=       500 IOpCl=  0 I1Cent=   200000004 NGrid=           0
         NMat0=    1 NMatS0=      1 NMatT0=    0 NMatD0=    1 NMtDS0=    0 NMtDT0=    0
 Petite list used in FoFCou.
 Requested convergence on RMS density matrix=1.00D-08 within 128 cycles.
 Requested convergence on MAX density matrix=1.00D-06.
 Requested convergence on             energy=1.00D-06.
 No special actions if energy rises.
 Integral accuracy reduced to 1.0D-05 until final iterations.
 Initial convergence to 1.0D-05 achieved.  Increase integral accuracy.
 SCF Done:  E(RB3LYP) =  -795.016316788     A.U. after   14 cycles
            NFock= 14  Conv=0.72D-08     -V/T= 2.0092
 DoSCS=F DFT=T ScalE2(SS,OS)=  1.000000  1.000000
 Range of M.O.s used for correlation:     1   304
 NBasis=   304 NAE=    65 NBE=    65 NFC=     0 NFV=     0
 NROrb=    304 NOA=    65 NOB=    65 NVA=   239 NVB=   239

 **** Warning!!: The largest alpha MO coefficient is  0.12601341D+02

 Symmetrizing basis deriv contribution to polar:
 IMax=3 JMax=2 DiffMx= 0.00D+00
 G2DrvN: will do    36 centers at a time, making    1 passes.
 Calling FoFCou, ICntrl=  3107 FMM=F I1Cent=   0 AccDes= 0.00D+00.
 End of G2Drv F.D. properties file   721 does not exist.
 End of G2Drv F.D. properties file   722 does not exist.
 End of G2Drv F.D. properties file   788 does not exist.
          IDoAtm=11111111111111111111111111111111111
          Differentiating once with respect to electric field.
                with respect to dipole field.
          Differentiating once with respect to nuclear coordinates.
 Keep R1 ints in memory in canonical form, NReq=1088850528.
          There are   108 degrees of freedom in the 1st order CPHF.  IDoFFX=6 NUNeed=     3.
    105 vectors produced by pass  0 Test12= 1.55D-14 1.00D-09 XBig12= 1.73D+02 7.01D+00.
 AX will form   105 AO Fock derivatives at one time.
    105 vectors produced by pass  1 Test12= 1.55D-14 1.00D-09 XBig12= 2.74D+01 1.20D+00.
    105 vectors produced by pass  2 Test12= 1.55D-14 1.00D-09 XBig12= 2.58D-01 5.76D-02.
    105 vectors produced by pass  3 Test12= 1.55D-14 1.00D-09 XBig12= 1.04D-03 7.29D-03.
    105 vectors produced by pass  4 Test12= 1.55D-14 1.00D-09 XBig12= 1.54D-06 1.53D-04.
     70 vectors produced by pass  5 Test12= 1.55D-14 1.00D-09 XBig12= 1.29D-09 4.71D-06.
      9 vectors produced by pass  6 Test12= 1.55D-14 1.00D-09 XBig12= 1.05D-12 1.67D-07.
      3 vectors produced by pass  7 Test12= 1.55D-14 1.00D-09 XBig12= 8.37D-16 3.02D-09.
 InvSVY:  IOpt=1 It=  1 EMax= 5.33D-15
 Solved reduced A of dimension   607 with   108 vectors.
 Isotropic polarizability for W=    0.000000      154.89 Bohr**3.
 End of Minotr F.D. properties file   721 does not exist.
 End of Minotr F.D. properties file   722 does not exist.
 End of Minotr F.D. properties file   788 does not exist.

 **********************************************************************

            Population analysis using the SCF density.

 **********************************************************************

 Orbital symmetries:
       Occupied  (A) (A) (A) (A) (A) (A) (A) (A) (A) (A) (A) (A)
                 (A) (A) (A) (A) (A) (A) (A) (A) (A) (A) (A) (A)
                 (A) (A) (A) (A) (A) (A) (A) (A) (A) (A) (A) (A)
                 (A) (A) (A) (A) (A) (A) (A) (A) (A) (A) (A) (A)
                 (A) (A) (A) (A) (A) (A) (A) (A) (A) (A) (A) (A)
                 (A) (A) (A) (A) (A)
       Virtual   (A) (A) (A) (A) (A) (A) (A) (A) (A) (A) (A) (A)
                 (A) (A) (A) (A) (A) (A) (A) (A) (A) (A) (A) (A)
                 (A) (A) (A) (A) (A) (A) (A) (A) (A) (A) (A) (A)
                 (A) (A) (A) (A) (A) (A) (A) (A) (A) (A) (A) (A)
                 (A) (A) (A) (A) (A) (A) (A) (A) (A) (A) (A) (A)
                 (A) (A) (A) (A) (A) (A) (A) (A) (A) (A) (A) (A)
                 (A) (A) (A) (A) (A) (A) (A) (A) (A) (A) (A) (A)
                 (A) (A) (A) (A) (A) (A) (A) (A) (A) (A) (A) (A)
                 (A) (A) (A) (A) (A) (A) (A) (A) (A) (A) (A) (A)
                 (A) (A) (A) (A) (A) (A) (A) (A) (A) (A) (A) (A)
                 (A) (A) (A) (A) (A) (A) (A) (A) (A) (A) (A) (A)
                 (A) (A) (A) (A) (A) (A) (A) (A) (A) (A) (A) (A)
                 (A) (A) (A) (A) (A) (A) (A) (A) (A) (A) (A) (A)
                 (A) (A) (A) (A) (A) (A) (A) (A) (A) (A) (A) (A)
                 (A) (A) (A) (A) (A) (A) (A) (A) (A) (A) (A) (A)
                 (A) (A) (A) (A) (A) (A) (A) (A) (A) (A) (A) (A)
                 (A) (A) (A) (A) (A) (A) (A) (A) (A) (A) (A) (A)
                 (A) (A) (A) (A) (A) (A) (A) (A) (A) (A) (A) (A)
                 (A) (A) (A) (A) (A) (A) (A) (A) (A) (A) (A) (A)
                 (A) (A) (A) (A) (A) (A) (A) (A) (A) (A) (A)
 The electronic state is 1-A.
 Alpha  occ. eigenvalues --  -24.70357 -19.13391 -10.27170 -10.26486 -10.21295
 Alpha  occ. eigenvalues --  -10.20245 -10.20069 -10.19982 -10.19866 -10.19828
 Alpha  occ. eigenvalues --  -10.19765 -10.19648 -10.19586 -10.19572 -10.19508
 Alpha  occ. eigenvalues --  -10.19418 -10.19382 -10.19005  -1.21488  -1.03210
 Alpha  occ. eigenvalues --   -0.88460  -0.86074  -0.79594  -0.78378  -0.76855
 Alpha  occ. eigenvalues --   -0.75772  -0.73047  -0.68236  -0.65309  -0.62768
 Alpha  occ. eigenvalues --   -0.62081  -0.60214  -0.58257  -0.57091  -0.54371
 Alpha  occ. eigenvalues --   -0.51305  -0.48825  -0.48471  -0.46539  -0.45991
 Alpha  occ. eigenvalues --   -0.45720  -0.45210  -0.44535  -0.44067  -0.43302
 Alpha  occ. eigenvalues --   -0.43253  -0.42143  -0.41524  -0.40437  -0.40209
 Alpha  occ. eigenvalues --   -0.39303  -0.37586  -0.36821  -0.36291  -0.36117
 Alpha  occ. eigenvalues --   -0.35136  -0.34047  -0.33891  -0.33542  -0.30635
 Alpha  occ. eigenvalues --   -0.30390  -0.29852  -0.26109  -0.23944  -0.23123
 Alpha virt. eigenvalues --   -0.01493  -0.00882  -0.00040   0.06343   0.08611
 Alpha virt. eigenvalues --    0.10592   0.11426   0.12344   0.12660   0.12997
 Alpha virt. eigenvalues --    0.13995   0.14325   0.14843   0.15066   0.15484
 Alpha virt. eigenvalues --    0.16780   0.17552   0.18167   0.18647   0.18929
 Alpha virt. eigenvalues --    0.19141   0.19595   0.20869   0.21439   0.21656
 Alpha virt. eigenvalues --    0.22529   0.23296   0.23804   0.24820   0.26266
 Alpha virt. eigenvalues --    0.27239   0.28140   0.28714   0.29179   0.33126
 Alpha virt. eigenvalues --    0.33351   0.33611   0.35262   0.36264   0.39296
 Alpha virt. eigenvalues --    0.49098   0.49374   0.49980   0.50816   0.51102
 Alpha virt. eigenvalues --    0.53205   0.53768   0.54182   0.55222   0.55252
 Alpha virt. eigenvalues --    0.55906   0.58101   0.58177   0.58990   0.60199
 Alpha virt. eigenvalues --    0.60593   0.60962   0.62287   0.62890   0.63751
 Alpha virt. eigenvalues --    0.64112   0.65905   0.66217   0.67054   0.67413
 Alpha virt. eigenvalues --    0.68032   0.69245   0.71337   0.71556   0.74830
 Alpha virt. eigenvalues --    0.75142   0.76370   0.77047   0.78163   0.78872
 Alpha virt. eigenvalues --    0.79925   0.80616   0.81766   0.82738   0.83193
 Alpha virt. eigenvalues --    0.85206   0.85584   0.86050   0.86835   0.87360
 Alpha virt. eigenvalues --    0.87703   0.88084   0.88991   0.89349   0.91144
 Alpha virt. eigenvalues --    0.92448   0.93558   0.93882   0.94696   0.95174
 Alpha virt. eigenvalues --    0.96832   0.97290   0.98130   0.98584   1.01109
 Alpha virt. eigenvalues --    1.03599   1.07766   1.08934   1.09554   1.12346
 Alpha virt. eigenvalues --    1.13726   1.15054   1.16324   1.16740   1.17443
 Alpha virt. eigenvalues --    1.18235   1.20463   1.21970   1.23284   1.23926
 Alpha virt. eigenvalues --    1.26227   1.26572   1.29023   1.32305   1.39433
 Alpha virt. eigenvalues --    1.40470   1.40693   1.41847   1.43446   1.45588
 Alpha virt. eigenvalues --    1.46021   1.47013   1.49593   1.50504   1.52091
 Alpha virt. eigenvalues --    1.53854   1.60264   1.60730   1.64336   1.65009
 Alpha virt. eigenvalues --    1.68169   1.68991   1.71243   1.73889   1.74599
 Alpha virt. eigenvalues --    1.75436   1.76185   1.76975   1.78526   1.80309
 Alpha virt. eigenvalues --    1.80534   1.81130   1.82854   1.83088   1.83673
 Alpha virt. eigenvalues --    1.85100   1.86348   1.87755   1.89074   1.90067
 Alpha virt. eigenvalues --    1.92773   1.93682   1.95835   1.96364   1.97974
 Alpha virt. eigenvalues --    2.00777   2.01841   2.04206   2.04565   2.05660
 Alpha virt. eigenvalues --    2.07430   2.07824   2.08723   2.10964   2.12574
 Alpha virt. eigenvalues --    2.13120   2.13664   2.15566   2.17069   2.19123
 Alpha virt. eigenvalues --    2.20697   2.21633   2.23842   2.25512   2.26668
 Alpha virt. eigenvalues --    2.29377   2.29925   2.30750   2.31641   2.33321
 Alpha virt. eigenvalues --    2.34897   2.35733   2.38223   2.39903   2.42025
 Alpha virt. eigenvalues --    2.42558   2.46263   2.46699   2.50087   2.52196
 Alpha virt. eigenvalues --    2.53407   2.56206   2.57196   2.59271   2.62032
 Alpha virt. eigenvalues --    2.64382   2.65099   2.66925   2.68602   2.69512
 Alpha virt. eigenvalues --    2.71069   2.72920   2.73674   2.74308   2.75589
 Alpha virt. eigenvalues --    2.77477   2.79177   2.81151   2.84292   2.96950
 Alpha virt. eigenvalues --    3.00963   3.02043   3.04010   3.10638   3.16973
 Alpha virt. eigenvalues --    3.40864   4.07960   4.09787   4.10718   4.13247
 Alpha virt. eigenvalues --    4.16810   4.26840   4.28921   4.30705   4.32184
 Alpha virt. eigenvalues --    4.39027   4.49790   4.55800   4.63888   4.71246
 Alpha virt. eigenvalues --    4.79690   4.83956   4.84710   5.31640
          Condensed to atoms (all electrons):
               1          2          3          4          5          6
     1  O    8.011306   0.580048  -0.073683   0.000907   0.000962   0.000046
     2  C    0.580048   4.513478   0.331079  -0.027871  -0.029529  -0.020495
     3  C   -0.073683   0.331079   5.237719   0.312822   0.338709  -0.028657
     4  C    0.000907  -0.027871   0.312822   5.178506  -0.038971  -0.014058
     5  C    0.000962  -0.029529   0.338709  -0.038971   5.098171   0.374828
     6  C    0.000046  -0.020495  -0.028657  -0.014058   0.374828   4.944896
     7  C    0.000908  -0.029250  -0.008416  -0.002513  -0.049288   0.374972
     8  C   -0.073950   0.330494  -0.125469  -0.007104  -0.008068  -0.027695
     9  C    0.000991  -0.027914  -0.006253  -0.058446  -0.003057  -0.014343
    10  C    0.000108  -0.019345  -0.020257   0.365020  -0.016373  -0.021209
    11  C    0.000001   0.000020   0.004155  -0.045468   0.000036   0.004189
    12  C   -0.000000  -0.000006   0.000318  -0.008672  -0.000048   0.000329
    13  C   -0.000000   0.000000  -0.000001   0.000310  -0.000000  -0.000001
    14  C   -0.000000  -0.000000  -0.000000   0.000002  -0.000000  -0.000000
    15  F    0.000000   0.000000   0.000000  -0.000000   0.000000   0.000000
    16  C   -0.000000   0.000000   0.000001  -0.000146  -0.000000   0.000001
    17  C   -0.000000  -0.000013  -0.000052   0.001008  -0.000002  -0.000063
    18  C   -0.000031  -0.002808  -0.012219  -0.054770  -0.046449   0.352597
    19  H    0.004181  -0.031578   0.344991  -0.030319  -0.031148   0.004168
    20  H   -0.000082   0.003552  -0.029711   0.354907  -0.005905  -0.000704
    21  H    0.000718  -0.001307  -0.037517   0.363102   0.005051  -0.000049
    22  H   -0.000082   0.003556  -0.031710  -0.005638   0.360465  -0.033844
    23  H    0.000723  -0.000849  -0.039199   0.005107   0.367441  -0.034784
    24  H   -0.000000   0.000297   0.004623   0.000073  -0.037795   0.368757
    25  H   -0.000082   0.003537  -0.000298   0.000105   0.005239  -0.033416
    26  H    0.000759  -0.000896  -0.000028   0.000043  -0.004343  -0.034951
    27  H    0.004276  -0.031768   0.007138  -0.000073  -0.000046   0.004218
    28  H   -0.000084   0.003538  -0.000414   0.006069   0.000133  -0.000727
    29  H    0.000754  -0.001036   0.000517  -0.006750   0.000008  -0.000052
    30  H   -0.000000  -0.000004  -0.000122   0.000311  -0.000014  -0.000140
    31  H    0.000000  -0.000000  -0.000000   0.000000  -0.000000  -0.000000
    32  H    0.000000  -0.000000  -0.000000   0.000001  -0.000000  -0.000000
    33  H   -0.000000  -0.000015  -0.000006   0.000251  -0.000001  -0.000007
    34  H    0.000000   0.000142  -0.000147   0.005851   0.005119  -0.033877
    35  H    0.000000   0.000146  -0.001104  -0.004991  -0.003637  -0.033957
               7          8          9         10         11         12
     1  O    0.000908  -0.073950   0.000991   0.000108   0.000001  -0.000000
     2  C   -0.029250   0.330494  -0.027914  -0.019345   0.000020  -0.000006
     3  C   -0.008416  -0.125469  -0.006253  -0.020257   0.004155   0.000318
     4  C   -0.002513  -0.007104  -0.058446   0.365020  -0.045468  -0.008672
     5  C   -0.049288  -0.008068  -0.003057  -0.016373   0.000036  -0.000048
     6  C    0.374972  -0.027695  -0.014343  -0.021209   0.004189   0.000329
     7  C    5.094563   0.338817  -0.038053  -0.016313  -0.000046  -0.000000
     8  C    0.338817   5.230759   0.321926  -0.017941   0.003450  -0.000096
     9  C   -0.038053   0.321926   5.181382   0.362781  -0.038199   0.005358
    10  C   -0.016313  -0.017941   0.362781   4.951249   0.359205  -0.051765
    11  C   -0.000046   0.003450  -0.038199   0.359205   4.709293   0.518824
    12  C   -0.000000  -0.000096   0.005358  -0.051765   0.518824   5.039500
    13  C    0.000000   0.000001  -0.000143   0.005035  -0.017987   0.453740
    14  C   -0.000000   0.000000  -0.000002   0.000286  -0.033269  -0.006061
    15  F    0.000000  -0.000000   0.000000   0.000000  -0.000001   0.003182
    16  C    0.000000  -0.000008   0.000180   0.006731  -0.019460  -0.039785
    17  C   -0.000012   0.000529  -0.009686  -0.051558   0.546220  -0.051682
    18  C   -0.046002  -0.013322  -0.057118   0.371480  -0.048751  -0.008562
    19  H   -0.000055   0.007128  -0.000056   0.003514  -0.000105  -0.000006
    20  H    0.000100  -0.000321   0.005867  -0.030628  -0.008960   0.004991
    21  H   -0.000008   0.000449  -0.006696  -0.034137  -0.001992  -0.000205
    22  H    0.005273  -0.000319   0.000118  -0.001293  -0.000079  -0.000033
    23  H   -0.004263  -0.000065   0.000058   0.000182   0.000012   0.000000
    24  H   -0.038024   0.004663   0.000111   0.004117  -0.000097  -0.000008
    25  H    0.361050  -0.030918  -0.006122  -0.001139  -0.000095   0.000000
    26  H    0.368082  -0.039688   0.005126   0.000181   0.000012  -0.000000
    27  H   -0.031393   0.345775  -0.031183   0.003458  -0.000102   0.000002
    28  H   -0.006020  -0.030947   0.353739  -0.028118  -0.006379  -0.000127
    29  H    0.005099  -0.039449   0.361117  -0.029646  -0.006508  -0.000085
    30  H   -0.000000  -0.000002   0.000085  -0.008029  -0.044491   0.352777
    31  H   -0.000000  -0.000000   0.000001  -0.000131   0.003438  -0.038310
    32  H   -0.000000  -0.000000   0.000002  -0.000123   0.003534   0.000198
    33  H   -0.000003   0.000041   0.007848  -0.015738  -0.036852   0.006394
    34  H   -0.003915  -0.001141  -0.005946  -0.035600  -0.001513  -0.000174
    35  H    0.005141  -0.000076   0.005826  -0.033464  -0.008798   0.004943
              13         14         15         16         17         18
     1  O   -0.000000  -0.000000   0.000000  -0.000000  -0.000000  -0.000031
     2  C    0.000000  -0.000000   0.000000   0.000000  -0.000013  -0.002808
     3  C   -0.000001  -0.000000   0.000000   0.000001  -0.000052  -0.012219
     4  C    0.000310   0.000002  -0.000000  -0.000146   0.001008  -0.054770
     5  C   -0.000000  -0.000000   0.000000  -0.000000  -0.000002  -0.046449
     6  C   -0.000001  -0.000000   0.000000   0.000001  -0.000063   0.352597
     7  C    0.000000  -0.000000   0.000000   0.000000  -0.000012  -0.046002
     8  C    0.000001   0.000000  -0.000000  -0.000008   0.000529  -0.013322
     9  C   -0.000143  -0.000002   0.000000   0.000180  -0.009686  -0.057118
    10  C    0.005035   0.000286   0.000000   0.006731  -0.051558   0.371480
    11  C   -0.017987  -0.033269  -0.000001  -0.019460   0.546220  -0.048751
    12  C    0.453740  -0.006061   0.003182  -0.039785  -0.051682  -0.008562
    13  C    5.123515   0.486044  -0.044343  -0.082606  -0.037761   0.000306
    14  C    0.486044   4.446940   0.300386   0.491307  -0.004391   0.000000
    15  F   -0.044343   0.300386   9.082951  -0.044239   0.003216   0.000000
    16  C   -0.082606   0.491307  -0.044239   5.147013   0.435051  -0.000144
    17  C   -0.037761  -0.004391   0.003216   0.435051   5.031176   0.001066
    18  C    0.000306   0.000000   0.000000  -0.000144   0.001066   5.152638
    19  H   -0.000000   0.000000  -0.000000  -0.000000   0.000000   0.000122
    20  H    0.000006  -0.000005  -0.000000   0.000007  -0.000254  -0.004873
    21  H   -0.000049  -0.000012   0.000000  -0.000027   0.001260   0.005717
    22  H   -0.000000  -0.000000  -0.000000  -0.000000   0.000001  -0.003470
    23  H    0.000000   0.000000  -0.000000   0.000000  -0.000000   0.005010
    24  H   -0.000000   0.000000  -0.000000  -0.000000   0.000001  -0.037784
    25  H    0.000000  -0.000000   0.000000  -0.000000  -0.000003  -0.003612
    26  H    0.000000   0.000000  -0.000000  -0.000000   0.000000   0.005021
    27  H   -0.000000  -0.000000  -0.000000   0.000000   0.000004   0.000146
    28  H    0.000001  -0.000007   0.000000   0.000046   0.001876  -0.005827
    29  H    0.000000  -0.000007   0.000000   0.000054   0.001725   0.005890
    30  H   -0.039014   0.003429  -0.000026   0.000248   0.006053   0.000334
    31  H    0.347663  -0.034663  -0.001025   0.006779   0.000207   0.000001
    32  H    0.006770  -0.035118  -0.001052   0.347815  -0.037805   0.000001
    33  H    0.000200   0.003444  -0.000025  -0.045022   0.354712   0.000240
    34  H   -0.000060  -0.000010   0.000000  -0.000031   0.001268   0.360261
    35  H   -0.000011  -0.000005   0.000000   0.000005  -0.000222   0.358726
              19         20         21         22         23         24
     1  O    0.004181  -0.000082   0.000718  -0.000082   0.000723  -0.000000
     2  C   -0.031578   0.003552  -0.001307   0.003556  -0.000849   0.000297
     3  C    0.344991  -0.029711  -0.037517  -0.031710  -0.039199   0.004623
     4  C   -0.030319   0.354907   0.363102  -0.005638   0.005107   0.000073
     5  C   -0.031148  -0.005905   0.005051   0.360465   0.367441  -0.037795
     6  C    0.004168  -0.000704  -0.000049  -0.033844  -0.034784   0.368757
     7  C   -0.000055   0.000100  -0.000008   0.005273  -0.004263  -0.038024
     8  C    0.007128  -0.000321   0.000449  -0.000319  -0.000065   0.004663
     9  C   -0.000056   0.005867  -0.006696   0.000118   0.000058   0.000111
    10  C    0.003514  -0.030628  -0.034137  -0.001293   0.000182   0.004117
    11  C   -0.000105  -0.008960  -0.001992  -0.000079   0.000012  -0.000097
    12  C   -0.000006   0.004991  -0.000205  -0.000033   0.000000  -0.000008
    13  C   -0.000000   0.000006  -0.000049  -0.000000   0.000000  -0.000000
    14  C    0.000000  -0.000005  -0.000012  -0.000000   0.000000   0.000000
    15  F   -0.000000  -0.000000   0.000000  -0.000000  -0.000000  -0.000000
    16  C   -0.000000   0.000007  -0.000027  -0.000000   0.000000  -0.000000
    17  C    0.000000  -0.000254   0.001260   0.000001  -0.000000   0.000001
    18  C    0.000122  -0.004873   0.005717  -0.003470   0.005010  -0.037784
    19  H    0.598534  -0.004119  -0.002526  -0.004027  -0.002529  -0.000141
    20  H   -0.004119   0.598520  -0.034485   0.005808  -0.000060  -0.000079
    21  H   -0.002526  -0.034485   0.587170  -0.000064  -0.000157   0.000018
    22  H   -0.004027   0.005808  -0.000064   0.602467  -0.035170  -0.003236
    23  H   -0.002529  -0.000060  -0.000157  -0.035170   0.592100  -0.003404
    24  H   -0.000141  -0.000079   0.000018  -0.003236  -0.003404   0.623910
    25  H    0.000023  -0.000004   0.000001  -0.000201   0.000005  -0.003216
    26  H   -0.000085   0.000001  -0.000005   0.000006   0.004231  -0.003313
    27  H   -0.000184   0.000023  -0.000090   0.000023  -0.000081  -0.000145
    28  H    0.000024  -0.000203  -0.000017  -0.000005   0.000000  -0.000099
    29  H   -0.000092   0.000006   0.004941   0.000000  -0.000005   0.000018
    30  H    0.000002   0.003724   0.000047   0.000043  -0.000000   0.000005
    31  H    0.000000   0.000005   0.000000   0.000000  -0.000000   0.000000
    32  H    0.000000   0.000000   0.000001   0.000000  -0.000000   0.000000
    33  H    0.000000  -0.000008  -0.000035   0.000000   0.000000   0.000000
    34  H    0.000018  -0.000069  -0.000163  -0.000059  -0.000161  -0.003469
    35  H   -0.000060   0.003473  -0.000056   0.004743  -0.000044  -0.003818
              25         26         27         28         29         30
     1  O   -0.000082   0.000759   0.004276  -0.000084   0.000754  -0.000000
     2  C    0.003537  -0.000896  -0.031768   0.003538  -0.001036  -0.000004
     3  C   -0.000298  -0.000028   0.007138  -0.000414   0.000517  -0.000122
     4  C    0.000105   0.000043  -0.000073   0.006069  -0.006750   0.000311
     5  C    0.005239  -0.004343  -0.000046   0.000133   0.000008  -0.000014
     6  C   -0.033416  -0.034951   0.004218  -0.000727  -0.000052  -0.000140
     7  C    0.361050   0.368082  -0.031393  -0.006020   0.005099  -0.000000
     8  C   -0.030918  -0.039688   0.345775  -0.030947  -0.039449  -0.000002
     9  C   -0.006122   0.005126  -0.031183   0.353739   0.361117   0.000085
    10  C   -0.001139   0.000181   0.003458  -0.028118  -0.029646  -0.008029
    11  C   -0.000095   0.000012  -0.000102  -0.006379  -0.006508  -0.044491
    12  C    0.000000  -0.000000   0.000002  -0.000127  -0.000085   0.352777
    13  C    0.000000   0.000000  -0.000000   0.000001   0.000000  -0.039014
    14  C   -0.000000   0.000000  -0.000000  -0.000007  -0.000007   0.003429
    15  F    0.000000  -0.000000  -0.000000   0.000000   0.000000  -0.000026
    16  C   -0.000000  -0.000000   0.000000   0.000046   0.000054   0.000248
    17  C   -0.000003   0.000000   0.000004   0.001876   0.001725   0.006053
    18  C   -0.003612   0.005021   0.000146  -0.005827   0.005890   0.000334
    19  H    0.000023  -0.000085  -0.000184   0.000024  -0.000092   0.000002
    20  H   -0.000004   0.000001   0.000023  -0.000203   0.000006   0.003724
    21  H    0.000001  -0.000005  -0.000090  -0.000017   0.004941   0.000047
    22  H   -0.000201   0.000006   0.000023  -0.000005   0.000000   0.000043
    23  H    0.000005   0.004231  -0.000081   0.000000  -0.000005  -0.000000
    24  H   -0.003216  -0.003313  -0.000145  -0.000099   0.000018   0.000005
    25  H    0.599313  -0.035090  -0.004125   0.005750  -0.000060  -0.000000
    26  H   -0.035090   0.592069  -0.002448  -0.000045  -0.000157  -0.000000
    27  H   -0.004125  -0.002448   0.599706  -0.003982  -0.002663   0.000000
    28  H    0.005750  -0.000045  -0.003982   0.600973  -0.039238  -0.000000
    29  H   -0.000060  -0.000157  -0.002663  -0.039238   0.593577   0.000002
    30  H   -0.000000  -0.000000   0.000000  -0.000000   0.000002   0.593228
    31  H    0.000000  -0.000000   0.000000   0.000000   0.000000  -0.005879
    32  H    0.000000  -0.000000   0.000000   0.000003   0.000004   0.000015
    33  H   -0.000002  -0.000000   0.000003   0.002011   0.002103  -0.000188
    34  H    0.004592  -0.000032  -0.000076   0.005393  -0.000069   0.000067
    35  H   -0.000050  -0.000163   0.000017  -0.000054  -0.000170   0.003954
              31         32         33         34         35
     1  O    0.000000   0.000000  -0.000000   0.000000   0.000000
     2  C   -0.000000  -0.000000  -0.000015   0.000142   0.000146
     3  C   -0.000000  -0.000000  -0.000006  -0.000147  -0.001104
     4  C    0.000000   0.000001   0.000251   0.005851  -0.004991
     5  C   -0.000000  -0.000000  -0.000001   0.005119  -0.003637
     6  C   -0.000000  -0.000000  -0.000007  -0.033877  -0.033957
     7  C   -0.000000  -0.000000  -0.000003  -0.003915   0.005141
     8  C   -0.000000  -0.000000   0.000041  -0.001141  -0.000076
     9  C    0.000001   0.000002   0.007848  -0.005946   0.005826
    10  C   -0.000131  -0.000123  -0.015738  -0.035600  -0.033464
    11  C    0.003438   0.003534  -0.036852  -0.001513  -0.008798
    12  C   -0.038310   0.000198   0.006394  -0.000174   0.004943
    13  C    0.347663   0.006770   0.000200  -0.000060  -0.000011
    14  C   -0.034663  -0.035118   0.003444  -0.000010  -0.000005
    15  F   -0.001025  -0.001052  -0.000025   0.000000   0.000000
    16  C    0.006779   0.347815  -0.045022  -0.000031   0.000005
    17  C    0.000207  -0.037805   0.354712   0.001268  -0.000222
    18  C    0.000001   0.000001   0.000240   0.360261   0.358726
    19  H    0.000000   0.000000   0.000000   0.000018  -0.000060
    20  H    0.000005   0.000000  -0.000008  -0.000069   0.003473
    21  H    0.000000   0.000001  -0.000035  -0.000163  -0.000056
    22  H    0.000000   0.000000   0.000000  -0.000059   0.004743
    23  H   -0.000000  -0.000000   0.000000  -0.000161  -0.000044
    24  H    0.000000   0.000000   0.000000  -0.003469  -0.003818
    25  H    0.000000   0.000000  -0.000002   0.004592  -0.000050
    26  H   -0.000000  -0.000000  -0.000000  -0.000032  -0.000163
    27  H    0.000000   0.000000   0.000003  -0.000076   0.000017
    28  H    0.000000   0.000003   0.002011   0.005393  -0.000054
    29  H    0.000000   0.000004   0.002103  -0.000069  -0.000170
    30  H   -0.005879   0.000015  -0.000188   0.000067   0.003954
    31  H    0.576063  -0.000164   0.000015   0.000000   0.000006
    32  H   -0.000164   0.575539  -0.005863   0.000001   0.000000
    33  H    0.000015  -0.005863   0.588513  -0.000020  -0.000005
    34  H    0.000000   0.000001  -0.000020   0.600615  -0.034439
    35  H    0.000006   0.000000  -0.000005  -0.034439   0.605187
 Mulliken charges:
               1
     1  O   -0.458692
     2  C    0.454796
     3  C   -0.166808
     4  C   -0.288605
     5  C   -0.281488
     6  C   -0.095970
     7  C   -0.280429
     8  C   -0.167454
     9  C   -0.309298
    10  C   -0.000541
    11  C    0.166762
    12  C   -0.184933
    13  C   -0.201615
    14  C    0.381712
    15  F   -0.299024
    16  C   -0.203770
    17  C   -0.191869
    18  C   -0.273813
    19  H    0.144322
    20  H    0.139483
    21  H    0.151121
    22  H    0.136728
    23  H    0.145900
    24  H    0.128037
    25  H    0.138819
    26  H    0.145712
    27  H    0.143569
    28  H    0.142739
    29  H    0.150171
    30  H    0.133588
    31  H    0.145993
    32  H    0.146240
    33  H    0.138014
    34  H    0.137645
    35  H    0.132957
 Sum of Mulliken charges =  -0.00000
 Mulliken charges with hydrogens summed into heavy atoms:
               1
     1  O   -0.458692
     2  C    0.454796
     3  C   -0.022486
     4  C    0.001998
     5  C    0.001140
     6  C    0.032067
     7  C    0.004102
     8  C   -0.023884
     9  C   -0.016388
    10  C   -0.000541
    11  C    0.166762
    12  C   -0.051346
    13  C   -0.055622
    14  C    0.381712
    15  F   -0.299024
    16  C   -0.057529
    17  C   -0.053855
    18  C   -0.003211
 APT charges:
               1
     1  O   -0.644497
     2  C    0.695413
     3  C   -0.051311
     4  C    0.083584
     5  C    0.116147
     6  C    0.104031
     7  C    0.112271
     8  C   -0.036243
     9  C    0.084276
    10  C    0.102139
    11  C    0.002760
    12  C   -0.022226
    13  C   -0.086569
    14  C    0.600933
    15  F   -0.584756
    16  C   -0.095224
    17  C   -0.015007
    18  C    0.054116
    19  H   -0.058110
    20  H   -0.032914
    21  H   -0.030607
    22  H   -0.043822
    23  H   -0.045456
    24  H   -0.079521
    25  H   -0.043798
    26  H   -0.044139
    27  H   -0.053762
    28  H   -0.038060
    29  H   -0.031278
    30  H    0.033319
    31  H    0.039300
    32  H    0.039499
    33  H    0.043496
    34  H   -0.039234
    35  H   -0.034750
 Sum of APT charges =   0.00000
 APT charges with hydrogens summed into heavy atoms:
               1
     1  O   -0.644497
     2  C    0.695413
     3  C   -0.109420
     4  C    0.020063
     5  C    0.026869
     6  C    0.024510
     7  C    0.024334
     8  C   -0.090005
     9  C    0.014939
    10  C    0.102139
    11  C    0.002760
    12  C    0.011093
    13  C   -0.047269
    14  C    0.600933
    15  F   -0.584756
    16  C   -0.055725
    17  C    0.028488
    18  C   -0.019868
 Electronic spatial extent (au):  <R**2>=           4906.6763
 Charge=             -0.0000 electrons
 Dipole moment (field-independent basis, Debye):
    X=             -0.4036    Y=              1.8709    Z=              1.7371  Tot=              2.5847
 Quadrupole moment (field-independent basis, Debye-Ang):
   XX=           -123.7311   YY=           -101.4034   ZZ=           -106.4628
   XY=              7.7844   XZ=              7.2475   YZ=             -5.7346
 Traceless Quadrupole moment (field-independent basis, Debye-Ang):
   XX=            -13.1987   YY=              9.1290   ZZ=              4.0696
   XY=              7.7844   XZ=              7.2475   YZ=             -5.7346
 Octapole moment (field-independent basis, Debye-Ang**2):
  XXX=            -13.2986  YYY=             -1.4897  ZZZ=             -1.4114  XYY=            -31.2652
  XXY=             31.9114  XXZ=             29.0281  XZZ=            -12.0764  YZZ=              2.8771
  YYZ=              3.0648  XYZ=             -7.4462
 Hexadecapole moment (field-independent basis, Debye-Ang**3):
 XXXX=          -5225.5167 YYYY=           -833.4977 ZZZZ=           -641.1130 XXXY=            106.2289
 XXXZ=             98.9796 YYYX=              8.9310 YYYZ=            -14.2641 ZZZX=              3.9875
 ZZZY=              0.0620 XXYY=           -918.3625 XXZZ=           -932.2487 YYZZ=           -253.7766
 XXYZ=            -72.4602 YYXZ=             19.6152 ZZXY=             14.6859
 N-N= 1.335837869234D+03 E-N=-4.521274117600D+03  KE= 7.877506856476D+02
  Exact polarizability: 200.678  -0.339 147.563   0.218 -10.046 116.438
 Approx polarizability: 276.702  -5.186 249.223  -3.288 -20.082 182.597
 Calling FoFJK, ICntrl=    100127 FMM=F ISym2X=0 I1Cent= 0 IOpClX= 0 NMat=1 NMatS=1 NMatT=0.
 Full mass-weighted force constant matrix:
 Low frequencies ---  -10.7888    0.0001    0.0003    0.0006    2.9510    5.6699
 Low frequencies ---   48.5947   62.8681   93.9071
 Diagonal vibrational polarizability:
       16.9741371       9.1224562      11.1447801
 Harmonic frequencies (cm**-1), IR intensities (KM/Mole), Raman scattering
 activities (A**4/AMU), depolarization ratios for plane and unpolarized
 incident light, reduced masses (AMU), force constants (mDyne/A),
 and normal coordinates:
                      1                      2                      3
                      A                      A                      A
 Frequencies --     48.5826                62.8655                93.9057
 Red. masses --      4.2320                 6.7163                 7.4061
 Frc consts  --      0.0059                 0.0156                 0.0385
 IR Inten    --      0.3191                 1.3292                 2.1375
  Atom  AN      X      Y      Z        X      Y      Z        X      Y      Z
     1   8    -0.10  -0.10   0.00     0.24   0.07   0.19     0.36   0.25   0.10
     2   6    -0.04  -0.04   0.01     0.09   0.00   0.07     0.04   0.02  -0.04
     3   6    -0.03  -0.05  -0.03     0.05  -0.05  -0.02    -0.13  -0.07  -0.08
     4   6    -0.04  -0.03   0.03     0.05  -0.07  -0.10    -0.12  -0.11   0.04
     5   6     0.01  -0.01  -0.09    -0.02  -0.01  -0.02    -0.09  -0.04  -0.13
     6   6     0.05   0.05  -0.06    -0.08   0.01  -0.04     0.04  -0.04  -0.08
     7   6     0.05   0.07  -0.01    -0.09   0.03   0.03     0.08  -0.04  -0.10
     8   6     0.01   0.03   0.05    -0.02   0.00   0.03     0.01  -0.05  -0.07
     9   6     0.01   0.04   0.09    -0.01  -0.03  -0.06     0.00  -0.06   0.04
    10   6     0.00   0.03   0.06    -0.01  -0.05  -0.12    -0.03  -0.06   0.09
    11   6     0.00   0.03   0.07    -0.01  -0.05  -0.14    -0.04  -0.02   0.15
    12   6    -0.01   0.08   0.24    -0.01   0.01   0.02     0.01   0.01   0.13
    13   6    -0.01   0.06   0.19    -0.02   0.06   0.15     0.02   0.04   0.04
    14   6     0.01  -0.02  -0.04    -0.03   0.04   0.09    -0.03   0.05  -0.04
    15   9     0.01  -0.05  -0.10    -0.04   0.11   0.26    -0.02   0.06  -0.20
    16   6     0.02  -0.07  -0.21    -0.02  -0.04  -0.14    -0.09   0.04   0.05
    17   6     0.02  -0.05  -0.15    -0.01  -0.08  -0.25    -0.09   0.01   0.14
    18   6     0.04   0.06  -0.00    -0.07  -0.02  -0.12     0.04  -0.06   0.05
    19   1    -0.06  -0.10  -0.05     0.10  -0.07   0.00    -0.20  -0.08  -0.10
    20   1    -0.04  -0.04   0.01     0.05  -0.09  -0.14    -0.17  -0.13   0.02
    21   1    -0.07  -0.05   0.07     0.10  -0.10  -0.09    -0.17  -0.14   0.09
    22   1     0.01  -0.02  -0.12    -0.02  -0.03  -0.07    -0.16  -0.06  -0.10
    23   1     0.01  -0.02  -0.12    -0.02   0.01   0.02    -0.09  -0.00  -0.22
    24   1     0.07   0.08  -0.10    -0.13   0.03  -0.05     0.09  -0.04  -0.10
    25   1     0.08   0.12   0.01    -0.15   0.06   0.02     0.15  -0.02  -0.07
    26   1     0.05   0.06  -0.05    -0.10   0.04   0.09     0.08  -0.04  -0.19
    27   1     0.01   0.04   0.08    -0.02   0.02   0.08     0.04  -0.04  -0.08
    28   1     0.01   0.08   0.11    -0.07  -0.02  -0.08     0.07  -0.07   0.07
    29   1    -0.00   0.02   0.12     0.05  -0.04  -0.07    -0.05  -0.06   0.06
    30   1    -0.03   0.14   0.40    -0.01   0.02   0.08     0.05  -0.00   0.16
    31   1    -0.02   0.10   0.32    -0.03   0.11   0.30     0.06   0.05  -0.01
    32   1     0.04  -0.14  -0.38    -0.02  -0.05  -0.20    -0.12   0.06   0.01
    33   1     0.03  -0.09  -0.28    -0.01  -0.13  -0.40    -0.12   0.00   0.18
    34   1     0.08   0.11   0.02    -0.12  -0.00  -0.14     0.12  -0.06   0.08
    35   1     0.05   0.06  -0.02    -0.07  -0.03  -0.16     0.01  -0.06   0.08
                      4                      5                      6
                      A                      A                      A
 Frequencies --    125.8571               205.3734               249.2694
 Red. masses --      4.6805                 5.0097                 6.5471
 Frc consts  --      0.0437                 0.1245                 0.2397
 IR Inten    --      0.4374                 0.2198                 0.5994
  Atom  AN      X      Y      Z        X      Y      Z        X      Y      Z
     1   8    -0.13  -0.01  -0.10     0.03   0.05   0.02    -0.03   0.05   0.07
     2   6     0.01   0.05  -0.00    -0.05  -0.02  -0.01    -0.14  -0.01   0.01
     3   6    -0.03   0.04   0.02    -0.07  -0.02   0.00    -0.15  -0.04  -0.04
     4   6    -0.01  -0.12   0.03    -0.06   0.04   0.11    -0.12  -0.03  -0.02
     5   6    -0.15   0.10  -0.00     0.01  -0.02  -0.03    -0.20  -0.02  -0.04
     6   6    -0.09   0.05   0.01     0.11  -0.02   0.01    -0.10  -0.03   0.00
     7   6     0.05   0.12   0.00     0.15  -0.03  -0.06    -0.14  -0.06  -0.01
     8   6     0.11   0.06   0.04    -0.02  -0.02   0.00    -0.15  -0.05  -0.01
     9   6     0.10  -0.08   0.07    -0.03   0.05   0.14    -0.12  -0.01  -0.01
    10   6     0.02  -0.13   0.04    -0.01   0.06   0.13    -0.03   0.03   0.01
    11   6     0.03  -0.14  -0.00    -0.02   0.03   0.00     0.08   0.07   0.00
    12   6     0.11  -0.10  -0.02    -0.03  -0.03  -0.15     0.13   0.08  -0.03
    13   6     0.11   0.01  -0.03    -0.03  -0.07  -0.22     0.15   0.04  -0.04
    14   6     0.03   0.06  -0.02    -0.03  -0.03  -0.10     0.23   0.01  -0.01
    15   9     0.03   0.19   0.00    -0.04   0.04   0.21     0.25  -0.05   0.06
    16   6    -0.05  -0.00  -0.04    -0.00  -0.05  -0.19     0.21   0.00  -0.02
    17   6    -0.04  -0.11  -0.03    -0.01  -0.01  -0.13     0.18   0.04  -0.01
    18   6    -0.07  -0.10   0.04     0.08   0.02   0.14    -0.07  -0.01   0.05
    19   1    -0.05   0.06   0.02    -0.13  -0.04  -0.02    -0.13  -0.05  -0.03
    20   1    -0.11  -0.18  -0.01    -0.05   0.06   0.14    -0.14  -0.05  -0.04
    21   1     0.07  -0.18   0.06    -0.15   0.06   0.13    -0.17  -0.06   0.04
    22   1    -0.28   0.04  -0.01    -0.01  -0.02  -0.01    -0.31  -0.05  -0.01
    23   1    -0.17   0.24  -0.02     0.02  -0.03  -0.11    -0.21   0.09  -0.11
    24   1    -0.15   0.08   0.00     0.18  -0.03  -0.01    -0.03  -0.04  -0.01
    25   1     0.12   0.10   0.02     0.31  -0.01  -0.00    -0.17  -0.05  -0.02
    26   1     0.05   0.21  -0.05     0.16  -0.05  -0.23    -0.14  -0.10   0.01
    27   1     0.19   0.10   0.05    -0.04  -0.04  -0.03    -0.15  -0.05  -0.03
    28   1     0.13  -0.07   0.09     0.03   0.12   0.18    -0.14  -0.00  -0.02
    29   1     0.16  -0.12   0.10    -0.11   0.03   0.20    -0.16   0.03  -0.03
    30   1     0.17  -0.13  -0.01    -0.04  -0.02  -0.15     0.15   0.07  -0.02
    31   1     0.18   0.05  -0.03    -0.03  -0.08  -0.24     0.10   0.01  -0.04
    32   1    -0.12   0.04  -0.05     0.01  -0.06  -0.18     0.19   0.01  -0.03
    33   1    -0.09  -0.14  -0.03    -0.00  -0.00  -0.11     0.22   0.07  -0.01
    34   1    -0.04  -0.15   0.04     0.17  -0.00   0.16    -0.07  -0.07   0.03
    35   1    -0.17  -0.14   0.07     0.08   0.05   0.21    -0.09  -0.00   0.09
                      7                      8                      9
                      A                      A                      A
 Frequencies --    264.4158               281.5886               330.2109
 Red. masses --      2.9213                 2.3670                 3.3902
 Frc consts  --      0.1203                 0.1106                 0.2178
 IR Inten    --      0.3528                 0.5828                 0.0568
  Atom  AN      X      Y      Z        X      Y      Z        X      Y      Z
     1   8    -0.01   0.08  -0.04     0.00  -0.08   0.11     0.03  -0.00  -0.11
     2   6    -0.05   0.03  -0.03    -0.01  -0.03   0.03     0.09  -0.01  -0.02
     3   6    -0.06   0.01  -0.02    -0.01  -0.03  -0.03    -0.05  -0.08  -0.02
     4   6    -0.07   0.07   0.03    -0.03   0.19   0.02    -0.05  -0.08   0.04
     5   6     0.14  -0.08  -0.01    -0.00  -0.00  -0.07    -0.02  -0.10  -0.03
     6   6     0.02   0.02  -0.03    -0.00   0.04  -0.05    -0.02   0.02   0.01
     7   6    -0.12  -0.01   0.07     0.01   0.07  -0.02    -0.09   0.05   0.14
     8   6    -0.02   0.01  -0.00     0.00   0.04   0.03     0.14   0.04   0.03
     9   6     0.00   0.01   0.01     0.02  -0.03  -0.14     0.11  -0.06  -0.09
    10   6    -0.01   0.00   0.04    -0.00   0.01  -0.00     0.01  -0.02   0.06
    11   6     0.01  -0.09   0.07     0.00  -0.03   0.01    -0.01   0.09   0.06
    12   6     0.05  -0.09   0.03     0.01  -0.03   0.01    -0.03   0.08   0.01
    13   6     0.07  -0.06  -0.02     0.02  -0.02  -0.00    -0.04   0.04  -0.09
    14   6     0.03  -0.03  -0.02     0.00  -0.01   0.00    -0.02   0.03  -0.07
    15   9     0.03   0.11   0.00     0.00   0.04  -0.01    -0.03  -0.08   0.07
    16   6    -0.02  -0.07  -0.02    -0.01  -0.02   0.01     0.01   0.06  -0.07
    17   6    -0.01  -0.10   0.03    -0.01  -0.03   0.01     0.00   0.09   0.01
    18   6     0.01   0.11  -0.09     0.00  -0.08   0.09    -0.00  -0.02   0.05
    19   1    -0.09  -0.01  -0.04    -0.01  -0.07  -0.04    -0.10  -0.06  -0.04
    20   1    -0.05   0.11   0.12     0.11   0.34   0.24    -0.04  -0.09   0.00
    21   1    -0.11   0.13  -0.02    -0.21   0.38  -0.12    -0.09  -0.11   0.10
    22   1     0.39   0.03  -0.01    -0.00  -0.02  -0.11     0.04  -0.08  -0.06
    23   1     0.17  -0.35   0.04    -0.00   0.01  -0.05    -0.01  -0.15  -0.03
    24   1     0.03   0.03  -0.04    -0.00   0.07  -0.09    -0.01   0.08  -0.07
    25   1    -0.33  -0.01  -0.00     0.04   0.11   0.00    -0.37   0.03   0.04
    26   1    -0.13  -0.06   0.28     0.02   0.05  -0.05    -0.11   0.06   0.44
    27   1     0.01   0.02  -0.02     0.00   0.05   0.06     0.16   0.07   0.07
    28   1     0.01  -0.01   0.01    -0.09  -0.21  -0.23     0.10  -0.29  -0.15
    29   1    -0.03   0.03  -0.00     0.14   0.06  -0.31     0.22   0.04  -0.26
    30   1     0.08  -0.11   0.04     0.02  -0.04   0.01    -0.05   0.10   0.02
    31   1     0.09  -0.05  -0.04     0.03  -0.02  -0.02    -0.03   0.04  -0.11
    32   1    -0.05  -0.05  -0.04    -0.02  -0.01   0.02     0.02   0.05  -0.09
    33   1    -0.04  -0.11   0.04    -0.01  -0.04   0.00     0.01   0.10   0.01
    34   1    -0.05   0.31  -0.07     0.15  -0.25   0.11     0.04  -0.04   0.07
    35   1     0.08   0.09  -0.27    -0.14  -0.08   0.27    -0.07  -0.04   0.07
                     10                     11                     12
                      A                      A                      A
 Frequencies --    363.1855               375.9411               399.6057
 Red. masses --      3.8526                 4.0802                 4.8520
 Frc consts  --      0.2994                 0.3398                 0.4565
 IR Inten    --      0.3214                 1.1817                 0.4503
  Atom  AN      X      Y      Z        X      Y      Z        X      Y      Z
     1   8     0.05  -0.12   0.01    -0.14   0.09   0.12    -0.01  -0.02   0.01
     2   6     0.09  -0.03  -0.03    -0.09   0.13   0.12     0.01   0.01   0.01
     3   6     0.12   0.03   0.03    -0.04   0.10   0.01    -0.10  -0.06  -0.06
     4   6     0.08  -0.05   0.03    -0.02  -0.10  -0.07    -0.09  -0.01  -0.16
     5   6    -0.07   0.14  -0.00     0.05   0.10  -0.05    -0.15  -0.11   0.04
     6   6    -0.01   0.04  -0.00     0.18  -0.01  -0.03     0.05  -0.10   0.12
     7   6    -0.10  -0.04  -0.08     0.03  -0.04   0.07     0.11  -0.06   0.16
     8   6    -0.05  -0.04  -0.10    -0.06   0.01   0.08     0.10   0.06   0.05
     9   6    -0.04   0.01  -0.10    -0.03  -0.11  -0.11     0.08   0.18  -0.07
    10   6     0.01   0.07   0.06     0.03  -0.07  -0.05     0.01   0.13  -0.10
    11   6    -0.00   0.02   0.15     0.01   0.01   0.04     0.00   0.03  -0.02
    12   6    -0.01  -0.01   0.11     0.00   0.01   0.03    -0.05  -0.00  -0.01
    13   6     0.01  -0.09  -0.07    -0.00  -0.01  -0.04    -0.03  -0.12   0.03
    14   6    -0.01  -0.08  -0.09    -0.02  -0.00  -0.04    -0.01  -0.11   0.04
    15   9    -0.02   0.10   0.05    -0.03  -0.01   0.03    -0.02   0.17  -0.06
    16   6    -0.01  -0.08  -0.07    -0.01   0.01  -0.02     0.02  -0.10   0.05
    17   6    -0.01  -0.01   0.10    -0.01   0.01   0.02     0.05  -0.00  -0.01
    18   6     0.00   0.12   0.02     0.18  -0.08  -0.07     0.04   0.04   0.01
    19   1     0.08   0.07   0.02     0.00  -0.02   0.00    -0.01   0.00  -0.01
    20   1     0.07  -0.13  -0.13    -0.18  -0.22  -0.20    -0.06  -0.05  -0.29
    21   1     0.14  -0.17   0.14     0.17  -0.24   0.00    -0.11  -0.11  -0.05
    22   1    -0.33   0.02  -0.02    -0.03   0.12   0.08    -0.30  -0.13   0.15
    23   1    -0.11   0.41  -0.03     0.05   0.12  -0.22    -0.16   0.02  -0.12
    24   1     0.07  -0.03   0.06     0.12  -0.01  -0.01     0.08  -0.04   0.04
    25   1    -0.17  -0.06  -0.11    -0.06   0.10   0.07     0.10  -0.13   0.14
    26   1    -0.10  -0.09   0.00     0.04  -0.22   0.11     0.11  -0.02   0.18
    27   1    -0.09  -0.04  -0.05    -0.01  -0.00  -0.04    -0.02  -0.01  -0.02
    28   1    -0.02  -0.14  -0.14    -0.18  -0.28  -0.21     0.01   0.18  -0.10
    29   1    -0.10   0.14  -0.23     0.13  -0.03  -0.28     0.13   0.17  -0.08
    30   1    -0.02   0.01   0.16    -0.00   0.01   0.05    -0.11   0.03  -0.02
    31   1    -0.00  -0.10  -0.10     0.01  -0.01  -0.07    -0.11  -0.17   0.03
    32   1     0.01  -0.10  -0.08    -0.01   0.01  -0.02     0.11  -0.15   0.07
    33   1    -0.01   0.01   0.14    -0.03   0.00   0.01     0.11   0.03  -0.03
    34   1    -0.02   0.19   0.03     0.21  -0.07  -0.06    -0.11  -0.01  -0.06
    35   1     0.04   0.11  -0.06     0.17  -0.08  -0.05     0.20   0.13   0.06
                     13                     14                     15
                      A                      A                      A
 Frequencies --    419.1424               427.2831               431.7102
 Red. masses --      3.1845                 3.1614                 2.2446
 Frc consts  --      0.3296                 0.3401                 0.2465
 IR Inten    --      0.7487                 0.0624                 0.4195
  Atom  AN      X      Y      Z        X      Y      Z        X      Y      Z
     1   8    -0.00  -0.02   0.05    -0.00  -0.01   0.02    -0.00   0.02  -0.01
     2   6    -0.02  -0.00   0.00    -0.01   0.00   0.01    -0.02   0.02  -0.03
     3   6    -0.03   0.01   0.01    -0.01   0.00   0.00     0.02   0.02  -0.01
     4   6    -0.04   0.04  -0.09    -0.02   0.01  -0.02     0.03  -0.08  -0.02
     5   6     0.00  -0.05   0.09    -0.01  -0.01   0.02     0.11  -0.05   0.02
     6   6    -0.08  -0.04   0.05    -0.01  -0.01   0.02    -0.05   0.04  -0.02
     7   6     0.11   0.03  -0.04     0.03  -0.00  -0.00    -0.02   0.07  -0.04
     8   6     0.03   0.02   0.01     0.01   0.00   0.00    -0.05   0.05  -0.02
     9   6     0.03   0.01  -0.02     0.01  -0.00  -0.02    -0.05  -0.00   0.00
    10   6    -0.02  -0.04  -0.09    -0.00  -0.00  -0.02    -0.02  -0.01  -0.02
    11   6    -0.02   0.00   0.09    -0.00  -0.00   0.02    -0.02   0.06   0.00
    12   6     0.01   0.05   0.17     0.02  -0.06  -0.18    -0.04   0.05   0.01
    13   6     0.02   0.02  -0.13    -0.00   0.08   0.18    -0.02  -0.06   0.01
    14   6     0.03   0.01  -0.15     0.00   0.01  -0.04     0.02  -0.09  -0.02
    15   9     0.02  -0.04   0.09     0.00  -0.01   0.02     0.02   0.09  -0.01
    16   6    -0.01   0.03  -0.04     0.01  -0.06  -0.23     0.03  -0.08  -0.01
    17   6    -0.02   0.00   0.08    -0.02   0.07   0.23     0.03   0.05   0.04
    18   6    -0.06  -0.03  -0.13    -0.00   0.00  -0.03    -0.04  -0.10   0.07
    19   1     0.04   0.07   0.04    -0.00   0.01   0.01     0.02   0.03  -0.01
    20   1    -0.02   0.09  -0.01     0.00   0.03  -0.00    -0.06  -0.18  -0.17
    21   1    -0.03   0.11  -0.18    -0.02   0.03  -0.04     0.14  -0.21   0.07
    22   1     0.14   0.01   0.09    -0.01  -0.00   0.03     0.41   0.06  -0.04
    23   1     0.02  -0.17   0.16    -0.01  -0.01   0.01     0.14  -0.32   0.17
    24   1    -0.17  -0.03   0.07    -0.02  -0.01   0.02    -0.08   0.06  -0.02
    25   1     0.40  -0.04   0.04     0.09  -0.01   0.02     0.06   0.06  -0.02
    26   1     0.12   0.16  -0.31     0.03   0.02  -0.05    -0.01   0.08  -0.11
    27   1     0.03   0.02  -0.01     0.01   0.00  -0.01    -0.03   0.07   0.00
    28   1     0.01   0.07  -0.01     0.01  -0.01  -0.03    -0.02   0.03   0.02
    29   1     0.08  -0.05   0.03     0.02   0.00  -0.03    -0.03  -0.03   0.04
    30   1     0.04   0.07   0.32     0.04  -0.14  -0.38    -0.08   0.08   0.02
    31   1     0.06   0.03  -0.16    -0.00   0.15   0.37    -0.11  -0.11   0.05
    32   1    -0.07   0.09   0.02     0.00  -0.11  -0.42     0.10  -0.12   0.01
    33   1    -0.04   0.00   0.11    -0.04   0.15   0.49     0.09   0.10   0.08
    34   1    -0.23   0.06  -0.17    -0.05   0.04  -0.04     0.12  -0.35   0.08
    35   1     0.04  -0.02  -0.25     0.02  -0.00  -0.08    -0.21  -0.10   0.31
                     16                     17                     18
                      A                      A                      A
 Frequencies --    448.3655               452.3826               483.1381
 Red. masses --      1.9893                 3.2439                 3.5392
 Frc consts  --      0.2356                 0.3911                 0.4867
 IR Inten    --      0.9036                 7.5749                 4.7626
  Atom  AN      X      Y      Z        X      Y      Z        X      Y      Z
     1   8     0.00  -0.01   0.01     0.01  -0.10   0.09     0.00  -0.15   0.17
     2   6     0.01   0.03  -0.03     0.00   0.06  -0.09    -0.01   0.09  -0.09
     3   6     0.04   0.03  -0.08    -0.01   0.06  -0.09    -0.06   0.12  -0.09
     4   6     0.04   0.07  -0.07    -0.03  -0.07  -0.05    -0.07   0.00   0.08
     5   6    -0.02   0.03  -0.06     0.04  -0.03   0.03     0.01   0.04   0.03
     6   6     0.02  -0.04  -0.04     0.02   0.00   0.05    -0.01  -0.04   0.02
     7   6    -0.07  -0.04   0.06    -0.01  -0.01   0.01    -0.01  -0.04  -0.03
     8   6     0.01   0.01  -0.01    -0.02   0.11  -0.10     0.06   0.06  -0.12
     9   6     0.01   0.03   0.13    -0.00   0.13  -0.04     0.09  -0.12   0.05
    10   6     0.03  -0.02  -0.06    -0.01   0.08   0.01     0.01  -0.10   0.07
    11   6     0.02  -0.01   0.01    -0.01  -0.10   0.02     0.00   0.07  -0.02
    12   6     0.00   0.00   0.05     0.05  -0.09  -0.00    -0.03   0.06  -0.05
    13   6     0.00  -0.01  -0.02     0.04   0.08  -0.01    -0.03  -0.03   0.02
    14   6    -0.02  -0.02  -0.07     0.00   0.10   0.01    -0.01  -0.03   0.06
    15   9    -0.03   0.00   0.03     0.01  -0.10   0.01    -0.01   0.04  -0.03
    16   6    -0.01   0.00  -0.03    -0.05   0.07  -0.01     0.03  -0.02   0.02
    17   6    -0.01   0.02   0.05    -0.05  -0.10  -0.01     0.04   0.07  -0.05
    18   6     0.03  -0.10   0.01     0.00   0.02   0.12    -0.01  -0.01  -0.06
    19   1     0.07   0.02  -0.07    -0.05   0.17  -0.09    -0.18   0.25  -0.12
    20   1     0.06   0.13   0.05    -0.14  -0.23  -0.30    -0.18   0.01   0.22
    21   1    -0.01   0.16  -0.16     0.08  -0.29   0.14    -0.09   0.06   0.02
    22   1    -0.14  -0.01  -0.00     0.18   0.05   0.08     0.06   0.10   0.13
    23   1    -0.04   0.15  -0.08     0.05  -0.17   0.06     0.01  -0.03   0.04
    24   1    -0.01  -0.03  -0.05     0.07   0.01   0.03    -0.04  -0.06   0.05
    25   1    -0.34  -0.03  -0.02    -0.06  -0.10  -0.03    -0.08  -0.14  -0.07
    26   1    -0.08  -0.10   0.32    -0.01  -0.04   0.06    -0.02  -0.01   0.05
    27   1     0.03  -0.00  -0.06    -0.05   0.08  -0.17     0.22   0.08  -0.27
    28   1     0.10   0.35   0.24     0.04   0.11  -0.03     0.23  -0.14   0.10
    29   1    -0.10  -0.14   0.39    -0.04   0.15  -0.04     0.09  -0.14   0.09
    30   1    -0.00   0.03   0.12     0.15  -0.15  -0.01    -0.10   0.09  -0.11
    31   1     0.02   0.02   0.02     0.15   0.13  -0.05    -0.10  -0.08  -0.01
    32   1    -0.00   0.01   0.01    -0.16   0.13  -0.05     0.11  -0.08   0.01
    33   1    -0.02   0.03   0.12    -0.12  -0.15  -0.03     0.10   0.09  -0.09
    34   1     0.11  -0.27   0.01     0.08  -0.15   0.11    -0.11   0.23  -0.05
    35   1    -0.06  -0.08   0.18    -0.04   0.07   0.30     0.08  -0.05  -0.31
                     19                     20                     21
                      A                      A                      A
 Frequencies --    551.1776               562.5297               617.1001
 Red. masses --      2.5008                 7.2760                 5.4662
 Frc consts  --      0.4476                 1.3565                 1.2264
 IR Inten    --      9.4088                12.1023                 0.0782
  Atom  AN      X      Y      Z        X      Y      Z        X      Y      Z
     1   8     0.01  -0.00  -0.02     0.04  -0.07  -0.05     0.15  -0.10  -0.09
     2   6     0.02  -0.01   0.00     0.14   0.02   0.00    -0.01  -0.18  -0.16
     3   6     0.02   0.00   0.00     0.03   0.03   0.04    -0.11  -0.01   0.06
     4   6    -0.00   0.02  -0.06    -0.05  -0.00   0.08    -0.13  -0.02  -0.07
     5   6     0.00   0.01   0.01     0.06   0.08  -0.03    -0.01   0.07   0.15
     6   6    -0.02  -0.01  -0.01     0.10  -0.04  -0.04     0.15   0.21   0.18
     7   6    -0.00   0.01   0.00     0.07  -0.02   0.09    -0.01   0.16   0.05
     8   6    -0.00  -0.00   0.01     0.04   0.05   0.02    -0.12   0.06  -0.01
     9   6    -0.01   0.01   0.01    -0.05   0.05  -0.00    -0.13  -0.08   0.00
    10   6    -0.01  -0.01  -0.03    -0.20  -0.02  -0.01     0.01  -0.09  -0.08
    11   6    -0.03   0.07   0.21    -0.29  -0.02  -0.05     0.03   0.01  -0.02
    12   6    -0.01   0.00  -0.01    -0.15   0.12  -0.05     0.05  -0.00  -0.02
    13   6    -0.00  -0.02  -0.07    -0.11   0.13  -0.03     0.04  -0.03   0.02
    14   6    -0.00   0.08   0.23     0.20  -0.01  -0.03    -0.01  -0.02  -0.03
    15   9     0.02  -0.01  -0.03     0.31   0.01   0.02    -0.03  -0.01   0.00
    16   6    -0.00  -0.03  -0.07    -0.11  -0.13   0.05    -0.01   0.00   0.02
    17   6    -0.01  -0.01  -0.00    -0.16  -0.12   0.03    -0.01   0.02  -0.03
    18   6     0.01  -0.05  -0.04     0.03  -0.06  -0.06     0.17  -0.04  -0.04
    19   1     0.06   0.00   0.02    -0.11   0.03  -0.02    -0.12   0.25   0.11
    20   1     0.04   0.04  -0.04     0.01   0.02   0.07    -0.12   0.06   0.10
    21   1     0.01   0.05  -0.10     0.00   0.04  -0.00    -0.14   0.10  -0.20
    22   1    -0.00   0.01   0.01    -0.12   0.03   0.04    -0.09   0.02   0.11
    23   1     0.00   0.02   0.03     0.04   0.23  -0.13    -0.01   0.10  -0.07
    24   1    -0.07  -0.00   0.01    -0.03  -0.02  -0.02     0.01   0.24   0.21
    25   1    -0.01   0.02   0.00    -0.11   0.03   0.04    -0.10   0.10   0.01
    26   1    -0.01   0.02   0.01     0.07  -0.09   0.25    -0.00  -0.06   0.11
    27   1    -0.02  -0.00   0.03    -0.08  -0.00   0.02    -0.12   0.14   0.23
    28   1    -0.01   0.10   0.04     0.02   0.03   0.02    -0.14   0.10   0.05
    29   1    -0.01  -0.05   0.08     0.02  -0.01   0.04    -0.12  -0.19   0.13
    30   1     0.02  -0.12  -0.36    -0.02   0.07   0.04     0.02   0.02   0.01
    31   1     0.01  -0.16  -0.48    -0.35   0.01   0.07     0.06   0.00   0.08
    32   1     0.01  -0.16  -0.49    -0.35   0.02   0.07     0.02  -0.00   0.08
    33   1     0.02  -0.12  -0.34    -0.03  -0.03   0.07    -0.02   0.03  -0.00
    34   1     0.01  -0.11  -0.05     0.09   0.01  -0.02     0.10  -0.07  -0.08
    35   1    -0.03  -0.06   0.00     0.10  -0.02  -0.03     0.10  -0.09  -0.07
                     22                     23                     24
                      A                      A                      A
 Frequencies --    635.4268               654.8991               681.5619
 Red. masses --      3.7589                 6.5273                 4.6537
 Frc consts  --      0.8942                 1.6494                 1.2737
 IR Inten    --      1.3454                 0.4650                 0.9771
  Atom  AN      X      Y      Z        X      Y      Z        X      Y      Z
     1   8     0.01  -0.04   0.03     0.02   0.00  -0.02     0.03  -0.07  -0.06
     2   6     0.00  -0.09   0.09    -0.01   0.02  -0.06     0.17   0.04   0.03
     3   6    -0.14   0.03   0.17     0.05  -0.01  -0.06    -0.04   0.05   0.06
     4   6    -0.15   0.02  -0.04     0.05  -0.02   0.03    -0.09  -0.03   0.21
     5   6     0.05   0.15   0.03    -0.01  -0.05   0.00     0.05   0.07  -0.04
     6   6     0.00   0.06  -0.06     0.02  -0.00   0.04    -0.03  -0.13  -0.11
     7   6    -0.05  -0.05  -0.13     0.02   0.04   0.06     0.06  -0.03   0.07
     8   6     0.14  -0.17  -0.01    -0.08   0.07   0.01    -0.05   0.07   0.04
     9   6     0.13   0.04  -0.02    -0.07  -0.06   0.02    -0.11   0.20  -0.05
    10   6    -0.00   0.05  -0.06    -0.00  -0.03   0.02    -0.09   0.01   0.01
    11   6    -0.00  -0.02   0.00     0.01  -0.09   0.03     0.04   0.00   0.01
    12   6    -0.07  -0.04  -0.00    -0.27  -0.19   0.05     0.09  -0.03   0.00
    13   6    -0.07   0.04  -0.01    -0.27   0.14  -0.06     0.09  -0.04   0.03
    14   6     0.00   0.02  -0.02    -0.00   0.08  -0.02    -0.04  -0.01  -0.01
    15   9    -0.00   0.02  -0.01    -0.00   0.08  -0.03    -0.11  -0.00  -0.00
    16   6     0.07   0.05  -0.00     0.27   0.16  -0.04     0.08   0.05  -0.00
    17   6     0.07  -0.05   0.00     0.28  -0.17   0.08     0.08   0.03  -0.01
    18   6     0.00   0.01  -0.02     0.02  -0.03  -0.01    -0.04  -0.17  -0.15
    19   1    -0.10  -0.06   0.17     0.01   0.06  -0.06    -0.32   0.04  -0.05
    20   1    -0.21  -0.07  -0.19     0.06   0.02   0.13    -0.10  -0.05   0.17
    21   1     0.00  -0.11   0.03    -0.01   0.05  -0.02    -0.06  -0.04   0.21
    22   1     0.24   0.22  -0.01    -0.12  -0.09   0.02     0.03   0.09   0.06
    23   1     0.08  -0.10   0.02    -0.03   0.08  -0.02     0.05   0.07  -0.04
    24   1     0.00  -0.11   0.14    -0.02   0.08  -0.04    -0.27  -0.08  -0.06
    25   1    -0.26  -0.02  -0.20     0.10   0.03   0.09     0.03   0.08   0.08
    26   1    -0.07  -0.01   0.12     0.03  -0.01  -0.05     0.06  -0.03   0.06
    27   1     0.10  -0.15   0.10    -0.05   0.08  -0.01    -0.32  -0.05   0.06
    28   1     0.18   0.22   0.04    -0.09  -0.12  -0.00    -0.13   0.17  -0.07
    29   1     0.00  -0.03   0.13     0.00  -0.04  -0.03    -0.07   0.20  -0.07
    30   1    -0.05  -0.05   0.02    -0.19  -0.23   0.07     0.08  -0.02   0.01
    31   1    -0.06   0.06   0.01    -0.19   0.18  -0.08     0.18   0.02   0.03
[...]
 1688,0.00005234,-0.00019145,-0.00010497,0.00005589,0.00039460,-0.00002
 038,0.00034436,-0.00047621,-0.00014004,0.00005410,0.00001259,0.0000177
 1,0.00001061,-0.00014056,-0.00003328,0.00001736,0.00003323,0.00005445,
 -0.00004951,-0.00006185,-0.00000983,-0.00025482,0.00014592,0.00015439,
 -0.00087114,0.00062004,-0.00134862,-0.00059896,0.00205595,0.00603145,0
 .00070384,-0.14382546,-0.18102380,-0.00178106,-0.01987531,-0.01455279,
 0.00551250,0.00021870,0.00043479,0.00031323,-0.00109325,-0.00156525,0.
 00016720,0.00071118,-0.00017716,0.00226076,-0.00041171,0.00214656,0.00
 034215,0.00045554,-0.00059750,-0.00004855,0.00000098,0.00004782,0.0006
 9200,0.00048049,0.00022430,-0.00004071,-0.00001752,0.00005113,0.000002
 31,-0.00001782,-0.00001253,-0.00002943,-0.00000683,-0.00000854,-0.0000
 0372,0.00001081,0.00001343,-0.00000158,0.00000162,-0.00000632,-0.00001
 304,-0.00001715,0.00001435,-0.00003389,0.00000668,0.00003733,0.0000123
 3,0.00003463,-0.00001991,-0.00001206,-0.00004591,0.00000050,-0.0052350
 4,0.15814490,0.19184363,-0.00006522,0.00002476,-0.00001238,0.00007900,
 -0.00005325,0.00001445,-0.00001924,0.00001921,-0.00002685,0.00000868,-
 0.00001733,0.00006500,-0.00000654,-0.00002102,-0.00000847,0.00003833,0
 .00001519,0.00001600,-0.00000044,0.00000970,-0.00002633,-0.00008409,-0
 .00006002,-0.00005207,-0.00014190,0.00018668,0.00024741,-0.00003529,-0
 .00092448,-0.00023896,0.00274124,-0.00120475,0.00532807,-0.00854028,-0
 .01388972,-0.00008663,-0.15944729,-0.14810606,0.02841632,0.00197354,-0
 .00032646,0.00227524,-0.00117112,0.00165941,-0.00233244,0.00304337,-0.
 00129936,0.00142422,-0.00011581,0.00063824,0.00009627,-0.00010200,-0.0
 0004398,-0.00012542,-0.00002215,0.00000751,0.00002107,-0.00001958,0.00
 000031,0.00002124,-0.00002572,-0.00000317,-0.00000858,0.00000914,0.000
 00716,0.00000075,-0.00000564,0.00000444,0.00000616,-0.00000648,0.00000
 213,0.00002307,0.00000394,0.00000202,-0.00000206,-0.00000213,0.0000004
 9,0.00000975,-0.00003093,0.00000125,0.00004267,0.00001939,0.00001659,-
 0.00000135,-0.00001865,-0.00002301,-0.00001919,-0.00153423,0.00193559,
 -0.00184513,0.16361034,-0.00002904,-0.00000287,0.00000036,0.00003891,0
 .00000580,0.00000375,-0.00000935,0.00001342,-0.00000217,0.00001281,-0.
 00006338,0.00001721,-0.00000123,-0.00000343,-0.00000510,0.00002267,-0.
 00002061,-0.00000706,-0.00001033,0.00001143,0.00001066,0.00002018,-0.0
 0002399,-0.00000994,0.00003326,0.00001417,0.00005578,-0.00005222,0.000
 14115,-0.00024746,-0.00171477,0.00320795,-0.00183907,0.00122036,0.0030
 5230,-0.00003398,-0.14713274,-0.22098000,0.01597714,-0.01711826,-0.013
 63314,0.00633605,0.00232777,0.00092736,0.00172437,-0.00066899,-0.00098
 586,-0.00507305,0.00086497,0.00018034,-0.00051801,-0.00002944,0.000044
 26,0.00008416,-0.00000637,0.00000179,0.00000936,0.00002497,-0.00000358
 ,-0.00001502,0.00000723,-0.00000351,-0.00000056,0.00000088,0.00000029,
 -0.00000327,-0.00000268,-0.00000113,0.00000682,-0.00000394,0.,0.000018
 73,0.00000247,-0.00000258,-0.00000241,-0.00000306,-0.00000224,0.000007
 69,-0.00000507,-0.00000055,0.00000833,-0.00001297,-0.00001966,-0.00000
 768,0.00001733,0.00000965,0.00000374,0.00169835,-0.00041306,0.00147879
 ,0.16117451,0.22945903,0.00003134,-0.00002223,0.00000244,-0.00005597,0
 .00005816,0.00000385,-0.00000054,-0.00004582,0.00000295,-0.00007443,0.
 00015873,0.00004054,0.00001442,0.00002354,0.00001229,-0.00003774,0.000
 00720,0.00000089,0.00001218,-0.00001145,0.00001301,0.00005214,0.000132
 13,0.00004522,0.00012263,-0.00013855,-0.00039429,0.00062750,0.00096611
 ,0.00056818,0.00481411,-0.00256181,-0.00186031,0.01506012,0.02101342,0
 .00148178,0.02942336,0.01737865,-0.05607436,-0.01460211,-0.01711513,0.
 00702242,-0.00165949,0.00265949,0.00095135,0.00206509,-0.00419344,-0.0
 0209625,0.00031914,-0.00020190,-0.00115068,0.00005116,-0.00000918,0.00
 003482,0.00001318,-0.00000512,-0.00001536,-0.00001390,-0.00005916,0.00
 000756,-0.00000762,-0.00001591,-0.00000289,-0.00000721,-0.00001237,-0.
 00000116,-0.00000036,-0.00000304,-0.00000676,0.00000470,-0.00000046,-0
 .00002868,-0.00000495,0.00000062,0.00000054,-0.00000236,-0.00000076,-0
 .00001207,0.00003528,-0.00000220,-0.00005431,-0.00000461,0.00003061,-0
 .00000106,-0.00000536,-0.00002134,0.00001061,-0.00208293,0.00115922,-0
 .00017938,-0.03305946,-0.01844089,0.05151051,-0.00004457,-0.00000844,-
 0.00000805,0.00006885,0.00001746,-0.00000839,-0.00001426,0.00004609,-0
 .00001795,0.00005460,-0.00009192,0.00010590,0.00000726,-0.00001891,-0.
 00000303,0.00008259,-0.00001993,0.00004092,0.00000178,0.00001233,0.000
 00745,-0.00000371,-0.00003441,-0.00000588,0.00001689,0.00011928,-0.000
 04419,0.00048343,0.00060946,0.00035268,0.00115131,-0.00303202,0.005027
 97,-0.00101550,-0.00009463,0.00040735,-0.00015028,-0.00462116,0.002811
 94,0.00436895,-0.01453053,-0.01501455,-0.00062744,0.00313964,-0.001860
 59,-0.04632666,-0.01345084,0.00596717,0.00360295,0.01562157,0.01251209
 ,-0.00022289,-0.00002615,0.00019088,-0.00001478,0.00000063,0.00001795,
 -0.00000853,0.00001927,-0.00000327,-0.00001610,0.00001292,-0.00001406,
 0.00000092,0.00000140,-0.00000210,-0.00000505,0.00000364,0.00000352,-0
 .00001996,-0.00000187,0.00003549,0.00000102,-0.00000023,-0.00000125,-0
 .00000734,-0.00000658,0.00000273,-0.00001517,-0.00000497,0.00001379,0.
 00004234,-0.00003378,-0.00000078,-0.00003058,-0.00001399,0.00001662,-0
 .00031661,0.00034312,-0.00031966,0.00023619,-0.00086352,-0.00071197,0.
 04014113,0.00003780,-0.00001053,0.00000403,-0.00004903,0.00002552,-0.0
 0000421,-0.00002081,-0.00000475,0.00000787,-0.00008496,0.00001200,0.00
 002273,-0.00000317,0.00000559,-0.00000460,-0.00002230,0.00001347,-0.00
 000162,0.00000935,-0.00000519,-0.00001039,-0.00001328,-0.00000824,0.00
 000162,0.00005890,-0.00002847,-0.00000529,-0.00015048,0.00021536,0.000
 12345,-0.00260122,0.00287201,-0.00047171,-0.00030447,-0.00002464,0.001
 05825,-0.00526103,-0.00152929,0.00058121,0.00228767,-0.01322573,-0.020
 56986,0.00248349,0.00098929,0.00176986,-0.01445231,-0.20016453,-0.1484
 5705,0.00055861,0.00530070,0.00321565,0.00004865,0.00000961,-0.0000722
 0,0.00000038,-0.00000192,-0.00000107,0.00000937,-0.00000972,0.00000886
 ,0.00000550,0.00000126,0.00000288,-0.00000023,0.00000021,0.00000261,0.
 00000484,-0.00000093,-0.00000343,0.00000533,-0.00000109,-0.00001219,0.
 00000018,-0.00000190,0.00000346,0.00000297,0.00000277,-0.00000742,0.00
 000467,0.00000172,-0.00000414,-0.00001467,-0.00000847,0.00002120,-0.00
 001700,0.00001435,-0.00002995,0.00033588,-0.00020076,0.00012742,0.0000
 0242,-0.00065050,-0.00100717,0.01523897,0.20679816,0.00007382,0.000024
 28,0.00001287,-0.00009165,-0.00005527,-0.00001528,0.00007744,-0.000064
 20,0.00003685,0.00010651,0.00012836,-0.00027392,0.00000338,0.00001840,
 0.00001955,-0.00009754,-0.00000903,-0.00002873,0.00000057,-0.00002816,
 0.00001474,0.00002547,0.00002753,0.00002683,-0.00010856,-0.00010381,-0
 .00004345,-0.00039333,-0.00092426,-0.00007906,0.00545249,0.00013154,-0
 .00052192,0.00020779,0.00076314,-0.00017730,0.00216389,-0.00030126,0.0
 0187007,0.00187570,0.00288469,0.00435008,-0.00251935,0.00085252,0.0001
 3943,0.00497472,-0.14988660,-0.18991753,-0.00263551,-0.01778875,-0.012
 87967,0.00024099,-0.00005585,-0.00002086,0.00003410,-0.00000185,-0.000
 04335,-0.00001572,0.00000162,-0.00000546,0.00000536,0.00000114,0.00001
 478,-0.00000528,0.00000037,0.00000311,0.00000486,-0.00000227,-0.000011
 99,0.00001975,0.00000111,-0.00004224,-0.00000903,0.00000922,0.00000028
 ,0.00000713,0.00000400,-0.00000736,0.00002449,0.00000863,-0.00002347,0
 .00001372,0.00002206,-0.00001150,0.00001566,-0.00000304,0.00004104,-0.
 00032814,0.00011809,-0.00021757,0.00015808,0.00020169,0.00032901,-0.00
 745858,0.16262113,0.19765436,-0.00002921,0.00001594,-0.00003338,-0.000
 01963,-0.00005437,0.00012405,-0.00003151,0.00014405,-0.00006858,-0.000
 21070,0.00003141,0.00042479,-0.00001364,0.00000555,-0.00000169,-0.0001
 9277,0.00002313,-0.00010818,0.00007425,-0.00005136,-0.00001978,-0.0002
 0733,0.00054565,0.00008714,-0.00052616,0.00010545,0.00251811,-0.002439
 77,0.00100546,-0.00105766,0.00338604,-0.00046000,-0.00059216,0.0034841
 4,-0.00155510,0.00175938,-0.00015642,0.00066558,0.00006302,0.00313795,
 -0.00116599,0.00507256,-0.00093881,-0.00089071,0.00045081,-0.00916004,
 -0.01551847,0.00093497,-0.15595568,-0.14584849,0.02113734,0.00052862,-
 0.00028541,-0.00041008,-0.00001113,-0.00000916,0.00002785,-0.00000058,
 -0.00000471,-0.00001506,-0.00001197,0.00002157,0.00000445,-0.00000104,
 0.00000185,0.00000315,0.00000482,-0.00000226,-0.00000639,0.00004082,-0
 .00000455,-0.00006679,-0.00000764,0.00002050,-0.00001190,-0.00000712,0
 .00000459,-0.00002102,0.00003976,-0.00001368,-0.00003816,-0.00036625,0
 .00040132,0.00015421,-0.00117950,0.00018409,0.00136442,0.00024733,-0.0
 0000608,0.00017121,-0.00041646,0.00023030,-0.00029538,-0.00141507,0.00
 188396,-0.00178401,0.16240634,-0.00007206,0.00015812,-0.00001273,0.000
 04157,-0.00043217,0.00009982,0.00013637,-0.00006825,0.00000152,0.00014
 064,0.00007418,-0.00055293,-0.00001206,-0.00001508,-0.00002463,0.00003
 392,-0.00003651,0.00006573,-0.00019852,0.00002195,0.00008043,0.0003986
 0,0.00056617,0.00034622,-0.00107470,0.00027197,0.00046507,0.00022995,-
 0.00124389,0.00241746,-0.01425441,-0.01354518,0.00291036,-0.00104342,-
 0.00077118,-0.00522574,0.00074136,0.00016468,-0.00026818,-0.00176614,0
 .00332086,-0.00189261,-0.00007463,-0.00000438,0.00008162,0.00013594,0.
 00209657,-0.00083364,-0.14534718,-0.22707914,0.01029833,-0.00013888,0.
 00008985,0.00013431,0.00003415,0.00002162,-0.00004860,-0.00000722,0.00
 012386,0.00005686,0.00004448,-0.00004787,0.00002464,0.00001006,0.00002
 573,0.00001031,0.00000208,-0.00000637,-0.00000366,0.00000744,0.0000198
 9,0.00002059,0.00001420,0.00000063,-0.00000985,0.00006431,0.00001765,0
 .00009220,0.00001015,-0.00000788,-0.00003065,-0.00054606,0.00043721,0.
 00050405,0.00095116,0.00002698,0.00031870,-0.00091899,-0.00074950,0.00
 016136,0.00021983,-0.00021593,0.00027823,0.00166009,-0.00038441,0.0013
 9010,0.16052960,0.23709124,-0.00023337,0.00017046,-0.00006260,0.000209
 52,-0.00044153,0.00015732,-0.00004655,0.00013868,-0.00007901,0.0000205
 8,0.00002316,0.00046080,-0.00000589,-0.00000815,-0.00003785,-0.0000978
 5,-0.00002052,-0.00007988,-0.00009052,-0.00005314,-0.00003093,-0.00003
 659,0.00037161,-0.00016978,0.00132334,-0.00102712,-0.00181586,-0.00190
 892,0.00129191,0.00000949,-0.01431966,-0.01627708,0.00687691,0.0022545
 7,-0.00452207,-0.00179663,0.00013354,-0.00017522,-0.00096372,0.0045099
 3,-0.00269558,-0.00134071,0.00126994,0.00121937,-0.00052839,0.01669053
 ,0.02102229,0.00059327,0.02153479,0.01090356,-0.05480234,0.00027349,0.
 00001329,-0.00030356,-0.00002390,0.00002761,0.00003596,-0.00004094,0.0
 0016211,0.00002649,-0.00002035,-0.00002542,0.00000961,0.00001420,0.000
 02408,0.00000633,-0.00000171,-0.00000275,0.00000485,0.00003998,0.00001
 732,-0.00000973,0.00001162,0.00001974,-0.00002581,0.00002765,0.0000161
 5,0.00006599,-0.00002840,-0.00001496,0.00004119,0.00059611,0.00054541,
 -0.00167652,0.00072563,-0.00003217,-0.00045187,-0.00075106,-0.00110874
 ,0.00029875,-0.00030826,0.00026140,-0.00010626,-0.00202229,0.00106966,
 -0.00017921,-0.02971807,-0.01097179,0.05579109,-0.00001069,-0.00037430
 ,-0.00000260,0.00020886,0.00096454,0.00000226,0.00047518,-0.00043979,-
 0.00001741,-0.00116548,-0.00135002,-0.00357661,-0.00114738,-0.00158631
 ,0.00385203,-0.01186701,0.01546610,0.00003457,0.00032376,0.00143542,-0
 .00074872,-0.00010924,-0.00049756,-0.00000671,0.00027222,0.00150202,0.
 00070087,-0.01149548,0.01479745,-0.00122570,0.00010009,-0.00051225,0.0
 0099890,0.00031742,-0.00016936,-0.00024087,-0.00015031,0.00020405,0.00
 014007,-0.00007665,-0.00011391,-0.00008598,0.00002200,-0.00000730,0.00
 003137,0.00002845,0.00000725,-0.00012590,0.00023936,-0.00005424,-0.000
 05954,-0.13543383,0.11866342,0.00002003,0.00000554,-0.00001639,0.00000
 209,0.00006418,0.00020968,0.00003546,-0.00056521,0.00102543,-0.0000062
 1,0.00012398,0.00023954,-0.00003108,-0.00057912,0.00108546,-0.00006282
 ,0.00081480,-0.00033932,-0.00000564,-0.00007757,-0.00095412,0.00021853
 ,0.00041307,-0.00020452,0.00001131,-0.00005752,-0.00003869,-0.00000198
 ,-0.00011965,-0.00093394,-0.00026602,0.00038722,-0.00023199,0.00002393
 ,0.00008330,0.00001477,0.00000040,0.00000605,-0.00000195,-0.00000969,0
 .00000733,0.00000748,-0.00002074,-0.00001979,-0.00002862,-0.00004386,0
 .14655888,0.00018159,0.00015691,-0.00000246,-0.00026959,-0.00039413,0.
 00000593,-0.00012110,0.00010346,0.00002284,-0.00024640,0.00107111,0.00
 056596,-0.00042703,0.00103758,-0.00062591,-0.00103519,-0.00029467,-0.0
 0029949,-0.00063297,0.00060466,0.00031267,0.00013519,0.00004211,-0.000
 01264,-0.00072269,0.00055231,-0.00028801,-0.00024956,-0.00104180,0.000
 29812,0.00016460,0.00055738,-0.00038975,-0.00040710,-0.00048737,-0.000
 08998,-0.00001497,0.00014674,0.00010317,-0.00001181,-0.00006547,0.0000
 4016,-0.00003930,0.00002859,0.00004013,0.00001299,0.00006531,0.0000320
 1,-0.00018866,0.00011846,0.00028742,0.11933239,-0.21966468,0.00035626,
 0.00004179,-0.00003753,-0.00000743,-0.00013984,0.00034783,-0.00013823,
 0.00032167,0.00011389,-0.00003503,-0.00012230,0.00042989,0.00012472,0.
 00033876,0.00012910,0.00010331,0.00004176,0.00010227,-0.00055123,0.000
 19454,0.00055083,0.00006477,-0.00003506,0.00020734,-0.00010297,0.00000
 473,0.00001942,0.00000119,0.00012646,0.00052313,-0.00008099,-0.0000271
 0,0.00018924,0.00010452,0.00015046,0.00015776,0.00002095,0.00001168,-0
 .00002416,0.00001246,-0.00000535,0.00000044,0.00002035,0.00003342,0.00
 000456,-0.00000270,-0.13176226,0.23625428,-0.00001501,0.00001855,-0.00
 002424,0.00001819,-0.00005219,-0.00005088,0.00007892,-0.00004563,-0.00
 043553,-0.00314240,-0.00109045,-0.00535334,0.00324294,0.00136120,-0.00
 500446,0.01659525,-0.02334767,0.00022526,-0.00066112,-0.00103817,0.001
 04599,-0.00002141,0.00000479,-0.00026638,0.00074123,0.00112500,0.00101
 763,-0.01637235,0.02317338,-0.00176026,-0.00092950,0.00072305,0.001718
 40,0.00037354,0.00012379,-0.00000228,0.00001389,0.00005770,0.00007036,
 0.00001575,-0.00002409,-0.00011966,-0.00006700,-0.00001729,0.00009624,
 0.00001827,-0.00004811,-0.00009143,0.00013411,-0.00031821,0.00001003,0
 .00034351,-0.00026298,-0.04778890,0.00001887,0.00000045,0.00029794,0.0
 0023017,-0.00020390,0.00001041,-0.00145407,0.00150473,0.00021019,-0.00
 024812,0.00030797,-0.00001460,0.00140382,-0.00144105,0.00010615,-0.000
 82205,-0.00018241,0.00090563,-0.00006194,0.00071286,0.00006176,-0.0004
 0702,-0.00001741,-0.00007400,-0.00000519,0.00000272,0.00010075,0.00005
 294,-0.00068432,0.00009518,0.00036068,-0.00000569,-0.00003096,-0.00009
 658,-0.00006229,0.00001309,-0.00000209,0.00000363,-0.00001464,-0.00000
 401,0.00000869,-0.00000665,-0.00003152,0.00000115,-0.00003210,0.000245
 37,0.00010732,0.05526434,-0.00002977,0.00036761,-0.00000562,0.00022448
 ,-0.00094500,0.00001657,-0.00009906,0.00046819,-0.00000306,0.00046002,
 -0.00136727,0.00065005,0.00026793,-0.00142455,-0.00076301,-0.01244069,
 -0.01547484,0.00007839,-0.00114387,0.00164390,0.00384022,0.00044548,0.
 00039401,-0.00004171,-0.00109241,0.00158556,-0.00359208,-0.01184961,-0
 .01484964,-0.00105155,-0.00018847,0.00072588,0.00102786,-0.00002611,-0
 .00083512,0.00060062,0.00028137,0.00021295,-0.00003007,0.00004482,0.00
 019538,0.00007008,-0.00002797,0.00003784,0.00002975,-0.00014055,-0.000
 03822,0.00019543,0.00019987,-0.00027314,-0.00028603,-0.14066147,-0.121
 16028,-0.00328581,-0.00005481,0.00003898,0.00000066,-0.00007119,0.0008
 2659,-0.00018275,0.00032982,0.00018897,0.00000402,-0.00008215,0.000976
 78,0.00016685,0.00042778,0.00020553,0.00001889,0.00088430,0.00034406,-
 0.00002240,0.00012047,-0.00023149,-0.00002847,-0.00059129,-0.00107263,
 -0.00005671,-0.00000371,0.00002178,0.00001987,0.00010597,-0.00027624,0
 .00003243,-0.00058255,-0.00109642,-0.00000328,0.00032113,0.00040581,0.
 00042476,0.00004198,-0.00003106,-0.00001028,-0.00001306,0.00000850,-0.
 00001846,-0.00003180,0.00007700,0.00006276,0.01242324,0.01536625,0.000
 45394,0.15255189,-0.00018885,0.00016188,0.00000030,0.00026206,-0.00040
 850,-0.00000621,-0.00007597,0.00001026,0.00001710,0.00052407,0.0005897
 0,-0.00001615,0.00066031,0.00060340,-0.00032336,0.00089310,-0.00056058
 ,0.00025633,0.00039745,0.00103859,0.00070081,0.00011793,0.00008571,-0.
 00003551,0.00021582,0.00106493,-0.00055292,0.00088593,-0.00067299,-0.0
 0035534,-0.00075625,0.00009284,0.00048405,0.00015111,-0.00068999,0.000
 85696,0.00040397,0.00007412,-0.00010123,0.00002130,0.00020919,-0.00002
 636,-0.00000645,0.00004055,0.00001995,-0.00012625,-0.00000530,0.000209
 35,0.00010968,-0.00011605,-0.00038351,-0.12149155,-0.21514816,-0.00392
 161,0.00000111,0.00002002,-0.00001315,-0.00012787,0.00043773,0.0000643
 9,-0.00004014,0.00015615,-0.00007796,-0.00018062,0.00056025,-0.0000396
 6,0.00002539,0.00021296,0.00010242,-0.00001267,0.00012188,0.00054093,0
 .00012853,0.00044209,-0.00012910,-0.00037436,0.00011022,-0.00010033,-0
 .00004592,-0.00003303,0.00001274,0.00014165,0.00041832,0.00014333,-0.0
 0037386,0.00014701,0.00005539,-0.00018098,0.00050220,0.00098746,0.0000
 3350,-0.00001874,-0.00001065,0.00001338,-0.00000142,-0.00000560,0.0000
 1689,0.00007399,0.00008115,-0.01600580,-0.02150481,-0.00039511,0.13498
 436,0.23198560,-0.00003957,-0.00002691,-0.00002146,0.00005049,0.000084
 78,-0.00005400,-0.00007875,-0.00000591,-0.00026987,0.00096671,-0.00088
 944,0.00121589,-0.00062235,0.00100477,0.00096801,0.01745999,0.02307253
 ,0.00002685,0.00327920,-0.00137633,-0.00492946,0.00007638,0.00004425,-
 0.00046183,-0.00298666,0.00109820,-0.00540349,-0.01643918,-0.02277968,
 -0.00147163,-0.00060124,-0.00042103,0.00166985,-0.00009403,-0.00048230
 ,-0.00092109,0.00042747,0.00013465,-0.00021513,0.00020727,0.00030082,0
 .00008809,-0.00008783,0.00003533,0.00010783,-0.00030608,-0.00005939,0.
 00025536,0.00027559,-0.00029709,-0.00034370,-0.00242544,-0.00270789,-0
 .04700503,-0.00001558,-0.00000236,0.00009910,0.00000280,0.00062246,0.0
 0013900,0.00033926,0.00001530,-0.00007114,-0.00008696,-0.00067123,0.00
 010920,-0.00041222,0.00003141,-0.00006773,-0.00077511,0.00022078,0.000
 93860,-0.00024572,-0.00030580,-0.00001910,0.00140398,0.00140898,0.0000
 9368,0.00001614,-0.00000453,0.00028603,0.00021750,0.00021477,0.0000191
 9,-0.00148725,-0.00148626,0.00009290,0.00011377,0.00113976,-0.00138269
 ,-0.00001010,-0.00000398,-0.00003950,-0.00001383,0.00001173,-0.0000064
 5,-0.00001763,0.00011595,0.00011470,0.00022088,0.00000254,-0.00017904,
 0.00168813,0.00196110,0.05663806\\0.00017432,-0.00000993,0.00003564,-0
 .00014812,0.00003966,0.00003061,0.00000289,-0.00000525,-0.00007282,-0.
 00002191,0.00006993,0.00003976,0.00004003,0.00001147,0.00000157,0.0000
 2067,-0.00007149,-0.00004728,0.00001426,0.00001684,0.00000716,-0.00004
 213,-0.00004955,-0.00005938,0.00002030,0.00005451,0.00002078,0.0000171
 6,0.00000730,0.00001105,0.00004612,-0.00006982,0.00003127,0.00001179,0
 .00002378,-0.00004038,0.00000273,0.00002275,0.00000481,-0.00001617,-0.
 00000285,0.00000472,0.00000078,0.00000822,0.00000646,-0.00000359,-0.00
 002646,-0.00000305,-0.00001078,0.00001576,-0.00001042,-0.00000358,-0.0
 0002335,0.00004027,-0.00001813,0.00001152,-0.00000431,-0.00000406,0.00
 002503,-0.00000166,-0.00001078,0.00002095,-0.00000783,-0.00001825,0.00
 000261,-0.00000537,-0.00000838,0.00000849,0.00000728,0.00000477,0.0000
 0069,-0.00000585,-0.00000138,-0.00000135,-0.00000009,-0.00000106,-0.00
 000839,-0.00000921,-0.00001983,-0.00001982,-0.00000308,0.00000602,-0.0
 0000488,-0.00001284,-0.00001084,0.00000513,0.00000628,-0.00001397,-0.0
 0001289,-0.00001998,0.00001101,0.00000248,-0.00000491,0.00000455,-0.00
 000648,-0.00000117,-0.00001638,-0.00000568,0.00002006,0.00000381,-0.00
 001396,0.00000763,-0.00001187,-0.00001498,0.00003426\\\@


 MAN IS THE MEASURE OF ALL THINGS.
  -- PROTAGORAS (5TH CENTURY B.C.)
 Job cpu time:       0 days  0 hours  5 minutes 52.6 seconds.
 Elapsed time:       0 days  0 hours  6 minutes 24.0 seconds.
 File lengths (MBytes):  RWF=    383 Int=      0 D2E=      0 Chk=     16 Scr=      1
 Normal termination of Gaussian 16 at Fri Feb 23 22:57:02 2024.
