 Entering Gaussian System, Link 0=g16
 Input=/Volumes/SSD-PMU3/b3lyp_6-31gd_freq/QFVBBSYSSMMVFR-QBENWVRFSA-N_calculating/gaussianinput2.gjf
 Output=/Volumes/SSD-PMU3/b3lyp_6-31gd_freq/QFVBBSYSSMMVFR-QBENWVRFSA-N_calculating/gaussianinput2.log
 Initial command:
 /Applications/g16/l1.exe "/Users/macmini_m1_2022/PycharmProjects/sphere_model/sphere_model_lib/Gau-78300.inp" -scrdir="/Users/macmini_m1_2022/PycharmProjects/sphere_model/sphere_model_lib/"
 Entering Link 1 = /Applications/g16/l1.exe PID=     78301.
  
 Copyright (c) 1988,1990,1992,1993,1995,1998,2003,2009,2016,
            Gaussian, Inc.  All Rights Reserved.
  
 This is part of the Gaussian(R) 16 program.  It is based on
 the Gaussian(R) 09 system (copyright 2009, Gaussian, Inc.),
 the Gaussian(R) 03 system (copyright 2003, Gaussian, Inc.),
 the Gaussian(R) 98 system (copyright 1998, Gaussian, Inc.),
 the Gaussian(R) 94 system (copyright 1995, Gaussian, Inc.),
 the Gaussian 92(TM) system (copyright 1992, Gaussian, Inc.),
 the Gaussian 90(TM) system (copyright 1990, Gaussian, Inc.),
 the Gaussian 88(TM) system (copyright 1988, Gaussian, Inc.),
 the Gaussian 86(TM) system (copyright 1986, Carnegie Mellon
 University), and the Gaussian 82(TM) system (copyright 1983,
 Carnegie Mellon University). Gaussian is a federally registered
 trademark of Gaussian, Inc.
  
 This software contains proprietary and confidential information,
 including trade secrets, belonging to Gaussian, Inc.
  
 This software is provided under written license and may be
 used, copied, transmitted, or stored only in accord with that
 written license.
  
 The following legend is applicable only to US Government
 contracts under FAR:
  
                    RESTRICTED RIGHTS LEGEND
  
 Use, reproduction and disclosure by the US Government is
 subject to restrictions as set forth in subparagraphs (a)
 and (c) of the Commercial Computer Software - Restricted
 Rights clause in FAR 52.227-19.
  
 Gaussian, Inc.
 340 Quinnipiac St., Bldg. 40, Wallingford CT 06492
  
  
 ---------------------------------------------------------------
 Warning -- This program may not be used in any manner that
 competes with the business of Gaussian, Inc. or will provide
 assistance to any competitor of Gaussian, Inc.  The licensee
 of this program is prohibited from giving any competitor of
 Gaussian, Inc. access to this program.  By using this program,
 the user acknowledges that Gaussian, Inc. is engaged in the
 business of creating and licensing software in the field of
 computational chemistry and represents and warrants to the
 licensee that it is not a competitor of Gaussian, Inc. and that
 it will not use this program in any manner prohibited above.
 ---------------------------------------------------------------
  

 Cite this work as:
 Gaussian 16, Revision A.03,
 M. J. Frisch, G. W. Trucks, H. B. Schlegel, G. E. Scuseria, 
 M. A. Robb, J. R. Cheeseman, G. Scalmani, V. Barone, 
 G. A. Petersson, H. Nakatsuji, X. Li, M. Caricato, A. V. Marenich, 
 J. Bloino, B. G. Janesko, R. Gomperts, B. Mennucci, H. P. Hratchian, 
 J. V. Ortiz, A. F. Izmaylov, J. L. Sonnenberg, D. Williams-Young, 
 F. Ding, F. Lipparini, F. Egidi, J. Goings, B. Peng, A. Petrone, 
 T. Henderson, D. Ranasinghe, V. G. Zakrzewski, J. Gao, N. Rega, 
 G. Zheng, W. Liang, M. Hada, M. Ehara, K. Toyota, R. Fukuda, 
 J. Hasegawa, M. Ishida, T. Nakajima, Y. Honda, O. Kitao, H. Nakai, 
 T. Vreven, K. Throssell, J. A. Montgomery, Jr., J. E. Peralta, 
 F. Ogliaro, M. J. Bearpark, J. J. Heyd, E. N. Brothers, K. N. Kudin, 
 V. N. Staroverov, T. A. Keith, R. Kobayashi, J. Normand, 
 K. Raghavachari, A. P. Rendell, J. C. Burant, S. S. Iyengar, 
 J. Tomasi, M. Cossi, J. M. Millam, M. Klene, C. Adamo, R. Cammi, 
 J. W. Ochterski, R. L. Martin, K. Morokuma, O. Farkas, 
 J. B. Foresman, and D. J. Fox, Gaussian, Inc., Wallingford CT, 2016.
 
 ******************************************
 Gaussian 16:  EM64M-G16RevA.03 25-Dec-2016
                23-Feb-2024 
 ******************************************
 %nprocshared=10
 Will use up to   10 processors via shared memory.
 %mem=12GB
 %chk= 2.chk
 ---------------------
 # freq b3lyp/6-31g(d)
 ---------------------
 1/10=4,30=1,38=1/1,3;
 2/12=2,17=6,18=5,40=1/2;
 3/5=1,6=6,7=1,11=2,25=1,30=1,71=2,74=-5,140=1/1,2,3;
 4//1;
 5/5=2,38=5,98=1/2;
 8/6=4,10=90,11=11/1;
 11/6=1,8=1,9=11,15=111,16=1/1,2,10;
 10/6=1/2;
 6/7=2,8=2,9=2,10=2,28=1/1;
 7/8=1,10=1,25=1/1,2,3,16;
 1/10=4,30=1/3;
 99//99;
 ---------
 good luck
 ---------
 Symbolic Z-matrix:
 Charge =  0 Multiplicity = 1
 O                     1.21615   0.        0. 
 C                     0.        0.        0. 
 C                    -0.84879  -1.26804   0.00314 
 C                    -1.73194  -1.26156   1.27534 
 C                    -1.75308  -1.25733  -1.25266 
 C                    -2.64274   0.       -1.23049 
 C                    -1.75308   1.25733  -1.25266 
 C                    -0.84879   1.26804   0.00314 
 C                    -1.73194   1.26156   1.27534 
 C                    -2.64268   0.        1.32154 
 C                    -3.47588   0.        2.61058 
 C                    -2.8333    0.00004   3.86189 
 C                    -3.5474    0.00005   5.05769 
 C                    -4.93636   0.00002   5.00572 
 F                    -5.63867   0.00004   6.15907 
 C                    -5.61484  -0.00001   3.79638 
 C                    -4.87821  -0.00002   2.6093 
 C                    -3.51547   0.        0.04105 
 H                    -0.17922  -2.13418   0.00264 
 H                    -1.09362  -1.30148   2.16591 
 H                    -2.35488  -2.16574   1.29385 
 H                    -1.13912  -1.27561  -2.1625 
 H                    -2.3708   -2.16556  -1.2637 
 H                    -3.2966    0.       -2.11209 
 H                    -1.13912   1.27561  -2.1625 
 H                    -2.3708    2.16556  -1.2637 
 H                    -0.17922   2.13418   0.00264 
 H                    -1.09362   1.30148   2.16591 
 H                    -2.35488   2.16574   1.29385 
 H                    -1.74832   0.00007   3.91431 
 H                    -3.04482   0.00008   6.0195 
 H                    -6.70004  -0.00003   3.78848 
 H                    -5.42477  -0.00005   1.67323 
 H                    -4.1686   -0.88287   0.03435 
 H                    -4.16859   0.88287   0.03435 
 

 GradGradGradGradGradGradGradGradGradGradGradGradGradGradGradGradGradGrad
 Berny optimization.
 Initialization pass.
 Trust Radius=3.00D-01 FncErr=1.00D-07 GrdErr=1.00D-07 EigMax=2.50D+02 EigMin=1.00D-04
 Number of steps in this run=      2 maximum allowed number of steps=      2.
 GradGradGradGradGradGradGradGradGradGradGradGradGradGradGradGradGradGrad

                          Input orientation:                          
 ---------------------------------------------------------------------
 Center     Atomic      Atomic             Coordinates (Angstroms)
 Number     Number       Type             X           Y           Z
 ---------------------------------------------------------------------
      1          8           0        1.216145    0.000000    0.000000
      2          6           0        0.000000    0.000000    0.000000
      3          6           0       -0.848794   -1.268039    0.003142
      4          6           0       -1.731944   -1.261561    1.275336
      5          6           0       -1.753081   -1.257331   -1.252659
      6          6           0       -2.642744    0.000000   -1.230488
      7          6           0       -1.753081    1.257331   -1.252659
      8          6           0       -0.848794    1.268039    0.003142
      9          6           0       -1.731944    1.261561    1.275336
     10          6           0       -2.642677    0.000000    1.321544
     11          6           0       -3.475875    0.000002    2.610580
     12          6           0       -2.833295    0.000041    3.861893
     13          6           0       -3.547395    0.000052    5.057692
     14          6           0       -4.936362    0.000024    5.005725
     15          9           0       -5.638668    0.000035    6.159073
     16          6           0       -5.614839   -0.000011    3.796378
     17          6           0       -4.878208   -0.000022    2.609299
     18          6           0       -3.515469    0.000000    0.041054
     19          1           0       -0.179222   -2.134183    0.002639
     20          1           0       -1.093622   -1.301475    2.165907
     21          1           0       -2.354876   -2.165738    1.293853
     22          1           0       -1.139118   -1.275613   -2.162498
     23          1           0       -2.370803   -2.165559   -1.263695
     24          1           0       -3.296599    0.000000   -2.112091
     25          1           0       -1.139118    1.275612   -2.162498
     26          1           0       -2.370803    2.165559   -1.263695
     27          1           0       -0.179222    2.134183    0.002638
     28          1           0       -1.093624    1.301475    2.165908
     29          1           0       -2.354876    2.165738    1.293853
     30          1           0       -1.748324    0.000065    3.914313
     31          1           0       -3.044818    0.000082    6.019500
     32          1           0       -6.700040   -0.000030    3.788482
     33          1           0       -5.424771   -0.000048    1.673229
     34          1           0       -4.168596   -0.882869    0.034349
     35          1           0       -4.168594    0.882870    0.034347
 ---------------------------------------------------------------------
                    Distance matrix (angstroms):
                    1          2          3          4          5
     1  O    0.000000
     2  C    1.216145   0.000000
     3  C    2.423202   1.525904   0.000000
     4  C    3.450978   2.493521   1.548701   0.000000
     5  C    3.459240   2.494660   1.547542   2.528087   0.000000
     6  C    4.050324   2.915167   2.519528   2.949618   1.540413
     7  C    3.459240   2.494660   2.961801   3.568756   2.514662
     8  C    2.423202   1.525904   2.536078   2.966026   2.961801
     9  C    3.450978   2.493521   2.966026   2.523122   3.568756
    10  C    4.078846   2.954695   2.562054   1.556633   2.999797
    11  C    5.369374   4.347049   3.912571   2.532926   4.412881
    12  C    5.595729   4.789758   4.520645   3.081378   5.376475
    13  C    6.947774   6.177723   5.868473   4.381067   6.679903
    14  C    7.931622   7.030288   6.583467   5.076977   7.133133
    15  F    9.215348   8.350375   7.902303   6.380047   8.462418
    16  C    7.815039   6.777824   6.221874   4.798337   6.479722
    17  C    6.629448   5.532211   4.963476   3.642789   5.124643
    18  C    4.731792   3.515709   2.953052   2.509173   2.522020
    19  H    2.549861   2.141697   1.094775   2.189103   2.195831
    20  H    3.423451   2.753361   2.176835   1.096433   3.481871
    21  H    4.372261   3.451075   2.177173   1.098145   2.769853
    22  H    3.442506   2.757023   2.185027   3.488602   1.097767
    23  H    4.376387   3.450692   2.174150   2.769843   1.098445
    24  H    4.982548   3.915162   3.474749   3.938825   2.168399
    25  H    3.442506   2.757023   3.353274   4.313629   2.760536
    26  H    4.376387   3.450692   3.963708   4.312768   3.478200
    27  H    2.549861   2.141697   3.467483   3.944843   3.944004
    28  H    3.423453   2.753363   3.367477   2.787423   4.320761
    29  H    4.372261   3.451075   3.965481   3.483499   4.308629
    30  H    4.910186   4.287013   4.208860   2.925093   5.317769
    31  H    7.374970   6.745761   6.528952   5.081582   7.492261
    32  H    8.776023   7.696956   7.083341   5.708707   7.174002
    33  H    6.848464   5.676957   5.033543   3.922589   4.860338
    34  H    5.456746   4.261201   3.342217   2.760567   2.762485
    35  H    5.456744   4.261199   3.955813   3.475040   3.474413
                    6          7          8          9         10
     6  C    0.000000
     7  C    1.540413   0.000000
     8  C    2.519528   1.547542   0.000000
     9  C    2.949618   2.528087   1.548701   0.000000
    10  C    2.552032   2.999797   2.562054   1.556633   0.000000
    11  C    3.930383   4.412880   3.912570   2.532924   1.534872
    12  C    5.095945   5.376456   4.520622   3.081344   2.547491
    13  C    6.352921   6.679883   5.868451   4.381037   3.844128
    14  C    6.644625   7.133125   6.583457   5.076965   4.339836
    15  F    7.973780   8.462408   7.902292   6.380033   5.690136
    16  C    5.839754   6.479727   6.221879   4.798342   3.867629
    17  C    4.443114   5.124654   4.963488   3.642805   2.579905
    18  C    1.542228   2.522020   2.953052   2.509173   1.549652
    19  H    3.484864   3.944005   3.467483   3.944842   3.516086
    20  H    3.953368   4.320760   3.367476   2.787423   2.192341
    21  H    3.338501   4.308629   3.965481   3.483499   2.184952
    22  H    2.180991   2.760537   3.353275   4.313629   4.003302
    23  H    2.182819   3.478200   3.963708   4.312768   3.383345
    24  H    1.097611   2.168399   3.474749   3.938825   3.495349
    25  H    2.180991   1.097767   2.185027   3.488602   4.003302
    26  H    2.182819   1.098445   2.174150   2.769843   3.383345
    27  H    3.484864   2.195831   1.094775   2.189104   3.516086
    28  H    3.953368   3.481872   2.176836   1.096432   2.192340
    29  H    3.338501   2.769853   2.177173   1.098145   2.184952
    30  H    5.221969   5.317738   4.208821   2.925037   2.742685
    31  H    7.261129   7.492233   6.528920   5.081541   4.715136
    32  H    6.453814   7.174013   7.083352   5.708721   4.748471
    33  H    4.021349   4.860363   5.033567   3.922620   2.804234
    34  H    2.169676   3.474415   3.955814   3.475040   2.182832
    35  H    2.169674   2.762482   3.342215   2.760566   2.182833
                   11         12         13         14         15
    11  C    0.000000
    12  C    1.406660   0.000000
    13  C    2.448157   1.392794   0.000000
    14  C    2.805306   2.394001   1.389939   0.000000
    15  F    4.155656   3.625900   2.363570   1.350350   0.000000
    16  C    2.445666   2.782315   2.421825   1.386669   2.362815
    17  C    1.402334   2.398054   2.786699   2.397132   3.630316
    18  C    2.569831   3.881259   5.016740   5.164000   6.475966
    19  H    4.714236   5.147121   6.438409   7.226070   8.500713
    20  H    2.750765   2.756225   4.009663   4.952284   6.188436
    21  H    2.771433   3.393275   4.503247   5.013241   6.256535
    22  H    5.465336   6.386769   7.717400   8.211561   9.545772
    23  H    4.573931   5.583491   6.784849   7.111784   8.394416
    24  H    4.726072   5.991923   7.174168   7.304254   8.596362
    25  H    5.465335   6.386752   7.717383   8.211553   9.545763
    26  H    4.573929   5.583459   6.784816   7.111769   8.394398
    27  H    4.714235   5.147088   6.438375   7.226057   8.500696
    28  H    2.750761   2.756184   4.009627   4.952269   6.188420
    29  H    2.771429   3.393222   4.503197   5.013221   6.256511
    30  H    2.164290   1.086237   2.131659   3.369683   4.491517
    31  H    3.436065   2.167951   1.085200   2.146084   2.597602
    32  H    3.432593   3.867442   3.398539   2.142951   2.597347
    33  H    2.162596   3.392049   3.870288   3.368096   4.490941
    34  H    2.810034   4.148813   5.138036   5.107205   6.360257
    35  H    2.810034   4.148797   5.138020   5.107199   6.360250
                   16         17         18         19         20
    16  C    0.000000
    17  C    1.397062   0.000000
    18  C    4.302303   2.907394   0.000000
    19  H    6.963697   5.781850   3.960651   0.000000
    20  H    4.979322   4.026595   3.474792   2.491838   0.000000
    21  H    4.645467   3.576021   2.758061   2.530158   1.760168
    22  H    7.560915   6.194996   3.482797   2.519198   4.328721
    23  H    6.388874   5.096736   2.775297   2.531326   3.760319
    24  H    6.346987   4.979258   2.164241   4.329533   4.984798
    25  H    7.560919   6.195005   3.482797   4.151617   5.037711
    26  H    6.388881   5.096754   2.775297   4.989430   5.041199
    27  H    6.963704   5.781867   3.960651   4.268366   4.161683
    28  H    4.979326   4.026607   3.474791   4.161684   2.602950
    29  H    4.645477   3.576048   2.758061   4.988990   3.791148
    30  H    3.868313   3.391052   4.257339   4.724224   2.275866
    31  H    3.398129   3.871794   5.996943   6.997810   4.511252
    32  H    1.085230   2.170148   4.917795   7.836344   5.979835
    33  H    2.131640   1.083955   2.511858   5.904336   4.549208
    34  H    4.126005   2.813065   1.098216   4.181136   3.764869
    35  H    4.126013   2.813082   1.098215   5.001870   4.332478
                   21         22         23         24         25
    21  H    0.000000
    22  H    3.770511   0.000000
    23  H    2.557598   1.765474   0.000000
    24  H    4.144601   2.506881   2.503302   0.000000
    25  H    5.026661   2.551225   3.763848   2.506881   0.000000
    26  H    5.030054   3.763849   4.331118   2.503302   1.765475
    27  H    4.988991   4.151617   4.989430   4.329533   2.519198
    28  H    3.791148   5.037713   5.041199   4.984798   4.328722
    29  H    4.331476   5.026662   5.030054   4.144601   3.770511
    30  H    3.453320   6.239080   5.647050   6.222114   6.239053
    31  H    5.243905   8.497304   7.628186   8.135488   8.497280
    32  H    5.458380   8.244097   6.996878   6.811767   8.244106
    33  H    3.776029   5.891238   4.758328   4.342553   5.891259
    34  H    2.553759   3.762728   2.561693   2.479323   4.320059
    35  H    3.764298   4.320058   3.769600   2.479321   3.762725
                   26         27         28         29         30
    26  H    0.000000
    27  H    2.531326   0.000000
    28  H    3.760320   2.491841   0.000000
    29  H    2.557598   2.530159   1.760167   0.000000
    30  H    5.647000   4.724166   2.275790   3.453238   0.000000
    31  H    7.628140   6.997761   4.511203   5.243837   2.472389
    32  H    6.996897   7.836361   5.979846   5.458404   4.953315
    33  H    4.758371   5.904371   4.549234   3.776084   4.305661
    34  H    3.769601   5.001871   4.332477   3.764297   4.657404
    35  H    2.561690   4.181134   3.764867   2.553758   4.657380
                   31         32         33         34         35
    31  H    0.000000
    32  H    4.282300   0.000000
    33  H    4.955224   2.469941   0.000000
    34  H    6.153415   4.613147   2.245724   0.000000
    35  H    6.153393   4.613162   2.245765   1.765739   0.000000
 Stoichiometry    C16H17FO
 Framework group  C1[X(C16H17FO)]
 Deg. of freedom    99
 Full point group                 C1      NOp   1
 Largest Abelian subgroup         C1      NOp   1
 Largest concise Abelian subgroup C1      NOp   1
                         Standard orientation:                         
 ---------------------------------------------------------------------
 Center     Atomic      Atomic             Coordinates (Angstroms)
 Number     Number       Type             X           Y           Z
 ---------------------------------------------------------------------
      1          8           0        3.564407   -2.132597   -0.000031
      2          6           0        2.841075   -1.154948   -0.000016
      3          6           0        2.333713   -0.474455   -1.268045
      4          6           0        0.785730   -0.521166   -1.261574
      5          6           0        2.805395    0.999413   -1.257310
      6          6           0        2.258418    1.701397    0.000031
      7          6           0        2.805385    0.999369    1.257352
      8          6           0        2.333703   -0.474499    1.268033
      9          6           0        0.785721   -0.521210    1.261548
     10          6           0        0.206898    0.183460   -0.000003
     11          6           0       -1.324913    0.086575   -0.000008
     12          6           0       -1.948644   -1.174239    0.000006
     13          6           0       -3.334666   -1.311410    0.000010
     14          6           0       -4.119013   -0.163921   -0.000001
     15          9           0       -5.463894   -0.285325    0.000002
     16          6           0       -3.550369    1.100790   -0.000012
     17          6           0       -2.157955    1.214662   -0.000016
     18          6           0        0.717160    1.646694    0.000025
     19          1           0        2.732365   -1.012405   -2.134197
     20          1           0        0.449465   -1.563997   -1.301508
     21          1           0        0.400344   -0.031394   -2.165744
     22          1           0        3.901977    1.047002   -1.275587
     23          1           0        2.446865    1.502575   -2.165530
     24          1           0        2.578236    2.751382    0.000051
     25          1           0        3.901968    1.046957    1.275638
     26          1           0        2.446848    1.502499    2.165588
     27          1           0        2.732350   -1.012479    2.134169
     28          1           0        0.449453   -1.564041    1.301442
     29          1           0        0.400328   -0.031469    2.165732
     30          1           0       -1.345471   -2.077617    0.000017
     31          1           0       -3.808936   -2.287487    0.000021
     32          1           0       -4.189471    1.977871   -0.000018
     33          1           0       -1.730537    2.210791   -0.000023
     34          1           0        0.334090    2.175741   -0.882837
     35          1           0        0.334086    2.175710    0.882902
 ---------------------------------------------------------------------
 Rotational constants (GHZ):           1.0894758           0.2369380           0.2202403
 Standard basis: 6-31G(d) (6D, 7F)
 There are   304 symmetry adapted cartesian basis functions of A   symmetry.
 There are   304 symmetry adapted basis functions of A   symmetry.
   304 basis functions,   572 primitive gaussians,   304 cartesian basis functions
    65 alpha electrons       65 beta electrons
       nuclear repulsion energy      1336.2454024017 Hartrees.
 NAtoms=   35 NActive=   35 NUniq=   35 SFac= 1.00D+00 NAtFMM=   60 NAOKFM=F Big=F
 Integral buffers will be    131072 words long.
 Raffenetti 2 integral format.
 Two-electron integral symmetry is turned on.
 One-electron integrals computed using PRISM.
 NBasis=   304 RedAO= T EigKep=  4.23D-04  NBF=   304
 NBsUse=   304 1.00D-06 EigRej= -1.00D+00 NBFU=   304
 ExpMin= 1.61D-01 ExpMax= 7.00D+03 ExpMxC= 1.05D+03 IAcc=3 IRadAn=         5 AccDes= 0.00D+00
 Harris functional with IExCor=  402 and IRadAn=       5 diagonalized for initial guess.
 HarFok:  IExCor=  402 AccDes= 0.00D+00 IRadAn=         5 IDoV= 1 UseB2=F ITyADJ=14
 ICtDFT=  3500011 ScaDFX=  1.000000  1.000000  1.000000  1.000000
 FoFCou: FMM=F IPFlag=           0 FMFlag=      100000 FMFlg1=           0
         NFxFlg=           0 DoJE=T BraDBF=F KetDBF=T FulRan=T
         wScrn=  0.000000 ICntrl=       500 IOpCl=  0 I1Cent=   200000004 NGrid=           0
         NMat0=    1 NMatS0=      1 NMatT0=    0 NMatD0=    1 NMtDS0=    0 NMtDT0=    0
 Petite list used in FoFCou.
 Requested convergence on RMS density matrix=1.00D-08 within 128 cycles.
 Requested convergence on MAX density matrix=1.00D-06.
 Requested convergence on             energy=1.00D-06.
 No special actions if energy rises.
 Integral accuracy reduced to 1.0D-05 until final iterations.
 Initial convergence to 1.0D-05 achieved.  Increase integral accuracy.
 SCF Done:  E(RB3LYP) =  -795.016476486     A.U. after   14 cycles
            NFock= 14  Conv=0.79D-08     -V/T= 2.0092
 DoSCS=F DFT=T ScalE2(SS,OS)=  1.000000  1.000000
 Range of M.O.s used for correlation:     1   304
 NBasis=   304 NAE=    65 NBE=    65 NFC=     0 NFV=     0
 NROrb=    304 NOA=    65 NOB=    65 NVA=   239 NVB=   239

 **** Warning!!: The largest alpha MO coefficient is  0.12598965D+02

 Symmetrizing basis deriv contribution to polar:
 IMax=3 JMax=2 DiffMx= 0.00D+00
 G2DrvN: will do    36 centers at a time, making    1 passes.
 Calling FoFCou, ICntrl=  3107 FMM=F I1Cent=   0 AccDes= 0.00D+00.
 End of G2Drv F.D. properties file   721 does not exist.
 End of G2Drv F.D. properties file   722 does not exist.
 End of G2Drv F.D. properties file   788 does not exist.
          IDoAtm=11111111111111111111111111111111111
          Differentiating once with respect to electric field.
                with respect to dipole field.
          Differentiating once with respect to nuclear coordinates.
 Keep R1 ints in memory in canonical form, NReq=1088850521.
          There are   108 degrees of freedom in the 1st order CPHF.  IDoFFX=6 NUNeed=     3.
    105 vectors produced by pass  0 Test12= 1.55D-14 1.00D-09 XBig12= 1.73D+02 6.99D+00.
 AX will form   105 AO Fock derivatives at one time.
    105 vectors produced by pass  1 Test12= 1.55D-14 1.00D-09 XBig12= 2.71D+01 1.21D+00.
    105 vectors produced by pass  2 Test12= 1.55D-14 1.00D-09 XBig12= 2.54D-01 6.22D-02.
    105 vectors produced by pass  3 Test12= 1.55D-14 1.00D-09 XBig12= 1.02D-03 7.36D-03.
    105 vectors produced by pass  4 Test12= 1.55D-14 1.00D-09 XBig12= 1.49D-06 1.52D-04.
     69 vectors produced by pass  5 Test12= 1.55D-14 1.00D-09 XBig12= 1.23D-09 4.82D-06.
      9 vectors produced by pass  6 Test12= 1.55D-14 1.00D-09 XBig12= 9.43D-13 1.58D-07.
      2 vectors produced by pass  7 Test12= 1.55D-14 1.00D-09 XBig12= 7.03D-16 2.70D-09.
 InvSVY:  IOpt=1 It=  1 EMax= 5.33D-15
 Solved reduced A of dimension   605 with   108 vectors.
 Isotropic polarizability for W=    0.000000      154.92 Bohr**3.
 End of Minotr F.D. properties file   721 does not exist.
 End of Minotr F.D. properties file   722 does not exist.
 End of Minotr F.D. properties file   788 does not exist.

 **********************************************************************

            Population analysis using the SCF density.

 **********************************************************************

 Orbital symmetries:
       Occupied  (A) (A) (A) (A) (A) (A) (A) (A) (A) (A) (A) (A)
                 (A) (A) (A) (A) (A) (A) (A) (A) (A) (A) (A) (A)
                 (A) (A) (A) (A) (A) (A) (A) (A) (A) (A) (A) (A)
                 (A) (A) (A) (A) (A) (A) (A) (A) (A) (A) (A) (A)
                 (A) (A) (A) (A) (A) (A) (A) (A) (A) (A) (A) (A)
                 (A) (A) (A) (A) (A)
       Virtual   (A) (A) (A) (A) (A) (A) (A) (A) (A) (A) (A) (A)
                 (A) (A) (A) (A) (A) (A) (A) (A) (A) (A) (A) (A)
                 (A) (A) (A) (A) (A) (A) (A) (A) (A) (A) (A) (A)
                 (A) (A) (A) (A) (A) (A) (A) (A) (A) (A) (A) (A)
                 (A) (A) (A) (A) (A) (A) (A) (A) (A) (A) (A) (A)
                 (A) (A) (A) (A) (A) (A) (A) (A) (A) (A) (A) (A)
                 (A) (A) (A) (A) (A) (A) (A) (A) (A) (A) (A) (A)
                 (A) (A) (A) (A) (A) (A) (A) (A) (A) (A) (A) (A)
                 (A) (A) (A) (A) (A) (A) (A) (A) (A) (A) (A) (A)
                 (A) (A) (A) (A) (A) (A) (A) (A) (A) (A) (A) (A)
                 (A) (A) (A) (A) (A) (A) (A) (A) (A) (A) (A) (A)
                 (A) (A) (A) (A) (A) (A) (A) (A) (A) (A) (A) (A)
                 (A) (A) (A) (A) (A) (A) (A) (A) (A) (A) (A) (A)
                 (A) (A) (A) (A) (A) (A) (A) (A) (A) (A) (A) (A)
                 (A) (A) (A) (A) (A) (A) (A) (A) (A) (A) (A) (A)
                 (A) (A) (A) (A) (A) (A) (A) (A) (A) (A) (A) (A)
                 (A) (A) (A) (A) (A) (A) (A) (A) (A) (A) (A) (A)
                 (A) (A) (A) (A) (A) (A) (A) (A) (A) (A) (A) (A)
                 (A) (A) (A) (A) (A) (A) (A) (A) (A) (A) (A) (A)
                 (A) (A) (A) (A) (A) (A) (A) (A) (A) (A) (A)
 The electronic state is 1-A.
 Alpha  occ. eigenvalues --  -24.70333 -19.13409 -10.27146 -10.26510 -10.21295
 Alpha  occ. eigenvalues --  -10.20225 -10.20024 -10.19963 -10.19896 -10.19823
 Alpha  occ. eigenvalues --  -10.19754 -10.19584 -10.19583 -10.19507 -10.19506
 Alpha  occ. eigenvalues --  -10.19375 -10.19374 -10.19077  -1.21463  -1.03232
 Alpha  occ. eigenvalues --   -0.88454  -0.86056  -0.79585  -0.78323  -0.76947
 Alpha  occ. eigenvalues --   -0.75681  -0.73051  -0.68076  -0.65695  -0.62479
 Alpha  occ. eigenvalues --   -0.61701  -0.60618  -0.58224  -0.57026  -0.54389
 Alpha  occ. eigenvalues --   -0.51288  -0.48732  -0.48530  -0.46455  -0.45746
 Alpha  occ. eigenvalues --   -0.45711  -0.45095  -0.44636  -0.44327  -0.43523
 Alpha  occ. eigenvalues --   -0.43250  -0.42239  -0.41071  -0.40577  -0.40457
 Alpha  occ. eigenvalues --   -0.39027  -0.37554  -0.36837  -0.36342  -0.36212
 Alpha  occ. eigenvalues --   -0.34583  -0.34304  -0.33748  -0.33687  -0.30976
 Alpha  occ. eigenvalues --   -0.30327  -0.29673  -0.26081  -0.23931  -0.23131
 Alpha virt. eigenvalues --   -0.01250  -0.01140  -0.00016   0.06452   0.08470
 Alpha virt. eigenvalues --    0.10953   0.11380   0.11806   0.12998   0.13042
 Alpha virt. eigenvalues --    0.13754   0.14393   0.14725   0.15425   0.16070
 Alpha virt. eigenvalues --    0.16483   0.17435   0.18201   0.18515   0.19001
 Alpha virt. eigenvalues --    0.19191   0.19739   0.19964   0.21717   0.22145
 Alpha virt. eigenvalues --    0.22338   0.23445   0.24545   0.25154   0.25882
 Alpha virt. eigenvalues --    0.27183   0.27518   0.28904   0.28955   0.33095
 Alpha virt. eigenvalues --    0.33464   0.33838   0.34891   0.36692   0.38481
 Alpha virt. eigenvalues --    0.48997   0.49554   0.50591   0.50844   0.51663
 Alpha virt. eigenvalues --    0.52733   0.53240   0.54228   0.55006   0.56063
 Alpha virt. eigenvalues --    0.56493   0.57947   0.58235   0.58902   0.60063
 Alpha virt. eigenvalues --    0.60505   0.61489   0.61575   0.62471   0.63956
 Alpha virt. eigenvalues --    0.64069   0.64392   0.66633   0.67055   0.67571
 Alpha virt. eigenvalues --    0.69082   0.69965   0.71141   0.71370   0.74375
 Alpha virt. eigenvalues --    0.75381   0.77110   0.77321   0.77774   0.78967
 Alpha virt. eigenvalues --    0.79556   0.81332   0.81639   0.82839   0.83841
 Alpha virt. eigenvalues --    0.85052   0.86031   0.86173   0.86586   0.87178
 Alpha virt. eigenvalues --    0.87860   0.87870   0.88864   0.89927   0.90297
 Alpha virt. eigenvalues --    0.91388   0.92966   0.94641   0.95433   0.96017
 Alpha virt. eigenvalues --    0.96178   0.97181   0.98355   0.98683   0.99441
 Alpha virt. eigenvalues --    1.01125   1.06404   1.09362   1.10473   1.13477
 Alpha virt. eigenvalues --    1.13620   1.14985   1.15844   1.16839   1.17457
 Alpha virt. eigenvalues --    1.18329   1.20968   1.22023   1.22481   1.23162
 Alpha virt. eigenvalues --    1.25956   1.28820   1.29009   1.33321   1.39857
 Alpha virt. eigenvalues --    1.41518   1.41861   1.41902   1.42293   1.44100
 Alpha virt. eigenvalues --    1.46112   1.47118   1.48333   1.50617   1.52646
 Alpha virt. eigenvalues --    1.55180   1.58238   1.60474   1.65023   1.65099
 Alpha virt. eigenvalues --    1.68995   1.69094   1.71636   1.73199   1.75015
 Alpha virt. eigenvalues --    1.75133   1.76545   1.76738   1.78704   1.78868
 Alpha virt. eigenvalues --    1.80446   1.81872   1.82417   1.83194   1.83693
 Alpha virt. eigenvalues --    1.86134   1.86642   1.88274   1.88486   1.91271
 Alpha virt. eigenvalues --    1.92717   1.93598   1.93943   1.95528   1.98663
 Alpha virt. eigenvalues --    1.99780   2.02542   2.04891   2.04924   2.05110
 Alpha virt. eigenvalues --    2.07605   2.07734   2.08485   2.11529   2.12669
 Alpha virt. eigenvalues --    2.13291   2.13524   2.14749   2.17494   2.19180
 Alpha virt. eigenvalues --    2.21013   2.23851   2.25131   2.25387   2.25930
 Alpha virt. eigenvalues --    2.27787   2.29983   2.30810   2.31779   2.32629
 Alpha virt. eigenvalues --    2.34974   2.34986   2.39330   2.40419   2.41956
 Alpha virt. eigenvalues --    2.42343   2.47635   2.48750   2.49066   2.49842
 Alpha virt. eigenvalues --    2.52210   2.53786   2.57847   2.60700   2.62204
 Alpha virt. eigenvalues --    2.64426   2.66372   2.66447   2.68242   2.69006
 Alpha virt. eigenvalues --    2.71022   2.73477   2.73845   2.75174   2.75384
 Alpha virt. eigenvalues --    2.76477   2.79398   2.80542   2.84694   2.97218
 Alpha virt. eigenvalues --    3.01247   3.02240   3.03286   3.10661   3.16899
 Alpha virt. eigenvalues --    3.40881   4.07974   4.10068   4.11566   4.13318
 Alpha virt. eigenvalues --    4.16978   4.26875   4.28415   4.31548   4.32240
 Alpha virt. eigenvalues --    4.38930   4.48821   4.57079   4.62575   4.72892
 Alpha virt. eigenvalues --    4.80062   4.82340   4.84536   5.31640
          Condensed to atoms (all electrons):
               1          2          3          4          5          6
     1  O    8.012946   0.578735  -0.073897   0.000897   0.001020   0.000057
     2  C    0.578735   4.516564   0.331351  -0.028951  -0.029335  -0.020525
     3  C   -0.073897   0.331351   5.235055   0.314878   0.338779  -0.027602
     4  C    0.000897  -0.028951   0.314878   5.177522  -0.038919  -0.015004
     5  C    0.001020  -0.029335   0.338779  -0.038919   5.095100   0.374602
     6  C    0.000057  -0.020525  -0.027602  -0.015004   0.374602   4.937008
     7  C    0.001020  -0.029335  -0.008175  -0.002547  -0.049026   0.374602
     8  C   -0.073897   0.331351  -0.125314  -0.006388  -0.008175  -0.027602
     9  C    0.000897  -0.028951  -0.006388  -0.056125  -0.002547  -0.015004
    10  C    0.000054  -0.019487  -0.020481   0.365898  -0.016363  -0.018886
    11  C    0.000001   0.000065   0.004229  -0.045880  -0.000070   0.003468
    12  C   -0.000001  -0.000057   0.000305  -0.008238  -0.000002  -0.000096
    13  C   -0.000000  -0.000000  -0.000001   0.000305   0.000000   0.000001
    14  C   -0.000000  -0.000000  -0.000000   0.000002  -0.000000   0.000000
    15  F    0.000000   0.000000   0.000000   0.000000   0.000000  -0.000000
    16  C    0.000000   0.000000   0.000001  -0.000139   0.000000  -0.000008
    17  C    0.000000   0.000001  -0.000062   0.000845  -0.000010   0.000545
    18  C   -0.000032  -0.003224  -0.012547  -0.056980  -0.045523   0.362369
    19  H    0.004261  -0.031468   0.344879  -0.030318  -0.031381   0.004202
    20  H    0.000794  -0.000813  -0.037862   0.361078   0.005122   0.000024
    21  H   -0.000079   0.003506  -0.029602   0.356508  -0.006164  -0.000787
    22  H    0.000704  -0.000925  -0.039236   0.005141   0.367967  -0.035226
    23  H   -0.000082   0.003535  -0.031211  -0.005866   0.360971  -0.033166
    24  H   -0.000000   0.000304   0.004663   0.000093  -0.038150   0.369864
    25  H    0.000704  -0.000925  -0.000041   0.000047  -0.004437  -0.035226
    26  H   -0.000082   0.003535  -0.000299   0.000103   0.005232  -0.033166
    27  H    0.004261  -0.031468   0.007057  -0.000087  -0.000060   0.004202
    28  H    0.000794  -0.000813   0.000460  -0.005771  -0.000011   0.000024
    29  H   -0.000079   0.003506  -0.000391   0.005849   0.000112  -0.000787
    30  H   -0.000001  -0.000047  -0.000113   0.000315  -0.000002  -0.000002
    31  H    0.000000  -0.000000  -0.000000   0.000000  -0.000000  -0.000000
    32  H    0.000000  -0.000000  -0.000000   0.000001   0.000000  -0.000000
    33  H    0.000000  -0.000001  -0.000006   0.000245  -0.000003   0.000002
    34  H    0.000000   0.000163  -0.001114  -0.005979  -0.003701  -0.035545
    35  H    0.000000   0.000163  -0.000166   0.006029   0.005170  -0.035545
               7          8          9         10         11         12
     1  O    0.001020  -0.073897   0.000897   0.000054   0.000001  -0.000001
     2  C   -0.029335   0.331351  -0.028951  -0.019487   0.000065  -0.000057
     3  C   -0.008175  -0.125314  -0.006388  -0.020481   0.004229   0.000305
     4  C   -0.002547  -0.006388  -0.056125   0.365898  -0.045880  -0.008238
     5  C   -0.049026  -0.008175  -0.002547  -0.016363  -0.000070  -0.000002
     6  C    0.374602  -0.027602  -0.015004  -0.018886   0.003468  -0.000096
     7  C    5.095100   0.338779  -0.038919  -0.016363  -0.000070  -0.000002
     8  C    0.338779   5.235055   0.314878  -0.020481   0.004229   0.000305
     9  C   -0.038919   0.314878   5.177523   0.365899  -0.045880  -0.008239
    10  C   -0.016363  -0.020481   0.365899   4.948249   0.360389  -0.051836
    11  C   -0.000070   0.004229  -0.045880   0.360389   4.710271   0.515921
    12  C   -0.000002   0.000305  -0.008239  -0.051836   0.515921   5.042195
    13  C    0.000000  -0.000001   0.000305   0.004927  -0.018030   0.453844
    14  C   -0.000000  -0.000000   0.000002   0.000292  -0.033243  -0.006194
    15  F    0.000000   0.000000   0.000000   0.000000  -0.000002   0.003188
    16  C    0.000000   0.000001  -0.000139   0.006739  -0.019807  -0.039791
    17  C   -0.000010  -0.000062   0.000845  -0.051664   0.548736  -0.051574
    18  C   -0.045523  -0.012547  -0.056980   0.369912  -0.041433   0.005433
    19  H   -0.000060   0.007057  -0.000087   0.003537  -0.000101  -0.000007
    20  H   -0.000011   0.000460  -0.005771  -0.031871  -0.009245   0.005188
    21  H    0.000112  -0.000391   0.005850  -0.032894  -0.001690  -0.000182
    22  H   -0.004437  -0.000041   0.000047   0.000197   0.000012  -0.000000
    23  H    0.005232  -0.000299   0.000103  -0.001154  -0.000092   0.000000
    24  H   -0.038150   0.004663   0.000093   0.004047  -0.000094   0.000002
    25  H    0.367967  -0.039236   0.005141   0.000197   0.000012  -0.000000
    26  H    0.360971  -0.031211  -0.005866  -0.001154  -0.000092   0.000000
    27  H   -0.031382   0.344879  -0.030318   0.003537  -0.000101  -0.000007
    28  H    0.005122  -0.037862   0.361078  -0.031871  -0.009246   0.005188
    29  H   -0.006164  -0.029602   0.356509  -0.032894  -0.001690  -0.000182
    30  H   -0.000002  -0.000113   0.000315  -0.007790  -0.044488   0.353656
    31  H   -0.000000  -0.000000   0.000000  -0.000129   0.003410  -0.038088
    32  H    0.000000  -0.000000   0.000001  -0.000124   0.003561   0.000192
    33  H   -0.000003  -0.000006   0.000245  -0.015943  -0.036663   0.006475
    34  H    0.005170  -0.000166   0.006029  -0.031033  -0.006088  -0.000081
    35  H   -0.003701  -0.001114  -0.005979  -0.031034  -0.006087  -0.000081
              13         14         15         16         17         18
     1  O   -0.000000  -0.000000   0.000000   0.000000   0.000000  -0.000032
     2  C   -0.000000  -0.000000   0.000000   0.000000   0.000001  -0.003224
     3  C   -0.000001  -0.000000   0.000000   0.000001  -0.000062  -0.012547
     4  C    0.000305   0.000002   0.000000  -0.000139   0.000845  -0.056980
     5  C    0.000000  -0.000000   0.000000   0.000000  -0.000010  -0.045523
     6  C    0.000001   0.000000  -0.000000  -0.000008   0.000545   0.362369
     7  C    0.000000  -0.000000   0.000000   0.000000  -0.000010  -0.045523
     8  C   -0.000001  -0.000000   0.000000   0.000001  -0.000062  -0.012547
     9  C    0.000305   0.000002   0.000000  -0.000139   0.000845  -0.056980
    10  C    0.004927   0.000292   0.000000   0.006739  -0.051664   0.369912
    11  C   -0.018030  -0.033243  -0.000002  -0.019807   0.548736  -0.041433
    12  C    0.453844  -0.006194   0.003188  -0.039791  -0.051574   0.005433
    13  C    5.122371   0.486117  -0.044337  -0.082617  -0.037600  -0.000145
    14  C    0.486117   4.447299   0.300327   0.491320  -0.004469  -0.000003
    15  F   -0.044337   0.300327   9.083114  -0.044269   0.003218   0.000000
    16  C   -0.082617   0.491320  -0.044269   5.148075   0.435113   0.000171
    17  C   -0.037600  -0.004469   0.003218   0.435113   5.030238  -0.010129
    18  C   -0.000145  -0.000003   0.000000   0.000171  -0.010129   5.153004
    19  H   -0.000000   0.000000  -0.000000  -0.000000   0.000000   0.000167
    20  H    0.000000  -0.000007   0.000000   0.000008  -0.000251   0.005707
    21  H   -0.000054  -0.000010   0.000000  -0.000027   0.001164  -0.005679
    22  H    0.000000   0.000000  -0.000000  -0.000000   0.000000   0.004974
    23  H    0.000000  -0.000000   0.000000  -0.000000  -0.000003  -0.003808
    24  H   -0.000000  -0.000000  -0.000000   0.000000   0.000001  -0.038662
    25  H    0.000000   0.000000  -0.000000  -0.000000   0.000000   0.004974
    26  H    0.000000  -0.000000   0.000000  -0.000000  -0.000003  -0.003808
    27  H   -0.000000   0.000000  -0.000000  -0.000000   0.000000   0.000167
    28  H    0.000000  -0.000007   0.000000   0.000008  -0.000251   0.005707
    29  H   -0.000054  -0.000010   0.000000  -0.000027   0.001164  -0.005679
    30  H   -0.038292   0.003393  -0.000026   0.000263   0.005958   0.000083
    31  H    0.347929  -0.034740  -0.001032   0.006764   0.000205   0.000001
    32  H    0.006781  -0.035141  -0.001047   0.347688  -0.038003   0.000003
    33  H    0.000184   0.003458  -0.000025  -0.045349   0.354160   0.008119
    34  H   -0.000001  -0.000007   0.000000   0.000039   0.001650   0.358262
    35  H   -0.000001  -0.000007   0.000000   0.000039   0.001650   0.358263
              19         20         21         22         23         24
     1  O    0.004261   0.000794  -0.000079   0.000704  -0.000082  -0.000000
     2  C   -0.031468  -0.000813   0.003506  -0.000925   0.003535   0.000304
     3  C    0.344879  -0.037862  -0.029602  -0.039236  -0.031211   0.004663
     4  C   -0.030318   0.361078   0.356508   0.005141  -0.005866   0.000093
     5  C   -0.031381   0.005122  -0.006164   0.367967   0.360971  -0.038150
     6  C    0.004202   0.000024  -0.000787  -0.035226  -0.033166   0.369864
     7  C   -0.000060  -0.000011   0.000112  -0.004437   0.005232  -0.038150
     8  C    0.007057   0.000460  -0.000391  -0.000041  -0.000299   0.004663
     9  C   -0.000087  -0.005771   0.005850   0.000047   0.000103   0.000093
    10  C    0.003537  -0.031871  -0.032894   0.000197  -0.001154   0.004047
    11  C   -0.000101  -0.009245  -0.001690   0.000012  -0.000092  -0.000094
    12  C   -0.000007   0.005188  -0.000182  -0.000000   0.000000   0.000002
    13  C   -0.000000   0.000000  -0.000054   0.000000   0.000000  -0.000000
    14  C    0.000000  -0.000007  -0.000010   0.000000  -0.000000  -0.000000
    15  F   -0.000000   0.000000   0.000000  -0.000000   0.000000  -0.000000
    16  C   -0.000000   0.000008  -0.000027  -0.000000  -0.000000   0.000000
    17  C    0.000000  -0.000251   0.001164   0.000000  -0.000003   0.000001
    18  C    0.000167   0.005707  -0.005679   0.004974  -0.003808  -0.038662
    19  H    0.598567  -0.002783  -0.003833  -0.002458  -0.003974  -0.000145
    20  H   -0.002783   0.592105  -0.034530  -0.000160  -0.000059   0.000017
    21  H   -0.003833  -0.034530   0.593964  -0.000044   0.005685  -0.000097
    22  H   -0.002458  -0.000160  -0.000044   0.592532  -0.035136  -0.003319
    23  H   -0.003974  -0.000059   0.005685  -0.035136   0.599542  -0.003333
    24  H   -0.000145   0.000017  -0.000097  -0.003319  -0.003333   0.625096
    25  H   -0.000083  -0.000005   0.000001   0.004361   0.000012  -0.003319
    26  H    0.000023   0.000001  -0.000005   0.000012  -0.000200  -0.003333
    27  H   -0.000179  -0.000073   0.000024  -0.000083   0.000023  -0.000145
    28  H   -0.000073   0.003154  -0.000009  -0.000005   0.000001   0.000017
    29  H    0.000024  -0.000009  -0.000198   0.000001  -0.000005  -0.000097
    30  H    0.000004   0.003509   0.000049  -0.000000   0.000000   0.000000
    31  H    0.000000   0.000006   0.000000  -0.000000   0.000000   0.000000
    32  H    0.000000   0.000000   0.000001  -0.000000   0.000000   0.000000
    33  H    0.000000  -0.000007  -0.000028  -0.000000  -0.000001   0.000006
    34  H   -0.000078  -0.000042   0.005364  -0.000027   0.004649  -0.003662
    35  H    0.000018  -0.000169  -0.000081  -0.000162  -0.000054  -0.003662
              25         26         27         28         29         30
     1  O    0.000704  -0.000082   0.004261   0.000794  -0.000079  -0.000001
     2  C   -0.000925   0.003535  -0.031468  -0.000813   0.003506  -0.000047
     3  C   -0.000041  -0.000299   0.007057   0.000460  -0.000391  -0.000113
     4  C    0.000047   0.000103  -0.000087  -0.005771   0.005849   0.000315
     5  C   -0.004437   0.005232  -0.000060  -0.000011   0.000112  -0.000002
     6  C   -0.035226  -0.033166   0.004202   0.000024  -0.000787  -0.000002
     7  C    0.367967   0.360971  -0.031382   0.005122  -0.006164  -0.000002
     8  C   -0.039236  -0.031211   0.344879  -0.037862  -0.029602  -0.000113
     9  C    0.005141  -0.005866  -0.030318   0.361078   0.356509   0.000315
    10  C    0.000197  -0.001154   0.003537  -0.031871  -0.032894  -0.007790
    11  C    0.000012  -0.000092  -0.000101  -0.009246  -0.001690  -0.044488
    12  C   -0.000000   0.000000  -0.000007   0.005188  -0.000182   0.353656
    13  C    0.000000   0.000000  -0.000000   0.000000  -0.000054  -0.038292
    14  C    0.000000  -0.000000   0.000000  -0.000007  -0.000010   0.003393
    15  F   -0.000000   0.000000  -0.000000   0.000000   0.000000  -0.000026
    16  C   -0.000000  -0.000000  -0.000000   0.000008  -0.000027   0.000263
    17  C    0.000000  -0.000003   0.000000  -0.000251   0.001164   0.005958
    18  C    0.004974  -0.003808   0.000167   0.005707  -0.005679   0.000083
    19  H   -0.000083   0.000023  -0.000179  -0.000073   0.000024   0.000004
    20  H   -0.000005   0.000001  -0.000073   0.003154  -0.000009   0.003509
    21  H    0.000001  -0.000005   0.000024  -0.000009  -0.000198   0.000049
    22  H    0.004361   0.000012  -0.000083  -0.000005   0.000001  -0.000000
    23  H    0.000012  -0.000200   0.000023   0.000001  -0.000005   0.000000
    24  H   -0.003319  -0.003333  -0.000145   0.000017  -0.000097   0.000000
    25  H    0.592532  -0.035136  -0.002458  -0.000160  -0.000044  -0.000000
    26  H   -0.035136   0.599542  -0.003974  -0.000059   0.005685   0.000000
    27  H   -0.002458  -0.003974   0.598568  -0.002783  -0.003833   0.000004
    28  H   -0.000160  -0.000059  -0.002783   0.592105  -0.034530   0.003510
    29  H   -0.000044   0.005685  -0.003833  -0.034530   0.593964   0.000049
    30  H   -0.000000   0.000000   0.000004   0.003510   0.000049   0.588089
    31  H   -0.000000   0.000000   0.000000   0.000006   0.000000  -0.005818
    32  H   -0.000000   0.000000   0.000000   0.000000   0.000001   0.000015
    33  H   -0.000000  -0.000001   0.000000  -0.000007  -0.000028  -0.000187
    34  H   -0.000162  -0.000054   0.000018  -0.000169  -0.000081   0.000002
    35  H   -0.000027   0.004649  -0.000078  -0.000042   0.005364   0.000002
              31         32         33         34         35
     1  O    0.000000   0.000000   0.000000   0.000000   0.000000
     2  C   -0.000000  -0.000000  -0.000001   0.000163   0.000163
     3  C   -0.000000  -0.000000  -0.000006  -0.001114  -0.000166
     4  C    0.000000   0.000001   0.000245  -0.005979   0.006029
     5  C   -0.000000   0.000000  -0.000003  -0.003701   0.005170
     6  C   -0.000000  -0.000000   0.000002  -0.035545  -0.035545
     7  C   -0.000000   0.000000  -0.000003   0.005170  -0.003701
     8  C   -0.000000  -0.000000  -0.000006  -0.000166  -0.001114
     9  C    0.000000   0.000001   0.000245   0.006029  -0.005979
    10  C   -0.000129  -0.000124  -0.015943  -0.031033  -0.031034
    11  C    0.003410   0.003561  -0.036663  -0.006088  -0.006087
    12  C   -0.038088   0.000192   0.006475  -0.000081  -0.000081
    13  C    0.347929   0.006781   0.000184  -0.000001  -0.000001
    14  C   -0.034740  -0.035141   0.003458  -0.000007  -0.000007
    15  F   -0.001032  -0.001047  -0.000025   0.000000   0.000000
    16  C    0.006764   0.347688  -0.045349   0.000039   0.000039
    17  C    0.000205  -0.038003   0.354160   0.001650   0.001650
    18  C    0.000001   0.000003   0.008119   0.358262   0.358263
    19  H    0.000000   0.000000   0.000000  -0.000078   0.000018
    20  H    0.000006   0.000000  -0.000007  -0.000042  -0.000169
    21  H    0.000000   0.000001  -0.000028   0.005364  -0.000081
    22  H   -0.000000  -0.000000  -0.000000  -0.000027  -0.000162
    23  H    0.000000   0.000000  -0.000001   0.004649  -0.000054
    24  H    0.000000   0.000000   0.000006  -0.003662  -0.003662
    25  H   -0.000000  -0.000000  -0.000000  -0.000162  -0.000027
    26  H    0.000000   0.000000  -0.000001  -0.000054   0.004649
    27  H    0.000000   0.000000   0.000000   0.000018  -0.000078
    28  H    0.000006   0.000000  -0.000007  -0.000169  -0.000042
    29  H    0.000000   0.000001  -0.000028  -0.000081   0.005364
    30  H   -0.005818   0.000015  -0.000187   0.000002   0.000002
    31  H    0.574565  -0.000164   0.000015   0.000000   0.000000
    32  H   -0.000164   0.576740  -0.005875   0.000004   0.000004
    33  H    0.000015  -0.005875   0.590062   0.002344   0.002344
    34  H    0.000000   0.000004   0.002344   0.606861  -0.039255
    35  H    0.000000   0.000004   0.002344  -0.039255   0.606860
 Mulliken charges:
               1
     1  O   -0.458994
     2  C    0.453546
     3  C   -0.167151
     4  C   -0.288567
     5  C   -0.280197
     6  C   -0.096794
     7  C   -0.280197
     8  C   -0.167151
     9  C   -0.288568
    10  C   -0.000421
    11  C    0.165786
    12  C   -0.187235
    13  C   -0.201633
    14  C    0.381626
    15  F   -0.299110
    16  C   -0.204054
    17  C   -0.191402
    18  C   -0.294614
    19  H    0.144289
    20  H    0.146493
    21  H    0.144157
    22  H    0.145309
    23  H    0.138691
    24  H    0.127304
    25  H    0.145309
    26  H    0.138691
    27  H    0.144289
    28  H    0.146493
    29  H    0.144158
    30  H    0.137664
    31  H    0.147069
    32  H    0.145363
    33  H    0.136473
    34  H    0.136689
    35  H    0.136689
 Sum of Mulliken charges =  -0.00000
 Mulliken charges with hydrogens summed into heavy atoms:
               1
     1  O   -0.458994
     2  C    0.453546
     3  C   -0.022861
     4  C    0.002083
     5  C    0.003802
     6  C    0.030510
     7  C    0.003802
     8  C   -0.022861
     9  C    0.002082
    10  C   -0.000421
    11  C    0.165786
    12  C   -0.049571
    13  C   -0.054564
    14  C    0.381626
    15  F   -0.299110
    16  C   -0.058692
    17  C   -0.054929
    18  C   -0.021235
 APT charges:
               1
     1  O   -0.643869
     2  C    0.699189
     3  C   -0.050010
     4  C    0.080263
     5  C    0.112385
     6  C    0.116911
     7  C    0.112385
     8  C   -0.050009
     9  C    0.080262
    10  C    0.104580
    11  C    0.002914
    12  C   -0.021605
    13  C   -0.087129
    14  C    0.600955
    15  F   -0.584825
    16  C   -0.095057
    17  C   -0.015894
    18  C    0.056454
    19  H   -0.057941
    20  H   -0.026694
    21  H   -0.037355
    22  H   -0.044394
    23  H   -0.043871
    24  H   -0.075086
    25  H   -0.044394
    26  H   -0.043871
    27  H   -0.057940
    28  H   -0.026693
    29  H   -0.037355
    30  H    0.034737
    31  H    0.040147
    32  H    0.038661
    33  H    0.043571
    34  H   -0.039712
    35  H   -0.039712
 Sum of APT charges =   0.00000
 APT charges with hydrogens summed into heavy atoms:
               1
     1  O   -0.643869
     2  C    0.699189
     3  C   -0.107950
     4  C    0.016214
     5  C    0.024120
     6  C    0.041824
     7  C    0.024119
     8  C   -0.107949
     9  C    0.016214
    10  C    0.104580
    11  C    0.002914
    12  C    0.013133
    13  C   -0.046981
    14  C    0.600955
    15  F   -0.584825
    16  C   -0.056396
    17  C    0.027677
    18  C   -0.022970
 Electronic spatial extent (au):  <R**2>=           4893.5588
 Charge=             -0.0000 electrons
 Dipole moment (field-independent basis, Debye):
    X=             -0.2504    Y=              2.6666    Z=              0.0000  Tot=              2.6783
 Quadrupole moment (field-independent basis, Debye-Ang):
   XX=           -122.4320   YY=           -104.7132   ZZ=           -103.8273
   XY=             10.1476   XZ=              0.0002   YZ=             -0.0002
 Traceless Quadrupole moment (field-independent basis, Debye-Ang):
   XX=            -12.1079   YY=              5.6110   ZZ=              6.4969
   XY=             10.1476   XZ=              0.0002   YZ=             -0.0002
 Octapole moment (field-independent basis, Debye-Ang**2):
  XXX=             -6.5315  YYY=              5.3018  ZZZ=             -0.0000  XYY=            -47.4038
  XXY=             45.0397  XXZ=              0.0006  XZZ=              2.5241  YZZ=             -2.9605
  YYZ=              0.0002  XYZ=             -0.0002
 Hexadecapole moment (field-independent basis, Debye-Ang**3):
 XXXX=          -5156.5385 YYYY=           -951.5281 ZZZZ=           -547.3087 XXXY=            114.3496
 XXXZ=              0.0022 YYYX=             54.2283 YYYZ=             -0.0008 ZZZX=             -0.0008
 ZZZY=              0.0003 XXYY=           -976.0431 XXZZ=           -872.5959 YYZZ=           -252.5520
 XXYZ=             -0.0021 YYXZ=              0.0008 ZZXY=             -7.7384
 N-N= 1.336245402402D+03 E-N=-4.522102727714D+03  KE= 7.877507321797D+02
  Exact polarizability: 200.344  -2.650 153.282  -0.000  -0.000 111.146
 Approx polarizability: 276.043 -11.601 262.597  -0.000  -0.001 170.083
 Calling FoFJK, ICntrl=    100127 FMM=F ISym2X=0 I1Cent= 0 IOpClX= 0 NMat=1 NMatS=1 NMatT=0.
 Full mass-weighted force constant matrix:
 Low frequencies ---   -3.2697    0.0004    0.0009    0.0011    5.6807    8.9831
 Low frequencies ---   48.6867   69.6538   75.5458
 Diagonal vibrational polarizability:
       17.2475916       8.8853860      10.9741909
 Harmonic frequencies (cm**-1), IR intensities (KM/Mole), Raman scattering
 activities (A**4/AMU), depolarization ratios for plane and unpolarized
 incident light, reduced masses (AMU), force constants (mDyne/A),
 and normal coordinates:
                      1                      2                      3
                      A                      A                      A
 Frequencies --     48.6740                69.6533                75.5458
 Red. masses --      4.1991                 5.2740                10.8772
 Frc consts  --      0.0059                 0.0151                 0.0366
 IR Inten    --      0.3261                 0.1093                 3.1640
  Atom  AN      X      Y      Z        X      Y      Z        X      Y      Z
     1   8     0.00   0.00  -0.13     0.00   0.00   0.03     0.58   0.37   0.00
     2   6     0.00   0.00  -0.07     0.00   0.00   0.02     0.14   0.05  -0.00
     3   6    -0.04   0.04  -0.03     0.09   0.05   0.01    -0.03  -0.08   0.00
     4   6    -0.04   0.04   0.03     0.08   0.05  -0.11    -0.02  -0.13   0.02
     5   6    -0.05   0.05   0.01     0.09   0.04   0.10    -0.06  -0.06  -0.01
     6   6    -0.00  -0.00   0.06    -0.00  -0.00   0.09    -0.06  -0.08  -0.00
     7   6     0.05  -0.05   0.01    -0.09  -0.04   0.10    -0.06  -0.06   0.01
     8   6     0.04  -0.04  -0.03    -0.09  -0.05   0.01    -0.03  -0.08  -0.00
     9   6     0.04  -0.04   0.03    -0.08  -0.05  -0.11    -0.02  -0.13  -0.02
    10   6    -0.00  -0.00   0.07    -0.00  -0.00  -0.12    -0.04  -0.12   0.00
    11   6    -0.00  -0.00   0.08    -0.00  -0.00  -0.17    -0.05  -0.07   0.00
    12   6    -0.00  -0.00   0.26    -0.00  -0.00  -0.04    -0.12  -0.03  -0.00
    13   6    -0.00   0.00   0.21    -0.00   0.00   0.10    -0.13   0.05  -0.00
    14   6    -0.00   0.00  -0.04    -0.00   0.00   0.08    -0.07   0.10  -0.00
    15   9    -0.00   0.00  -0.11    -0.00   0.00   0.29    -0.08   0.19  -0.00
    16   6     0.00  -0.00  -0.23     0.00   0.00  -0.13     0.01   0.06   0.00
    17   6     0.00  -0.00  -0.16     0.00  -0.00  -0.25     0.01  -0.02   0.00
    18   6    -0.00  -0.00   0.10    -0.00  -0.00  -0.04    -0.05  -0.11   0.00
    19   1    -0.07   0.08  -0.06     0.15   0.08   0.01    -0.01  -0.06   0.00
    20   1    -0.05   0.04   0.01     0.08   0.05  -0.17     0.00  -0.14   0.05
    21   1    -0.08   0.06   0.06     0.15   0.08  -0.12    -0.04  -0.17   0.00
    22   1    -0.05   0.05  -0.03     0.09   0.04   0.19    -0.07  -0.04  -0.04
    23   1    -0.08   0.08   0.04     0.17   0.08   0.09    -0.10  -0.06  -0.00
    24   1    -0.00  -0.00   0.08    -0.00  -0.00   0.15    -0.08  -0.07  -0.00
    25   1     0.05  -0.05  -0.03    -0.09  -0.04   0.19    -0.07  -0.04   0.04
    26   1     0.08  -0.08   0.04    -0.17  -0.08   0.09    -0.10  -0.06   0.00
    27   1     0.07  -0.08  -0.06    -0.15  -0.08   0.01    -0.01  -0.06  -0.00
    28   1     0.05  -0.04   0.01    -0.08  -0.05  -0.17     0.00  -0.14  -0.05
    29   1     0.08  -0.06   0.06    -0.15  -0.08  -0.12    -0.04  -0.17  -0.00
    30   1    -0.00  -0.00   0.44    -0.00  -0.00  -0.01    -0.17  -0.07  -0.00
    31   1    -0.00   0.00   0.35    -0.00   0.00   0.24    -0.19   0.08  -0.00
    32   1     0.00  -0.00  -0.42     0.00   0.00  -0.16     0.06   0.10   0.00
    33   1     0.00  -0.00  -0.30     0.00  -0.00  -0.38     0.06  -0.05   0.00
    34   1    -0.01   0.02   0.12     0.07   0.03  -0.05    -0.06  -0.12   0.00
    35   1     0.01  -0.02   0.12    -0.07  -0.03  -0.05    -0.06  -0.12  -0.00
                      4                      5                      6
                      A                      A                      A
 Frequencies --    146.1809               194.2059               247.9552
 Red. masses --      4.8484                 4.5776                 6.5749
 Frc consts  --      0.0610                 0.1017                 0.2382
 IR Inten    --      0.4433                 0.0075                 0.5938
  Atom  AN      X      Y      Z        X      Y      Z        X      Y      Z
     1   8    -0.14  -0.09  -0.00    -0.00   0.00  -0.03    -0.03   0.09  -0.00
     2   6     0.06   0.06   0.00    -0.00   0.00   0.01    -0.13   0.01  -0.00
     3   6     0.09   0.09  -0.00    -0.05  -0.00   0.03    -0.15  -0.03  -0.02
     4   6     0.09  -0.09   0.00    -0.04  -0.05   0.13    -0.12  -0.05  -0.00
     5   6    -0.06   0.13   0.00    -0.13   0.02  -0.04    -0.19  -0.02  -0.03
     6   6    -0.12   0.07  -0.00    -0.00   0.00   0.02    -0.12  -0.02   0.00
     7   6    -0.06   0.13  -0.00     0.13  -0.02  -0.04    -0.19  -0.02   0.03
     8   6     0.09   0.09   0.00     0.05   0.00   0.03    -0.15  -0.03   0.02
     9   6     0.09  -0.09  -0.00     0.04   0.05   0.13    -0.12  -0.05   0.00
    10   6     0.03  -0.14  -0.00    -0.00  -0.00   0.12    -0.02  -0.02  -0.00
    11   6     0.03  -0.16   0.00     0.00  -0.00  -0.02     0.08   0.02   0.00
    12   6    -0.06  -0.12  -0.00     0.00  -0.00  -0.16     0.17  -0.00   0.00
    13   6    -0.08  -0.01  -0.00     0.00  -0.00  -0.21     0.19  -0.00   0.00
    14   6     0.01   0.05   0.00     0.00   0.00  -0.09     0.24   0.02   0.00
    15   9    -0.01   0.19  -0.00     0.00   0.00   0.21     0.26   0.02  -0.00
    16   6     0.10   0.00   0.00     0.00  -0.00  -0.18     0.18   0.04   0.00
    17   6     0.10  -0.11   0.00     0.00  -0.00  -0.14     0.16   0.05   0.00
    18   6    -0.10  -0.09  -0.00    -0.00  -0.00   0.14    -0.09  -0.02  -0.00
    19   1     0.14   0.12   0.00    -0.09  -0.01   0.01    -0.12  -0.04  -0.00
    20   1     0.21  -0.13   0.02    -0.01  -0.06   0.22    -0.13  -0.04   0.04
    21   1     0.03  -0.14  -0.00    -0.12  -0.12   0.13    -0.16  -0.06   0.01
    22   1    -0.06   0.24  -0.01    -0.14   0.08  -0.20    -0.19   0.01  -0.12
    23   1    -0.11   0.10   0.00    -0.29  -0.01  -0.00    -0.28  -0.02   0.00
    24   1    -0.23   0.11  -0.00    -0.00   0.00   0.00    -0.09  -0.03   0.00
    25   1    -0.06   0.24   0.01     0.14  -0.08  -0.20    -0.19   0.01   0.12
    26   1    -0.11   0.10  -0.00     0.29   0.01  -0.00    -0.28  -0.02  -0.00
    27   1     0.14   0.12  -0.00     0.09   0.01   0.01    -0.12  -0.04   0.00
    28   1     0.21  -0.13  -0.02     0.01   0.06   0.22    -0.13  -0.04  -0.04
    29   1     0.03  -0.14   0.00     0.12   0.12   0.13    -0.16  -0.06  -0.01
    30   1    -0.12  -0.16  -0.00     0.00  -0.00  -0.17     0.20   0.03   0.00
    31   1    -0.15   0.03  -0.00    -0.00  -0.00  -0.23     0.16   0.02   0.00
    32   1     0.17   0.05   0.00     0.00  -0.00  -0.17     0.14   0.01  -0.00
    33   1     0.16  -0.14   0.00     0.00  -0.00  -0.13     0.19   0.03  -0.00
    34   1    -0.15  -0.13  -0.00    -0.05   0.04   0.18    -0.11  -0.03  -0.00
    35   1    -0.15  -0.13   0.00     0.05  -0.04   0.18    -0.11  -0.03   0.00
                      7                      8                      9
                      A                      A                      A
 Frequencies --    279.8607               291.0483               295.5297
 Red. masses --      2.3555                 2.5467                 3.8670
 Frc consts  --      0.1087                 0.1271                 0.1990
 IR Inten    --      0.6543                 0.0489                 0.5680
  Atom  AN      X      Y      Z        X      Y      Z        X      Y      Z
     1   8    -0.00  -0.00   0.15     0.00  -0.00   0.05    -0.02   0.10   0.00
     2   6     0.00  -0.00   0.05     0.00  -0.00   0.02    -0.12   0.03   0.00
     3   6    -0.01  -0.04   0.00     0.08   0.05   0.00    -0.07   0.02  -0.02
     4   6    -0.01   0.12  -0.09     0.08  -0.08   0.00    -0.05   0.14  -0.07
     5   6    -0.06  -0.02  -0.06    -0.10   0.11  -0.05     0.08  -0.03   0.02
     6   6    -0.00   0.00  -0.04    -0.00   0.00   0.04     0.06  -0.02   0.00
     7   6     0.06   0.02  -0.06     0.10  -0.11  -0.05     0.08  -0.03  -0.02
     8   6     0.01   0.04   0.00    -0.08  -0.05   0.00    -0.07   0.02   0.02
     9   6     0.01  -0.12  -0.09    -0.08   0.08   0.00    -0.05   0.14   0.07
    10   6     0.00  -0.00  -0.02     0.00  -0.00  -0.07    -0.01   0.02  -0.00
    11   6     0.00   0.00  -0.01    -0.00   0.00  -0.10     0.01  -0.15  -0.00
    12   6     0.00   0.00  -0.00     0.00   0.00  -0.02    -0.02  -0.16  -0.00
    13   6     0.00   0.00   0.01     0.00   0.00   0.09    -0.04  -0.11   0.00
    14   6     0.00   0.00   0.00    -0.00   0.00   0.07     0.02  -0.06   0.00
    15   9     0.00  -0.00  -0.00    -0.00  -0.00  -0.07     0.00   0.15  -0.00
    16   6     0.00   0.00  -0.00    -0.00   0.00   0.08     0.08  -0.09   0.00
    17   6     0.00   0.00  -0.00    -0.00   0.00  -0.02     0.06  -0.14  -0.00
    18   6    -0.00  -0.00   0.15    -0.00  -0.00   0.03     0.03   0.03   0.00
    19   1     0.00  -0.07   0.02     0.13   0.07   0.01    -0.07  -0.02   0.00
    20   1    -0.16   0.17  -0.28     0.17  -0.12   0.13    -0.15   0.18  -0.25
    21   1     0.12   0.32  -0.04     0.04  -0.23  -0.06    -0.01   0.33   0.02
    22   1    -0.06   0.05  -0.14    -0.11   0.26  -0.24     0.09  -0.15   0.11
    23   1    -0.16  -0.08  -0.06    -0.33   0.07   0.02     0.21   0.02  -0.01
    24   1    -0.00   0.00  -0.08    -0.00   0.00   0.12     0.07  -0.02   0.00
    25   1     0.06  -0.05  -0.14     0.11  -0.26  -0.24     0.09  -0.15  -0.11
    26   1     0.16   0.08  -0.06     0.33  -0.07   0.02     0.21   0.02   0.01
    27   1    -0.00   0.07   0.02    -0.13  -0.07   0.01    -0.07  -0.02  -0.00
    28   1     0.16  -0.17  -0.28    -0.17   0.12   0.13    -0.15   0.18   0.25
    29   1    -0.12  -0.32  -0.04    -0.04   0.23  -0.06    -0.01   0.33  -0.02
    30   1     0.00   0.00  -0.00     0.00   0.00  -0.03    -0.04  -0.18  -0.00
    31   1     0.00   0.00   0.03     0.00   0.00   0.12    -0.07  -0.09   0.00
    32   1    -0.00   0.00  -0.01    -0.00   0.00   0.10     0.10  -0.08   0.00
    33   1    -0.00   0.00   0.01    -0.00   0.00  -0.04     0.11  -0.16  -0.00
    34   1    -0.12   0.15   0.29     0.03   0.09   0.07     0.06   0.05  -0.00
    35   1     0.12  -0.15   0.29    -0.03  -0.09   0.07     0.06   0.05   0.00
                     10                     11                     12
                      A                      A                      A
 Frequencies --    374.5487               383.5426               399.4897
 Red. masses --      4.7577                 5.2599                 2.9536
 Frc consts  --      0.3932                 0.4559                 0.2777
 IR Inten    --      0.9190                 1.0147                 0.8980
  Atom  AN      X      Y      Z        X      Y      Z        X      Y      Z
     1   8    -0.15   0.19   0.00     0.00  -0.00   0.10    -0.01  -0.02   0.00
     2   6    -0.12   0.20   0.00     0.00  -0.00   0.00     0.03   0.01  -0.00
     3   6    -0.06   0.08  -0.06     0.15   0.12  -0.03    -0.01  -0.01   0.00
     4   6    -0.04  -0.13  -0.01     0.10   0.08   0.05    -0.00  -0.04   0.08
     5   6     0.09   0.02  -0.08     0.09   0.14  -0.13    -0.06   0.00  -0.07
     6   6     0.19  -0.05  -0.00    -0.00   0.00  -0.11     0.10   0.01   0.00
     7   6     0.09   0.02   0.08    -0.09  -0.14  -0.13    -0.06   0.00   0.07
     8   6    -0.06   0.08   0.06    -0.15  -0.12  -0.03    -0.01  -0.01  -0.00
     9   6    -0.04  -0.13   0.01    -0.10  -0.08   0.05    -0.00  -0.04  -0.08
    10   6     0.02  -0.11  -0.00     0.00   0.00   0.09     0.02   0.11  -0.00
    11   6     0.00  -0.00   0.00     0.00   0.00   0.18     0.01   0.03   0.00
    12   6    -0.03   0.01   0.00     0.00   0.00   0.16     0.03   0.00   0.00
    13   6    -0.02   0.04  -0.00     0.00  -0.00  -0.12     0.02  -0.11   0.00
    14   6    -0.02   0.03  -0.00     0.00  -0.00  -0.16    -0.01  -0.12   0.00
    15   9    -0.02  -0.08   0.00     0.00   0.00   0.10    -0.05   0.16  -0.00
    16   6    -0.01   0.03  -0.00     0.00  -0.00  -0.11    -0.01  -0.13   0.00
    17   6     0.01   0.01   0.00     0.00   0.00   0.14    -0.04  -0.02   0.00
    18   6     0.17  -0.14  -0.00     0.00   0.00  -0.09     0.09   0.12   0.00
    19   1    -0.01  -0.02   0.02     0.09   0.08  -0.03    -0.05  -0.03  -0.00
    20   1     0.15  -0.20   0.13     0.16   0.06  -0.02     0.03  -0.05   0.30
    21   1    -0.22  -0.28  -0.01     0.07   0.12   0.08    -0.06  -0.23  -0.00
    22   1     0.09  -0.14  -0.15     0.08   0.25  -0.15    -0.06   0.05  -0.30
    23   1     0.09   0.15  -0.01     0.01   0.08  -0.13    -0.27  -0.01   0.00
    24   1     0.10  -0.02   0.00     0.00  -0.00   0.06     0.20  -0.02   0.00
    25   1     0.09  -0.14   0.15    -0.08  -0.25  -0.15    -0.06   0.05   0.30
    26   1     0.09   0.15   0.01    -0.01  -0.08  -0.13    -0.27  -0.01  -0.00
    27   1    -0.01  -0.02  -0.02    -0.09  -0.08  -0.03    -0.05  -0.03   0.00
    28   1     0.15  -0.20  -0.13    -0.16  -0.06  -0.02     0.03  -0.05  -0.30
    29   1    -0.22  -0.28   0.01    -0.07  -0.12   0.08    -0.06  -0.23   0.00
    30   1    -0.05   0.00   0.00    -0.00  -0.00   0.24     0.07   0.02  -0.00
    31   1    -0.04   0.05  -0.00    -0.00  -0.00  -0.14     0.12  -0.16   0.00
    32   1     0.02   0.05   0.00     0.00  -0.00  -0.12    -0.08  -0.18  -0.00
    33   1     0.03   0.00   0.00     0.00   0.00   0.22    -0.10   0.01  -0.00
    34   1     0.17  -0.13   0.00    -0.04  -0.15  -0.17     0.12   0.14  -0.00
    35   1     0.17  -0.13  -0.00     0.04   0.15  -0.17     0.12   0.14   0.00
                     13                     14                     15
                      A                      A                      A
 Frequencies --    412.6303               427.8950               436.2870
 Red. masses --      4.2785                 3.2174                 2.1238
 Frc consts  --      0.4292                 0.3471                 0.2382
 IR Inten    --      1.2072                 0.0627                 0.7787
  Atom  AN      X      Y      Z        X      Y      Z        X      Y      Z
     1   8     0.00  -0.00   0.10    -0.00   0.00   0.01    -0.00   0.01   0.00
     2   6    -0.00  -0.00  -0.01    -0.00   0.00   0.00    -0.02  -0.00  -0.00
     3   6    -0.06  -0.03  -0.03    -0.01  -0.00  -0.00    -0.02   0.02   0.03
     4   6    -0.08  -0.08  -0.15    -0.02  -0.02  -0.03    -0.02  -0.06   0.04
     5   6    -0.12   0.01   0.10    -0.02   0.00   0.02     0.08   0.00   0.10
     6   6    -0.00  -0.00   0.15    -0.00   0.00   0.03    -0.06   0.04  -0.00
     7   6     0.12  -0.01   0.10     0.02  -0.00   0.02     0.08   0.00  -0.10
     8   6     0.06   0.03  -0.03     0.01   0.00  -0.00    -0.02   0.02  -0.03
     9   6     0.08   0.08  -0.15     0.02   0.02  -0.03    -0.02  -0.06  -0.04
    10   6    -0.00   0.00  -0.14    -0.00  -0.00  -0.03    -0.04  -0.01   0.00
    11   6    -0.00  -0.00   0.11    -0.00   0.00   0.02    -0.03   0.06   0.00
    12   6    -0.00   0.00   0.19     0.00  -0.00  -0.18     0.03   0.04   0.00
    13   6    -0.00   0.00  -0.15     0.00  -0.00   0.19     0.04  -0.07  -0.00
    14   6     0.00   0.00  -0.14     0.00  -0.00  -0.04     0.04  -0.07   0.00
    15   9     0.00  -0.00   0.07     0.00   0.00   0.02     0.03   0.09  -0.00
    16   6     0.00   0.00  -0.01    -0.00  -0.00  -0.24    -0.02  -0.05   0.00
    17   6     0.00  -0.00   0.06    -0.00   0.00   0.25    -0.04   0.05  -0.00
    18   6    -0.00  -0.00  -0.10    -0.00  -0.00  -0.03    -0.06  -0.02   0.00
    19   1     0.04   0.07  -0.04     0.01   0.01  -0.00    -0.02   0.05   0.01
    20   1    -0.08  -0.08  -0.09    -0.00  -0.03  -0.02     0.08  -0.10   0.17
    21   1    -0.04  -0.12  -0.19    -0.01  -0.04  -0.04    -0.09  -0.20  -0.01
    22   1    -0.12   0.03  -0.04    -0.02   0.00  -0.01     0.09  -0.13   0.38
    23   1    -0.23   0.08   0.17    -0.05   0.02   0.04     0.37   0.02  -0.00
    24   1    -0.00  -0.00   0.13    -0.00   0.00   0.03    -0.11   0.06  -0.00
    25   1     0.12  -0.03  -0.04     0.02  -0.00  -0.01     0.09  -0.13  -0.38
    26   1     0.23  -0.08   0.17     0.05  -0.02   0.04     0.37   0.02   0.00
    27   1    -0.04  -0.07  -0.04    -0.01  -0.01  -0.00    -0.02   0.05  -0.01
    28   1     0.08   0.08  -0.09     0.00   0.03  -0.02     0.08  -0.10  -0.17
    29   1     0.04   0.12  -0.19     0.01   0.04  -0.04    -0.09  -0.20   0.01
    30   1    -0.00   0.00   0.34     0.00   0.00  -0.39     0.10   0.09   0.00
    31   1    -0.00   0.00  -0.20     0.00   0.00   0.40     0.10  -0.10  -0.00
    32   1     0.00   0.00   0.06    -0.00  -0.00  -0.43    -0.11  -0.11   0.00
    33   1     0.00  -0.00   0.05    -0.00   0.00   0.52    -0.09   0.08  -0.00
    34   1     0.20  -0.01  -0.19     0.03  -0.00  -0.04    -0.08  -0.03   0.00
    35   1    -0.20   0.01  -0.19    -0.03   0.00  -0.04    -0.08  -0.03  -0.00
                     16                     17                     18
                      A                      A                      A
 Frequencies --    447.5725               461.6073               472.6430
 Red. masses --      1.9987                 2.9063                 4.0150
 Frc consts  --      0.2359                 0.3649                 0.5284
 IR Inten    --      1.9796                 1.3918                10.1631
  Atom  AN      X      Y      Z        X      Y      Z        X      Y      Z
     1   8    -0.00  -0.00   0.04     0.01  -0.02   0.00    -0.00  -0.00   0.28
     2   6     0.00   0.00  -0.08     0.00  -0.02  -0.00     0.00   0.00  -0.15
     3   6     0.04  -0.03  -0.09    -0.04   0.00   0.04    -0.05   0.03  -0.18
     4   6     0.03  -0.08  -0.02    -0.03  -0.01   0.11    -0.08   0.02   0.05
     5   6     0.06  -0.03   0.00     0.02  -0.01   0.04     0.01   0.06   0.01
     6   6    -0.00  -0.00  -0.02     0.02   0.07   0.00    -0.00  -0.00   0.06
     7   6    -0.06   0.03   0.00     0.02  -0.01  -0.04    -0.01  -0.06   0.01
     8   6    -0.04   0.03  -0.09    -0.04   0.00  -0.04     0.05  -0.03  -0.18
     9   6    -0.03   0.08  -0.02    -0.03  -0.01  -0.11     0.08  -0.02   0.05
    10   6     0.00  -0.00  -0.04    -0.02   0.11   0.00     0.00  -0.00   0.10
    11   6     0.00   0.00   0.00     0.00  -0.12   0.00    -0.00   0.00   0.02
    12   6     0.00   0.00   0.05    -0.05  -0.12  -0.00     0.00   0.00  -0.09
    13   6     0.00  -0.00  -0.02    -0.06   0.06   0.00     0.00  -0.00   0.03
    14   6    -0.00  -0.00  -0.06     0.00   0.10   0.00    -0.00  -0.00   0.12
    15   9    -0.00   0.00   0.02     0.03  -0.10  -0.00    -0.00   0.00  -0.04
    16   6    -0.00  -0.00  -0.02     0.05   0.08  -0.00    -0.00  -0.00   0.02
    17   6    -0.00   0.00   0.04     0.06  -0.10   0.00    -0.00   0.00  -0.07
    18   6    -0.00  -0.00   0.16    -0.00   0.17   0.00     0.00  -0.00  -0.03
    19   1     0.03   0.00  -0.11    -0.09   0.02   0.01    -0.17   0.15  -0.31
    20   1     0.09  -0.11   0.14     0.03  -0.04   0.38    -0.05   0.01   0.08
    21   1    -0.05  -0.23  -0.06    -0.09  -0.26   0.01    -0.23   0.02   0.11
    22   1     0.07  -0.08   0.15     0.02  -0.08   0.11     0.02  -0.01   0.07
    23   1     0.21   0.01  -0.03     0.12  -0.02  -0.00     0.09   0.19   0.05
    24   1    -0.00  -0.00  -0.05     0.11   0.04   0.00    -0.00  -0.00   0.09
    25   1    -0.07   0.08   0.15     0.02  -0.08  -0.11    -0.02   0.01   0.07
    26   1    -0.21  -0.01  -0.03     0.12  -0.02   0.00    -0.09  -0.19   0.05
    27   1    -0.03  -0.00  -0.11    -0.09   0.02  -0.01     0.17  -0.15  -0.31
    28   1    -0.09   0.11   0.14     0.03  -0.04  -0.38     0.05  -0.01   0.08
    29   1     0.05   0.23  -0.06    -0.09  -0.26  -0.01     0.23  -0.02   0.11
    30   1     0.00   0.00   0.12    -0.15  -0.18  -0.00     0.00   0.00  -0.22
    31   1     0.00  -0.00   0.02    -0.19   0.13   0.00     0.00  -0.00  -0.06
    32   1    -0.00  -0.00   0.02     0.16   0.16  -0.00    -0.00  -0.00  -0.08
    33   1    -0.00   0.00   0.11     0.17  -0.15   0.00    -0.00   0.00  -0.19
    34   1    -0.16   0.26   0.39     0.03   0.19  -0.00     0.08  -0.15  -0.16
    35   1     0.16  -0.26   0.39     0.03   0.19   0.00    -0.08   0.15  -0.16
                     19                     20                     21
                      A                      A                      A
 Frequencies --    552.9194               563.0323               614.8775
 Red. masses --      2.4709                 7.3730                 5.5564
 Frc consts  --      0.4451                 1.3771                 1.2377
 IR Inten    --      7.0632                11.6089                 0.0665
  Atom  AN      X      Y      Z        X      Y      Z        X      Y      Z
     1   8     0.00  -0.00  -0.03     0.03  -0.08  -0.00     0.15  -0.15  -0.00
     2   6     0.00  -0.00   0.03     0.14   0.02   0.00    -0.02  -0.23  -0.00
     3   6     0.03  -0.00   0.02     0.04   0.05   0.02    -0.11   0.04   0.05
     4   6     0.01  -0.03  -0.05    -0.05   0.05   0.05    -0.14  -0.05  -0.04
     5   6     0.01   0.00  -0.01     0.07   0.04  -0.08    -0.00   0.16   0.06
     6   6     0.00   0.00  -0.01     0.10  -0.07  -0.00     0.16   0.27   0.00
     7   6    -0.01  -0.00  -0.01     0.07   0.04   0.08    -0.00   0.16  -0.06
     8   6    -0.03   0.00   0.02     0.04   0.05  -0.02    -0.11   0.04  -0.05
     9   6    -0.01   0.03  -0.05    -0.05   0.05  -0.05    -0.14  -0.05   0.04
    10   6    -0.00  -0.00  -0.04    -0.21  -0.02  -0.00     0.01  -0.11  -0.00
    11   6    -0.00   0.00   0.22    -0.30  -0.03  -0.00     0.02   0.02  -0.00
    12   6    -0.00  -0.00  -0.00    -0.15  -0.14   0.00    -0.04   0.03  -0.00
    13   6    -0.00  -0.00  -0.07    -0.10  -0.15   0.00    -0.03  -0.02   0.00
    14   6     0.00   0.00   0.24     0.20   0.02  -0.00    -0.01  -0.02  -0.00
    15   9     0.00  -0.00  -0.03     0.31   0.03  -0.00    -0.03  -0.02   0.00
    16   6    -0.00   0.00  -0.07    -0.12   0.13   0.00     0.06  -0.04   0.00
    17   6    -0.00   0.00   0.00    -0.17   0.11  -0.00     0.07   0.03  -0.00
    18   6     0.00  -0.00   0.02     0.02  -0.08  -0.00     0.17  -0.08  -0.00
    19   1     0.08  -0.02   0.05    -0.09   0.01  -0.02    -0.11   0.27  -0.09
    20   1     0.05  -0.05  -0.02     0.01   0.03  -0.03    -0.13  -0.05  -0.21
    21   1     0.03  -0.08  -0.09     0.02   0.05   0.02    -0.14   0.10   0.04
    22   1     0.01   0.01   0.00     0.06   0.09  -0.26     0.00   0.03  -0.12
    23   1     0.01  -0.02  -0.02    -0.11   0.05  -0.00    -0.08   0.10   0.06
    24   1    -0.00   0.00  -0.00    -0.02  -0.03  -0.00     0.02   0.32   0.00
    25   1    -0.01  -0.01   0.00     0.06   0.09   0.26     0.00   0.03   0.12
    26   1    -0.01   0.02  -0.02    -0.11   0.05   0.00    -0.08   0.10  -0.06
    27   1    -0.08   0.02   0.05    -0.09   0.01   0.02    -0.11   0.27   0.09
    28   1    -0.05   0.05  -0.02     0.01   0.03   0.03    -0.13  -0.05   0.21
    29   1    -0.03   0.08  -0.09     0.02   0.05  -0.02    -0.14   0.10  -0.04
    30   1     0.00  -0.00  -0.37    -0.02  -0.06   0.00    -0.03   0.04  -0.00
    31   1    -0.00  -0.00  -0.51    -0.35  -0.03   0.00     0.01  -0.04   0.00
    32   1    -0.00  -0.00  -0.51    -0.34  -0.04   0.00     0.07  -0.03   0.00
    33   1    -0.00  -0.00  -0.35    -0.01   0.04   0.00     0.05   0.03   0.00
    34   1    -0.03   0.09   0.08     0.10  -0.02   0.00     0.09  -0.12   0.01
    35   1     0.03  -0.09   0.08     0.10  -0.02  -0.00     0.09  -0.12  -0.01
                     22                     23                     24
                      A                      A                      A
 Frequencies --    636.6945               653.5009               680.9311
 Red. masses --      3.4650                 7.1459                 4.6659
 Frc consts  --      0.8276                 1.7980                 1.2747
 IR Inten    --      2.2488                 0.0593                 1.0568
  Atom  AN      X      Y      Z        X      Y      Z        X      Y      Z
     1   8    -0.00   0.00  -0.04     0.03  -0.03  -0.00    -0.03   0.09   0.00
     2   6    -0.00   0.00  -0.14    -0.01  -0.05  -0.00    -0.18  -0.04  -0.00
     3   6     0.13  -0.14  -0.10    -0.02   0.01  -0.01     0.04  -0.08  -0.00
     4   6     0.14   0.01   0.05    -0.03  -0.02  -0.03     0.10  -0.12  -0.17
     5   6    -0.06  -0.12   0.07     0.01   0.04   0.00    -0.06  -0.02   0.07
     6   6    -0.00  -0.00   0.08     0.04   0.04   0.00     0.04   0.17   0.00
     7   6     0.06   0.12   0.07     0.01   0.04  -0.00    -0.06  -0.02  -0.07
     8   6    -0.13   0.14  -0.10    -0.02   0.01   0.01     0.04  -0.08   0.00
     9   6    -0.14  -0.01   0.05    -0.03  -0.02   0.03     0.10  -0.12   0.17
    10   6     0.00  -0.00   0.08    -0.00  -0.02   0.00     0.10  -0.01  -0.00
    11   6    -0.00   0.00   0.01     0.01  -0.10   0.00    -0.04  -0.00  -0.00
    12   6    -0.00   0.00   0.02     0.32  -0.18   0.00    -0.08  -0.03  -0.00
    13   6    -0.00  -0.00  -0.02     0.28   0.20  -0.00    -0.08  -0.05   0.00
    14   6     0.00  -0.00   0.03    -0.01   0.09  -0.00     0.05   0.00  -0.00
    15   9     0.00  -0.00  -0.00    -0.01   0.10  -0.00     0.11   0.01  -0.00
    16   6     0.00  -0.00  -0.02    -0.31   0.15  -0.00    -0.09   0.04   0.00
    17   6     0.00   0.00   0.03    -0.28  -0.23   0.00    -0.09   0.03  -0.00
    18   6    -0.00   0.00   0.01     0.03  -0.04  -0.00     0.05   0.22   0.00
    19   1     0.09  -0.06  -0.18    -0.01   0.05  -0.03     0.32  -0.01   0.08
    20   1    -0.01   0.06  -0.11    -0.00  -0.03  -0.06     0.05  -0.10  -0.19
    21   1     0.22   0.19   0.11    -0.05  -0.01  -0.01     0.13  -0.08  -0.16
    22   1    -0.07   0.07  -0.09     0.01   0.01  -0.04    -0.06  -0.02   0.06
    23   1    -0.27  -0.14   0.15    -0.01   0.04   0.01    -0.04  -0.11   0.02
    24   1     0.00   0.00  -0.17    -0.01   0.06  -0.00     0.27   0.10   0.00
    25   1     0.07  -0.07  -0.09     0.01   0.01   0.04    -0.06  -0.02  -0.06
    26   1     0.27   0.14   0.15    -0.01   0.04  -0.01    -0.04  -0.11  -0.02
    27   1    -0.09   0.06  -0.18    -0.01   0.05   0.03     0.32  -0.01  -0.08
    28   1     0.01  -0.06  -0.11    -0.00  -0.03   0.06     0.05  -0.10   0.19
    29   1    -0.22  -0.19   0.11    -0.05  -0.01   0.01     0.13  -0.08   0.16
    30   1    -0.00   0.00  -0.00     0.24  -0.23   0.00    -0.07  -0.02  -0.00
    31   1    -0.00  -0.00  -0.07     0.20   0.24  -0.00    -0.17  -0.01   0.00
[...]
 ,0.00000618,-0.00001307,0.00001212,-0.00002817,-0.00000933,0.00005093,
 -0.00073538,-0.00045449,0.00083661,0.00001098,0.00000698,0.00006205,0.
 00000748,0.02573777,-0.00013720,0.00000001,0.00001068,0.00017667,-0.00
 000003,-0.00006497,0.00025895,-0.00005072,0.00008295,-0.00016807,-0.00
 016665,-0.00089269,-0.00010847,0.00000192,0.00002780,0.00003087,0.,0.0
 0005374,-0.00010849,-0.00000192,0.00002781,0.00025899,0.00005073,0.000
 08298,-0.00016811,0.00016668,-0.00089289,-0.00026918,0.00000006,0.0010
 6181,-0.02801664,-0.00000052,0.00491117,-0.01461152,-0.00000092,-0.060
 75423,0.02934118,0.00000062,0.00419832,0.00122227,-0.00000022,-0.00398
 884,0.00199866,0.00000003,-0.00039236,0.00024961,0.,-0.00103497,-0.002
 02051,-0.00000026,-0.00527965,-0.00001717,0.00000002,0.00003307,-0.000
 01303,0.00001339,0.00000616,0.00063010,-0.00097890,-0.00078627,0.00004
 808,0.00009595,0.00019081,0.00002975,-0.00001605,0.00005805,0.00001144
 ,0.00000913,-0.00000434,0.00000802,0.,0.00003112,0.00002976,0.00001605
 ,0.00005806,0.00001144,-0.00000913,-0.00000435,-0.00001303,-0.00001339
 ,0.00000615,0.00063026,0.00097909,-0.00078664,0.00004809,-0.00009594,0
 .00019082,0.01257968,0.00000087,0.06229962,-0.00002613,0.,-0.00001341,
 0.00003876,0.,0.00000621,-0.00001708,-0.00000200,-0.00000501,0.0000786
 6,-0.00004472,-0.00002359,0.00001259,-0.00001021,-0.00000313,0.0000872
 6,0.,0.00005089,0.00001260,0.00001021,-0.00000313,-0.00001708,0.000002
 00,-0.00000501,0.00007867,0.00004472,-0.00002360,0.00071033,0.00000001
 ,0.00055660,-0.00147504,-0.00000012,0.00309052,0.01277661,0.00000057,0
 .01590888,-0.12370012,-0.00000428,-0.11797314,-0.00893556,-0.00000089,
 -0.03135337,0.00313106,0.00000015,0.00064138,-0.00614921,-0.00000019,0
 .00145192,-0.00083157,0.00000002,0.00118371,-0.00023235,0.,0.00016566,
 -0.00000494,0.00000287,0.00000397,-0.00003389,0.00002537,-0.00001256,-
 0.00001125,0.00000540,-0.00000578,-0.00000446,0.00000327,-0.00000250,-
 0.00000110,0.00000098,-0.00000072,-0.00002156,0.,0.00003276,-0.0000044
 6,-0.00000327,-0.00000250,-0.00000110,-0.00000098,-0.00000072,-0.00000
 494,-0.00000287,0.00000397,-0.00003389,-0.00002537,-0.00001257,-0.0000
 1125,-0.00000540,-0.00000578,0.00102060,0.00000010,-0.00037895,0.12403
 490,0.,-0.00001927,0.,0.,0.00003275,0.,-0.00002966,-0.00001363,0.00000
 533,0.00011855,-0.00005351,-0.00000492,0.00001571,0.00000022,-0.000013
 63,0.,-0.00004731,0.,-0.00001572,0.00000022,0.00001363,0.00002966,-0.0
 0001363,-0.00000533,-0.00011857,-0.00005351,0.00000492,-0.00000001,0.0
 0046250,-0.00000002,-0.00000005,0.00742440,-0.00000010,-0.00000008,0.0
 0143094,-0.00000015,-0.00000433,-0.03253812,-0.00000749,-0.00000017,0.
 00384163,-0.00000068,0.00000012,-0.00403463,0.00000013,-0.00000022,0.0
 0499659,-0.00000006,-0.00000001,-0.00050408,0.00000006,0.00000001,-0.0
 0009087,-0.00000001,0.00000425,-0.00000283,-0.00000379,-0.00000275,0.0
 0000208,-0.00005527,-0.00001129,-0.00001739,-0.00001875,0.00000097,-0.
 00000273,-0.00000093,-0.00000200,-0.00000249,-0.00000064,0.,-0.0000017
 0,0.,-0.00000096,-0.00000273,0.00000093,0.00000200,-0.00000249,0.00000
 064,-0.00000425,-0.00000283,0.00000379,0.00000275,0.00000208,0.0000552
 7,0.00001129,-0.00001739,0.00001875,0.00000012,-0.00425066,0.00000011,
 0.00000465,0.02393445,0.00010158,0.,0.00001971,-0.00013167,0.,-0.00001
 136,0.00002980,-0.00002553,0.00001925,-0.00006092,0.00011608,-0.000035
 66,-0.00000499,0.00003026,0.00000332,-0.00017551,0.,-0.00005337,-0.000
 00499,-0.00003026,0.00000332,0.00002979,0.00002553,0.00001925,-0.00006
 091,-0.00011607,-0.00003566,-0.00116918,-0.00000004,-0.00049644,0.0040
 9546,-0.00000011,-0.00186783,-0.01407452,-0.00000069,-0.01817554,-0.11
 991941,-0.00000754,-0.28044600,0.00203076,-0.00000003,0.00048376,-0.00
 068629,0.00000011,0.00160344,0.00020837,-0.00000008,0.00111789,0.00073
 560,0.00000003,0.00024865,0.00044178,0.,-0.00022797,0.00002645,-0.0000
 0758,-0.00002598,0.00001897,-0.00000842,0.00001437,-0.00000045,-0.0000
 1349,-0.00000507,0.00001287,-0.00000740,-0.00000935,-0.00000394,-0.000
 00208,0.00000458,0.00003944,0.,-0.00006661,0.00001287,0.00000740,-0.00
 000935,-0.00000394,0.00000208,0.00000458,0.00002645,0.00000758,-0.0000
 2598,0.00001897,0.00000842,0.00001437,-0.00000046,0.00001349,-0.000005
 07,0.00006316,0.00000011,0.00109726,0.12835580,0.00000823,0.29673590,-
 0.00006299,0.,-0.00000474,0.00008441,0.,0.00000536,-0.00003199,0.00005
 842,-0.00002913,-0.00005829,-0.00013123,0.00014673,-0.00001250,-0.0000
 2036,-0.00000870,0.00004045,0.,-0.00001312,-0.00001250,0.00002036,-0.0
 0000870,-0.00003200,-0.00005842,-0.00002913,-0.00005829,0.00013123,0.0
 0014674,-0.00033572,-0.00000002,-0.00053255,0.00104739,-0.00000005,0.0
 0280489,0.00080898,0.00000002,-0.00011534,0.00027674,-0.00000014,-0.00
 311801,-0.01350613,-0.00000023,0.00432198,0.00189473,0.00000010,-0.000
 03799,-0.34418121,-0.00000552,-0.00666990,-0.01089149,-0.00000025,-0.0
 0191681,-0.00009555,0.,-0.00003857,-0.00002421,0.00000216,0.00003195,-
 0.00000010,-0.00000002,-0.00000819,0.00000950,0.00001269,0.00000197,-0
 .00000440,0.00000311,0.00001269,0.00000695,0.00000459,-0.00000231,-0.0
 0000450,0.,0.00003163,-0.00000440,-0.00000311,0.00001270,0.00000695,-0
 .00000459,-0.00000231,-0.00002421,-0.00000216,0.00003195,-0.00000010,0
 .00000002,-0.00000819,0.00000950,-0.00001269,0.00000197,-0.00008556,0.
 00000001,0.00000824,-0.00057653,-0.00000002,0.00016824,0.36484207,0.,-
 0.00002328,0.,0.,0.00006183,0.,-0.00000779,0.00001954,0.00001072,-0.00
 007012,0.00006290,0.00013693,-0.00000500,0.00000499,0.00001405,0.,0.00
 003197,0.,0.00000499,0.00000499,-0.00001405,0.00000780,0.00001954,-0.0
 0001071,0.00007012,0.00006290,-0.00013694,0.00000001,0.00030030,0.,-0.
 00000011,0.00694842,-0.00000020,0.00000002,-0.00065702,0.00000001,-0.0
 0000011,0.00519579,-0.00000025,-0.00000088,0.00405147,0.00000007,0.000
 00014,-0.00422487,0.00000014,-0.00000553,-0.03229817,-0.00000061,0.000
 00040,0.00129250,0.00000002,0.,-0.00010543,0.,-0.00000580,0.00000032,0
 .00001009,0.00000871,-0.00002865,0.00000512,0.00000305,-0.00001368,-0.
 00000168,0.00000166,0.00000162,0.00000462,-0.00000230,-0.00000651,-0.0
 0000148,0.,-0.00000083,0.,-0.00000166,0.00000162,-0.00000462,0.0000023
 0,-0.00000651,0.00000148,0.00000580,0.00000032,-0.00001009,-0.00000870
 ,-0.00002865,-0.00000512,-0.00000306,-0.00001368,0.00000168,0.00000002
 ,-0.00079258,0.00000002,-0.00000004,0.00034835,0.,0.00000600,0.0237991
 8,0.00004261,0.,0.00000822,-0.00006726,0.,-0.00000321,0.00004564,-0.00
 007895,0.00002485,0.00007491,0.00013865,-0.00021393,0.00000701,0.00001
 019,0.00002099,-0.00004363,0.,-0.00002062,0.00000701,-0.00001019,0.000
 02099,0.00004564,0.00007895,0.00002485,0.00007491,-0.00013866,-0.00021
 394,0.00097198,0.00000002,0.00064768,0.00193546,-0.00000018,-0.0044850
 8,0.00029881,0.,-0.00137202,-0.00183798,-0.00000024,-0.00528083,-0.029
 13348,-0.00000050,0.00490302,0.00126538,0.00000016,0.00284082,-0.00463
 647,-0.00000060,-0.05972344,0.02804966,0.00000056,0.00558285,0.0000792
 0,0.,0.00012749,0.00002442,-0.00000300,-0.00003716,0.00000666,0.000003
 61,0.00000753,-0.00000426,-0.00002314,0.00000276,-0.00000234,0.0000007
 4,-0.00000840,-0.00000517,-0.00000611,-0.00000025,0.00000529,0.,-0.000
 03120,-0.00000234,-0.00000074,-0.00000840,-0.00000517,0.00000611,-0.00
 000025,0.00002442,0.00000300,-0.00003717,0.00000667,-0.00000361,0.0000
 0754,-0.00000426,0.00002314,0.00000276,0.00002178,0.00000002,0.0001447
 8,-0.00155388,-0.00000004,0.00014442,0.00472295,0.00000071,0.05581416,
 0.00013055,0.,0.00000198,-0.00015599,0.,0.00001112,-0.00002495,0.00003
 989,-0.00001368,-0.00003176,0.00001796,0.00015617,0.00001737,0.0001370
 5,-0.00021763,0.00030027,0.00000005,0.00059972,0.00001739,-0.00013706,
 -0.00021765,-0.00002494,-0.00003987,-0.00001368,-0.00003172,-0.0000179
 8,0.00015615,0.00115094,0.00000008,-0.00171726,-0.01009499,-0.00000075
 ,-0.02834903,-0.00616221,-0.00000018,0.00128432,-0.00061045,0.00000001
 ,0.00087854,-0.00125392,-0.00000008,0.00273646,0.00038928,0.00000003,0
 .00116436,0.01144690,0.00000044,0.01642354,-0.13198750,-0.00000382,-0.
 12352619,-0.00094708,-0.00000011,0.00018449,0.00002082,-0.00001136,0.0
 0003420,0.00018853,-0.00009909,0.00003558,-0.00001980,0.00005065,-0.00
 002356,0.00010734,-0.00008722,-0.00000223,-0.00000592,0.00001185,0.000
 02868,-0.00002126,0.,-0.00003101,0.00010734,0.00008722,-0.00000222,-0.
 00000592,-0.00001185,0.00002868,0.00002083,0.00001136,0.00003420,0.000
 18854,0.00009910,0.00003558,-0.00001980,-0.00005064,-0.00002356,-0.000
 70438,-0.00000006,-0.00164648,0.00010750,0.00000001,-0.00008986,0.0009
 4831,0.00000007,-0.00037421,0.13703952,0.,0.00000524,0.,0.,-0.00001871
 ,0.,0.00009542,-0.00021934,0.00004670,0.00051760,0.00025482,-0.0005341
 6,0.00009185,0.00007638,-0.00007463,0.00000002,-0.00053495,0.00000002,
 -0.00009184,0.00007637,0.00007462,-0.00009542,-0.00021933,-0.00004670,
 -0.00051759,0.00025480,0.00053415,0.00000012,-0.00390724,-0.00000002,-
 0.00000022,0.00331042,-0.00000040,-0.00000023,0.00587885,-0.00000010,0
 .,-0.00059823,0.00000004,-0.00000006,0.00762999,-0.00000012,0.,0.00002
 823,-0.00000002,-0.00000013,0.00268604,-0.00000021,-0.00000385,-0.0356
 8454,-0.00000619,0.,0.00123888,-0.00000002,0.00003942,0.00000767,-0.00
 005777,-0.00000184,-0.00003580,0.00000551,0.00001590,-0.00004739,-0.00
 001282,0.00001603,-0.00003216,0.00000144,-0.00000492,-0.00003025,-0.00
 001375,0.,0.00001655,0.,-0.00001603,-0.00003216,-0.00000144,0.00000492
 ,-0.00003025,0.00001375,-0.00003941,0.00000767,0.00005777,0.00000184,-
 0.00003579,-0.00000550,-0.00001590,-0.00004738,0.00001281,-0.00000001,
 0.00036719,-0.00000003,0.00000001,-0.00079214,0.00000002,0.00000009,-0
 .00406419,0.00000009,0.00000420,0.02538672,-0.00004964,0.,0.00000077,0
 .00006102,0.,-0.00001467,-0.00001798,0.00005059,-0.00002899,-0.0001599
 0,-0.00016819,0.00006568,0.00002296,-0.00002500,-0.00001940,0.00059748
 ,0.,0.00009947,0.00002297,0.00002500,-0.00001940,-0.00001798,-0.000050
 59,-0.00002899,-0.00015990,0.00016819,0.00006567,-0.00006061,0.0000000
 5,-0.00101245,-0.00101879,-0.00000002,0.00368153,0.00023823,-0.0000000
 7,0.00116659,0.00073897,0.00000003,0.00025298,0.00388441,-0.00000010,-
 0.00125477,-0.00045245,-0.00000005,-0.00187895,-0.01471338,-0.00000068
 ,-0.02060861,-0.12445000,-0.00000631,-0.27008047,0.00258907,0.00000003
 ,-0.00221205,-0.00002301,0.00000230,0.00002507,-0.00000425,0.00002152,
 -0.00000044,0.00001365,0.00001993,0.00001466,0.00000042,-0.00000159,0.
 00000885,0.00000763,0.00000104,-0.00000162,-0.00004154,0.,0.00007005,0
 .00000042,0.00000159,0.00000885,0.00000763,-0.00000104,-0.00000162,-0.
 00002301,-0.00000230,0.00002507,-0.00000426,-0.00002152,-0.00000044,0.
 00001365,-0.00001992,0.00001466,0.00018151,0.,0.00012340,-0.00006591,0
 .00000001,-0.00005003,0.00009540,0.00000010,0.00114143,0.13072197,0.00
 000702,0.29271982,-0.00002684,0.00038740,-0.00000457,0.00024253,-0.000
 99397,0.00000354,-0.00011357,0.00050693,-0.00003051,0.00033479,-0.0015
 3642,0.00067373,0.00027143,-0.00141502,-0.00075326,-0.01217906,-0.0154
 5872,0.00045441,-0.00101186,0.00161852,0.00383739,0.00043229,0.0003955
 7,-0.00008601,-0.00143850,0.00163748,-0.00370755,-0.01235057,-0.015555
 56,-0.00085216,0.00012461,0.00019569,0.00091369,-0.00004454,0.00020028
 ,-0.00029418,-0.00007560,-0.00000458,0.00010159,0.00009481,-0.00007574
 ,0.00007443,0.00001969,0.00000704,-0.00002223,0.00018830,0.00002704,-0
 .00006738,-0.00019191,0.00062992,0.00049992,-0.13655776,-0.11861501,-0
 .00183187,-0.00005888,0.00004136,0.00001373,0.00038203,0.00024628,-0.0
 0002016,-0.00005112,0.00094454,-0.00023679,0.00041759,0.00019962,0.000
 01032,-0.00007556,0.00096687,0.00020994,0.00088331,0.00036387,-0.00005
 664,-0.00058537,-0.00106670,-0.00003262,0.00011944,-0.00023012,-0.0000
 2780,-0.00001545,0.00002060,0.00003770,-0.00062196,-0.00114104,0.00002
 678,0.00012318,-0.00021757,0.00002717,0.00001978,-0.00004208,0.0000524
 0,0.00000199,-0.00002955,-0.00001467,0.00001334,0.00001943,-0.00001997
 ,-0.00003942,0.00045123,0.00103271,0.14954888,-0.00019810,0.00015968,0
 .00000395,0.00028055,-0.00039928,-0.00001045,-0.00012142,0.00001425,0.
 00000785,0.00071902,0.00055353,0.00023654,0.00065770,0.00059982,-0.000
 32928,0.00071007,-0.00053439,0.00039590,0.00043411,0.00106308,0.000656
 20,0.00013111,0.00012479,-0.00002422,0.00013895,0.00099391,-0.00079185
 ,0.00048085,-0.00087983,-0.00038665,-0.00034720,0.00015627,0.00042855,
 0.00018010,0.00000824,-0.00031207,-0.00002341,0.00000191,0.00010804,-0
 .00003689,-0.00008445,-0.00002025,0.00002796,0.00000293,0.00011815,0.0
 0048800,0.00005405,0.00024482,-0.00114702,0.00057073,-0.00042640,-0.11
 869606,-0.21685496,-0.00171772,-0.00000334,0.00002180,-0.00000899,-0.0
 0001208,0.00020943,-0.00011095,-0.00015062,0.00051344,0.00011408,0.000
 02886,0.00020907,0.00010649,-0.00018542,0.00052415,-0.00007454,0.00002
 211,0.00011409,0.00053098,-0.00036524,0.00010622,-0.00009810,0.0001246
 4,0.00043129,-0.00012916,-0.00003986,-0.00003912,0.00000275,-0.0004055
 5,0.00011675,0.00008366,0.00012967,0.00043693,0.00014719,0.00007828,-0
 .00000742,0.00008036,0.00001589,-0.00000613,-0.00001181,0.00000148,0.0
 0002775,-0.00004052,0.00077748,-0.00044794,0.00007959,0.13191393,0.233
 37446,-0.00002059,-0.00002277,-0.00002078,0.00002792,0.00006063,-0.000
 05653,-0.00002717,-0.00001727,-0.00024302,0.00070628,-0.00112525,0.000
 92759,-0.00059707,0.00102634,0.00101657,0.01745041,0.02345166,-0.00036
 039,0.00317478,-0.00138431,-0.00506718,0.00006173,0.00007163,-0.000429
 92,-0.00299079,0.00100067,-0.00523964,-0.01626492,-0.02290696,-0.00019
 317,-0.00024073,-0.00029151,0.00151685,-0.00013227,0.00026240,-0.00026
 837,-0.00017554,0.00000450,0.00020736,0.00029394,0.00002897,0.00009119
 ,-0.00004649,-0.00000566,0.00009280,0.00020304,0.00007053,-0.00024606,
 0.00030953,-0.00016877,-0.00042602,-0.00182525,-0.00058338,-0.04739393
 ,-0.00000328,-0.00000317,0.00008338,0.00034724,0.00003615,-0.00006363,
 0.00005305,0.00068377,0.00008121,-0.00042333,0.00002985,-0.00006904,-0
 .00005508,-0.00072811,0.00003794,-0.00078213,0.00023117,0.00097709,0.0
 0140256,0.00142234,0.00006671,-0.00025464,-0.00031345,-0.00000671,0.00
 002240,-0.00000012,0.00027415,-0.00143610,-0.00147436,0.00017039,0.000
 19828,0.00023688,-0.00000936,0.00007333,-0.00006855,0.00009283,-0.0000
 0351,-0.00003028,0.00000661,-0.00000085,-0.00003817,-0.00001562,0.0008
 6633,-0.00092059,-0.00113592,-0.00028441,0.00130651,0.05607206,-0.0000
 2684,-0.00038740,-0.00000457,0.00024252,0.00099397,0.00000354,0.000432
 29,-0.00039557,-0.00008601,-0.00143850,-0.00163747,-0.00370755,-0.0010
 1187,-0.00161852,0.00383739,-0.01217910,0.01545877,0.00045447,0.000271
 42,0.00141503,-0.00075326,-0.00011358,-0.00050693,-0.00003051,0.000334
 77,0.00153641,0.00067376,-0.01235055,0.01555550,-0.00085214,0.00012468
 ,-0.00019572,0.00091372,-0.00004453,-0.00020031,-0.00029420,-0.0000756
 2,0.00000458,0.00010160,0.00009483,0.00007574,0.00007443,0.00001969,-0
 .00000704,-0.00002224,0.00018826,-0.00002704,-0.00006741,-0.00019181,-
 0.00062986,0.00049983,-0.13655754,0.11861529,-0.00183207,-0.00001545,-
 0.00002060,0.00003770,-0.00062196,0.00114104,0.00002678,0.00012318,0.0
 0021757,0.00002717,-0.00058537,0.00106670,-0.00003262,0.00011944,0.000
 23012,-0.00002780,0.00088331,-0.00036387,-0.00005664,0.00041759,-0.000
 19962,0.00001032,-0.00007558,-0.00096690,0.00020994,-0.00005888,-0.000
 04136,0.00001373,0.00038204,-0.00024628,-0.00002016,-0.00005111,-0.000
 94451,-0.00023677,0.00001977,0.00004208,0.00005239,0.00000199,0.000029
 55,-0.00001467,0.00001334,-0.00001943,-0.00001996,-0.00003942,-0.00045
 121,0.00103251,0.01222002,-0.01560857,0.00037333,0.14954857,0.00019810
 ,0.00015968,-0.00000395,-0.00028055,-0.00039928,0.00001045,-0.00013111
 ,0.00012479,0.00002422,-0.00013896,0.00099390,0.00079183,-0.00043411,0
 .00106308,-0.00065621,-0.00071001,-0.00053443,-0.00039589,-0.00065771,
 0.00059983,0.00032929,0.00012143,0.00001425,-0.00000784,-0.00071901,0.
 00055352,-0.00023654,-0.00048089,-0.00087978,0.00038662,0.00034718,0.0
 0015626,-0.00042855,-0.00018009,0.00000824,0.00031208,0.00002342,0.000
 00190,-0.00010804,0.00003687,-0.00008445,0.00002025,-0.00002796,0.0000
 0293,-0.00011814,-0.00048797,0.00005404,-0.00024477,0.00114689,0.00057
 079,0.00042637,0.11869641,-0.21685595,0.00171802,0.00003986,-0.0000391
 2,-0.00000275,0.00040554,0.00011675,-0.00008366,-0.00012967,0.00043692
 ,-0.00014719,0.00036524,0.00010622,0.00009810,-0.00012464,0.00043129,0
 .00012916,-0.00002211,0.00011409,-0.00053097,-0.00002886,0.00020907,-0
 .00010649,0.00018541,0.00052415,0.00007454,0.00000334,0.00002180,0.000
 00899,0.00001208,0.00020943,0.00011095,0.00015061,0.00051344,-0.000114
 07,-0.00007828,-0.00000743,-0.00008035,-0.00001589,-0.00000613,0.00001
 181,-0.00000148,0.00002776,0.00004051,-0.00077738,-0.00044805,-0.00007
 961,0.01560847,-0.02113505,0.00015868,-0.13191415,0.23337552,-0.000020
 59,0.00002277,-0.00002078,0.00002792,-0.00006063,-0.00005653,0.0000617
 3,-0.00007163,-0.00042992,-0.00299080,-0.00100066,-0.00523963,0.003174
 79,0.00138431,-0.00506719,0.01745047,-0.02345172,-0.00036044,-0.000597
 07,-0.00102634,0.00101657,-0.00002717,0.00001727,-0.00024302,0.0007062
 7,0.00112525,0.00092759,-0.01626484,0.02290695,-0.00019328,-0.00024081
 ,0.00029156,0.00151688,-0.00013226,-0.00026243,-0.00026838,-0.00017556
 ,-0.00000449,0.00020736,0.00029394,-0.00002896,0.00009119,-0.00004649,
 0.00000567,0.00009279,0.00020304,-0.00007053,-0.00024607,0.00030950,0.
 00016875,-0.00042590,-0.00182549,0.00058379,-0.04739388,0.00002240,0.0
 0000012,0.00027415,-0.00143609,0.00147436,0.00017040,0.00019827,-0.000
 23689,-0.00000936,0.00140257,-0.00142234,0.00006671,-0.00025464,0.0003
 1345,-0.00000671,-0.00078212,-0.00023117,0.00097709,-0.00042333,-0.000
 02985,-0.00006904,-0.00005508,0.00072812,0.00003793,-0.00000328,0.0000
 0317,0.00008338,0.00034724,-0.00003615,-0.00006363,0.00005306,-0.00068
 377,0.00008119,0.00007333,0.00006856,0.00009281,-0.00000351,0.00003028
 ,0.00000660,-0.00000085,0.00003817,-0.00001562,0.00086616,0.00092054,-
 0.00113574,0.00037331,-0.00015866,-0.00046943,-0.00028404,-0.00130685,
 0.05607189\\-0.00006981,0.,0.00003110,-0.00001042,0.,0.00002840,0.0000
 3217,-0.00003635,-0.00007283,-0.00000114,-0.00002821,0.00002833,-0.000
 00938,-0.00004157,0.00001026,0.00002251,0.00000018,0.00004594,-0.00000
 928,0.00004169,0.00001020,0.00003213,0.00003638,-0.00007287,-0.0000009
 6,0.00002820,0.00002863,0.00000632,-0.00000002,0.00000730,0.00002125,-
 0.00000082,-0.00000722,-0.00000847,0.00000030,0.00001942,-0.00002357,0
 .00000019,0.00000661,0.00003850,-0.00000024,0.00000236,-0.00001502,0.0
 0000003,0.00000802,-0.00000278,0.00000026,-0.00001298,-0.00000865,0.00
 000007,-0.00000126,-0.00002981,0.00000006,0.00001250,-0.00000208,0.000
 00561,-0.00000197,-0.00000407,0.00001137,-0.00001836,0.00000787,0.0000
 0813,-0.00000294,0.00000548,0.00000516,0.00000450,0.00000026,-0.000002
 82,-0.00001129,0.00000673,0.,-0.00000525,0.00000548,-0.00000525,0.0000
 0449,0.00000024,0.00000282,-0.00001124,-0.00000208,-0.00000560,-0.0000
 0207,-0.00000446,-0.00001151,-0.00001802,0.00000792,-0.00000811,-0.000
 00288,-0.00000924,0.00000018,0.00001167,0.00000031,0.,-0.00001379,0.00
 000771,-0.00000002,-0.00000018,0.00000964,0.00000003,0.00001237,0.0000
 0317,0.00000492,-0.00000827,0.00000354,-0.00000505,-0.00000869\\\@


 ADAM SMITH SAID, "THE REAL PRICE OF ANYTHING IS THE TOIL AND TROUBLE
 OF ACQUIRING IT."  BUT IN ALL UNDERTAKINGS WITH NATURE WE SHOULD FIRST
 READ CAREFULLY THE SMALL PRINT IN THE CONTRACT. THIS MIGHT DISCLOSE
 THAT THE REAL PRICE IS TO BE PAID BY THOSE WHO INHERIT THE DEPLETION
 AND DESPOILATION THAT FOLLOWS.
                               -- E. R. HARRISON IN "COSMOLOGY" (1980)
 Job cpu time:       0 days  0 hours  5 minutes 54.3 seconds.
 Elapsed time:       0 days  0 hours  6 minutes 24.1 seconds.
 File lengths (MBytes):  RWF=    383 Int=      0 D2E=      0 Chk=     11 Scr=      1
 Normal termination of Gaussian 16 at Fri Feb 23 23:09:56 2024.
