 Entering Gaussian System, Link 0=g16
 Input=/Volumes/SSD-PMU3/b3lyp_6-31gd_freq/QFVBBSYSSMMVFR-QBENWVRFSA-N_calculating/gaussianinput1.gjf
 Output=/Volumes/SSD-PMU3/b3lyp_6-31gd_freq/QFVBBSYSSMMVFR-QBENWVRFSA-N_calculating/gaussianinput1.log
 Initial command:
 /Applications/g16/l1.exe "/Users/macmini_m1_2022/PycharmProjects/sphere_model/sphere_model_lib/Gau-78114.inp" -scrdir="/Users/macmini_m1_2022/PycharmProjects/sphere_model/sphere_model_lib/"
 Entering Link 1 = /Applications/g16/l1.exe PID=     78115.
  
 Copyright (c) 1988,1990,1992,1993,1995,1998,2003,2009,2016,
            Gaussian, Inc.  All Rights Reserved.
  
 This is part of the Gaussian(R) 16 program.  It is based on
 the Gaussian(R) 09 system (copyright 2009, Gaussian, Inc.),
 the Gaussian(R) 03 system (copyright 2003, Gaussian, Inc.),
 the Gaussian(R) 98 system (copyright 1998, Gaussian, Inc.),
 the Gaussian(R) 94 system (copyright 1995, Gaussian, Inc.),
 the Gaussian 92(TM) system (copyright 1992, Gaussian, Inc.),
 the Gaussian 90(TM) system (copyright 1990, Gaussian, Inc.),
 the Gaussian 88(TM) system (copyright 1988, Gaussian, Inc.),
 the Gaussian 86(TM) system (copyright 1986, Carnegie Mellon
 University), and the Gaussian 82(TM) system (copyright 1983,
 Carnegie Mellon University). Gaussian is a federally registered
 trademark of Gaussian, Inc.
  
 This software contains proprietary and confidential information,
 including trade secrets, belonging to Gaussian, Inc.
  
 This software is provided under written license and may be
 used, copied, transmitted, or stored only in accord with that
 written license.
  
 The following legend is applicable only to US Government
 contracts under FAR:
  
                    RESTRICTED RIGHTS LEGEND
  
 Use, reproduction and disclosure by the US Government is
 subject to restrictions as set forth in subparagraphs (a)
 and (c) of the Commercial Computer Software - Restricted
 Rights clause in FAR 52.227-19.
  
 Gaussian, Inc.
 340 Quinnipiac St., Bldg. 40, Wallingford CT 06492
  
  
 ---------------------------------------------------------------
 Warning -- This program may not be used in any manner that
 competes with the business of Gaussian, Inc. or will provide
 assistance to any competitor of Gaussian, Inc.  The licensee
 of this program is prohibited from giving any competitor of
 Gaussian, Inc. access to this program.  By using this program,
 the user acknowledges that Gaussian, Inc. is engaged in the
 business of creating and licensing software in the field of
 computational chemistry and represents and warrants to the
 licensee that it is not a competitor of Gaussian, Inc. and that
 it will not use this program in any manner prohibited above.
 ---------------------------------------------------------------
  

 Cite this work as:
 Gaussian 16, Revision A.03,
 M. J. Frisch, G. W. Trucks, H. B. Schlegel, G. E. Scuseria, 
 M. A. Robb, J. R. Cheeseman, G. Scalmani, V. Barone, 
 G. A. Petersson, H. Nakatsuji, X. Li, M. Caricato, A. V. Marenich, 
 J. Bloino, B. G. Janesko, R. Gomperts, B. Mennucci, H. P. Hratchian, 
 J. V. Ortiz, A. F. Izmaylov, J. L. Sonnenberg, D. Williams-Young, 
 F. Ding, F. Lipparini, F. Egidi, J. Goings, B. Peng, A. Petrone, 
 T. Henderson, D. Ranasinghe, V. G. Zakrzewski, J. Gao, N. Rega, 
 G. Zheng, W. Liang, M. Hada, M. Ehara, K. Toyota, R. Fukuda, 
 J. Hasegawa, M. Ishida, T. Nakajima, Y. Honda, O. Kitao, H. Nakai, 
 T. Vreven, K. Throssell, J. A. Montgomery, Jr., J. E. Peralta, 
 F. Ogliaro, M. J. Bearpark, J. J. Heyd, E. N. Brothers, K. N. Kudin, 
 V. N. Staroverov, T. A. Keith, R. Kobayashi, J. Normand, 
 K. Raghavachari, A. P. Rendell, J. C. Burant, S. S. Iyengar, 
 J. Tomasi, M. Cossi, J. M. Millam, M. Klene, C. Adamo, R. Cammi, 
 J. W. Ochterski, R. L. Martin, K. Morokuma, O. Farkas, 
 J. B. Foresman, and D. J. Fox, Gaussian, Inc., Wallingford CT, 2016.
 
 ******************************************
 Gaussian 16:  EM64M-G16RevA.03 25-Dec-2016
                23-Feb-2024 
 ******************************************
 %nprocshared=10
 Will use up to   10 processors via shared memory.
 %mem=12GB
 %chk= 1.chk
 ---------------------
 # freq b3lyp/6-31g(d)
 ---------------------
 1/10=4,30=1,38=1/1,3;
 2/12=2,17=6,18=5,40=1/2;
 3/5=1,6=6,7=1,11=2,25=1,30=1,71=2,74=-5,140=1/1,2,3;
 4//1;
 5/5=2,38=5,98=1/2;
 8/6=4,10=90,11=11/1;
 11/6=1,8=1,9=11,15=111,16=1/1,2,10;
 10/6=1/2;
 6/7=2,8=2,9=2,10=2,28=1/1;
 7/8=1,10=1,25=1/1,2,3,16;
 1/10=4,30=1/3;
 99//99;
 ---------
 good luck
 ---------
 Symbolic Z-matrix:
 Charge =  0 Multiplicity = 1
 O                     1.21616   0.        0. 
 C                     0.        0.        0. 
 C                    -0.85025  -1.26607  -0.00074 
 C                    -1.75413  -1.25695   1.25668 
 C                    -1.72976  -1.26203  -1.27477 
 C                    -2.6258   -0.0094   -1.27199 
 C                    -1.74122   1.25308  -1.26946 
 C                    -0.85225   1.26368  -0.00074 
 C                    -1.75017   1.24918   1.26083 
 C                    -2.66975  -0.00671   1.28295 
 C                    -3.58157   0.03192   2.51648 
 C                    -3.57182  -0.96458   3.50329 
 C                    -4.41331  -0.90526   4.61694 
 C                    -5.27982   0.1696    4.74548 
 F                    -6.09769   0.23671   5.81781 
 C                    -5.32578   1.18134   3.79351 
 C                    -4.47785   1.1017    2.69146 
 C                    -3.52334  -0.01639  -0.01848 
 H                    -0.18196  -2.13289   0.01509 
 H                    -1.12604  -1.28458   2.15636 
 H                    -2.36151  -2.17184   1.25961 
 H                    -1.09605  -1.27961  -2.17098 
 H                    -2.34305  -2.17304  -1.29692 
 H                    -3.2586   -0.00995  -2.16897 
 H                    -1.11346   1.28174  -2.16951 
 H                    -2.36408   2.15794  -1.28431 
 H                    -0.18704   2.13309   0.00861 
 H                    -1.13169   1.26577   2.16743 
 H                    -2.35493   2.16432   1.27617 
 H                    -2.901    -1.81199   3.42001 
 H                    -4.40032  -1.67967   5.37707 
 H                    -6.01444   2.01015   3.92208 
 H                    -4.52189   1.89748   1.95343 
 H                    -4.18787   0.85634  -0.03722 
 H                    -4.17072  -0.9035   -0.0193 
 

 GradGradGradGradGradGradGradGradGradGradGradGradGradGradGradGradGradGrad
 Berny optimization.
 Initialization pass.
 Trust Radius=3.00D-01 FncErr=1.00D-07 GrdErr=1.00D-07 EigMax=2.50D+02 EigMin=1.00D-04
 Number of steps in this run=      2 maximum allowed number of steps=      2.
 GradGradGradGradGradGradGradGradGradGradGradGradGradGradGradGradGradGrad

                          Input orientation:                          
 ---------------------------------------------------------------------
 Center     Atomic      Atomic             Coordinates (Angstroms)
 Number     Number       Type             X           Y           Z
 ---------------------------------------------------------------------
      1          8           0        1.216162    0.000000    0.000000
      2          6           0        0.000000    0.000000    0.000000
      3          6           0       -0.850246   -1.266071   -0.000735
      4          6           0       -1.754125   -1.256953    1.256681
      5          6           0       -1.729755   -1.262026   -1.274767
      6          6           0       -2.625804   -0.009396   -1.271991
      7          6           0       -1.741215    1.253076   -1.269456
      8          6           0       -0.852254    1.263678   -0.000735
      9          6           0       -1.750170    1.249181    1.260829
     10          6           0       -2.669745   -0.006714    1.282949
     11          6           0       -3.581567    0.031917    2.516479
     12          6           0       -3.571824   -0.964575    3.503292
     13          6           0       -4.413307   -0.905255    4.616936
     14          6           0       -5.279824    0.169599    4.745479
     15          9           0       -6.097687    0.236709    5.817807
     16          6           0       -5.325778    1.181336    3.793510
     17          6           0       -4.477848    1.101699    2.691463
     18          6           0       -3.523336   -0.016385   -0.018478
     19          1           0       -0.181961   -2.132887    0.015088
     20          1           0       -1.126039   -1.284578    2.156363
     21          1           0       -2.361507   -2.171836    1.259608
     22          1           0       -1.096053   -1.279608   -2.170978
     23          1           0       -2.343053   -2.173039   -1.296917
     24          1           0       -3.258596   -0.009945   -2.168971
     25          1           0       -1.113457    1.281744   -2.169511
     26          1           0       -2.364076    2.157942   -1.284312
     27          1           0       -0.187044    2.133094    0.008607
     28          1           0       -1.131686    1.265773    2.167427
     29          1           0       -2.354933    2.164318    1.276165
     30          1           0       -2.900995   -1.811985    3.420013
     31          1           0       -4.400316   -1.679666    5.377070
     32          1           0       -6.014439    2.010146    3.922084
     33          1           0       -4.521893    1.897480    1.953425
     34          1           0       -4.187872    0.856344   -0.037223
     35          1           0       -4.170719   -0.903499   -0.019301
 ---------------------------------------------------------------------
                    Distance matrix (angstroms):
                    1          2          3          4          5
     1  O    0.000000
     2  C    1.216162   0.000000
     3  C    2.423423   1.525075   0.000000
     4  C    3.461471   2.497225   1.548604   0.000000
     5  C    3.449082   2.491946   1.548131   2.531570   0.000000
     6  C    4.047067   2.917687   2.519510   2.951339   1.540128
     7  C    3.453664   2.492699   2.957969   3.561149   2.515134
     8  C    2.423887   1.524211   2.529750   2.957710   2.961815
     9  C    3.456771   2.492637   2.954302   2.506141   3.568729
    10  C    4.092221   2.962016   2.558203   1.549886   3.000217
    11  C    5.417738   4.377363   3.934622   2.566675   4.413280
    12  C    6.010680   5.095232   4.447032   2.904613   5.129478
    13  C    7.336655   6.450803   5.843670   4.299564   6.483896
    14  C    8.046500   7.101048   6.648974   5.161135   7.134136
    15  F    9.348545   8.431174   7.978058   6.473131   8.463430
    16  C    7.653970   6.644560   6.357396   5.013727   6.677487
    17  C    6.393705   5.339367   5.100369   3.878209   5.373099
    18  C    4.739562   3.523423   2.950837   2.509013   2.519289
    19  H    2.550330   2.140688   1.094635   2.186438   2.194947
    20  H    3.433067   2.751001   2.174736   1.097580   3.483911
    21  H    4.370721   3.446766   2.166284   1.098150   2.765849
    22  H    3.420070   2.748067   2.184161   3.490332   1.097762
    23  H    4.367162   3.448766   2.175121   2.776133   1.098440
    24  H    4.972725   3.914458   3.475521   3.943799   2.169023
    25  H    3.431730   2.754892   3.356223   4.312103   2.766072
    26  H    4.373131   3.448917   3.957665   4.300023   3.478309
    27  H    2.553263   2.141296   3.463271   3.937747   3.943836
    28  H    3.436904   2.753295   3.345201   2.753368   4.312326
    29  H    4.366416   3.443629   3.957540   3.473679   4.317167
    30  H    5.650731   4.836895   4.025557   2.510653   4.869827
    31  H    7.954809   7.148212   6.457155   4.915142   7.180060
    32  H    8.467882   7.456333   7.265741   5.994046   7.488183
    33  H    6.351502   5.278619   5.225685   4.253991   5.310342
    34  H    5.471590   4.274691   3.955468   3.473231   3.472945
    35  H    5.462158   4.267503   3.340261   2.755537   2.768220
                    6          7          8          9         10
     6  C    0.000000
     7  C    1.541538   0.000000
     8  C    2.526319   1.549199   0.000000
     9  C    2.960731   2.530304   1.548550   0.000000
    10  C    2.555319   2.993996   2.562228   1.556721   0.000000
    11  C    3.907390   4.383084   3.911873   2.532272   1.534441
    12  C    4.960912   5.572094   4.963807   3.639750   2.580924
    13  C    6.219099   6.815283   6.221596   4.795555   3.868185
    14  C    6.579195   7.062232   6.582320   5.076095   4.339667
    15  F    7.898087   8.380999   7.900928   6.379032   5.689901
    16  C    5.862338   6.203859   5.866472   4.382242   3.843031
    17  C    4.513709   4.816737   4.518750   3.083617   2.545924
    18  C    1.541722   2.520403   2.962019   2.526341   1.556414
    19  H    3.483986   3.942851   3.462109   3.930590   3.509580
    20  H    3.953352   4.307478   3.349871   2.758887   2.186050
    21  H    3.339909   4.302435   3.958417   3.475211   2.187078
    22  H    2.182144   2.764682   3.352267   4.312765   4.003296
    23  H    2.182183   3.478682   3.964037   4.313370   3.384583
    24  H    1.097725   2.169515   3.480495   3.952755   3.501786
    25  H    2.181692   1.097725   2.184523   3.489082   4.000205
    26  H    2.183119   1.098617   2.175519   2.771366   3.371943
    27  H    3.489663   2.196207   1.094749   2.189229   3.516608
    28  H    3.960813   3.490537   2.186095   1.097596   2.183380
    29  H    3.360283   2.772580   2.167872   1.097018   2.193749
    30  H    5.033881   5.721085   5.035728   3.918828   2.807049
    31  H    7.081575   7.736155   7.083276   5.704810   4.749260
    32  H    6.522255   6.766512   6.526398   5.083831   4.713781
    33  H    4.199362   4.305158   4.205555   2.929578   2.739698
    34  H    2.171224   2.768018   3.360595   2.789561   2.189163
    35  H    2.180691   3.480832   3.963485   3.483076   2.180138
                   11         12         13         14         15
    11  C    0.000000
    12  C    1.402459   0.000000
    13  C    2.445813   1.397074   0.000000
    14  C    2.805615   2.397216   1.386610   0.000000
    15  F    4.155907   3.630433   2.362903   1.350293   0.000000
    16  C    2.448315   2.786667   2.421672   1.389953   2.363460
    17  C    1.406546   2.397798   2.781991   2.393942   3.625757
    18  C    2.536086   3.647503   4.803041   5.080859   6.383852
    19  H    4.743485   5.002369   6.370901   7.325725   8.618721
    20  H    2.809352   2.810424   4.123644   5.106083   6.359070
    21  H    2.815102   2.820721   4.133493   5.113726   6.366892
    22  H    5.465357   6.198873   7.564396   8.212278   9.546531
    23  H    4.575777   5.100223   6.392721   7.114993   8.397825
    24  H    4.696755   5.760555   6.941432   7.206054   8.479970
    25  H    5.441703   6.578010   7.856707   8.149391   9.472692
    26  H    4.521977   5.842082   6.957532   6.986664   8.250520
    27  H    4.714568   5.767592   6.951946   7.227010   8.501693
    28  H    2.765168   3.565566   4.634921   5.005497   6.248633
    29  H    2.755022   4.028758   4.981961   4.956817   6.192770
    30  H    2.163221   1.083998   2.131167   3.367842   4.490590
    31  H    3.432615   2.169977   1.085212   2.142947   2.597655
    32  H    3.436274   3.871785   3.397941   2.145985   2.597263
    33  H    2.163693   3.390587   3.867998   3.369807   4.491629
    34  H    2.751123   4.028710   4.981491   4.953606   6.189727
    35  H    2.766276   3.573663   4.642580   5.008471   6.251809
                   16         17         18         19         20
    16  C    0.000000
    17  C    1.392780   0.000000
    18  C    4.383444   3.083016   0.000000
    19  H    7.191620   6.006678   3.955439   0.000000
    20  H    5.137975   4.149129   3.476389   2.489171   0.000000
    21  H    5.143085   4.152727   2.762122   2.510133   1.765723
    22  H    7.715046   6.383611   3.481478   2.518439   4.327448
    23  H    6.786820   5.584661   2.771034   2.528495   3.767709
    24  H    6.422116   5.132850   2.166737   4.329282   4.988086
    25  H    7.301462   5.914441   3.481321   4.159310   5.029846
    26  H    5.959003   4.624983   2.770184   4.986109   5.022143
    27  H    6.452745   5.164542   3.968859   4.265989   4.144279
    28  H    4.499076   3.390919   3.484552   4.133453   2.550381
    29  H    4.016117   2.763873   2.792263   4.977760   3.765609
    30  H    3.870277   3.392168   3.928703   4.369169   2.241749
    31  H    3.398452   3.867103   5.713802   6.837454   4.609766
    32  H    1.085224   2.168137   5.083350   8.151512   6.153814
    33  H    2.131902   1.086235   2.923764   6.231855   4.658165
    34  H    4.009360   2.754998   1.097094   4.998556   4.332457
    35  H    4.496468   3.385763   1.098215   4.174059   3.761491
                   21         22         23         24         25
    21  H    0.000000
    22  H    3.763823   0.000000
    23  H    2.556592   1.765562   0.000000
    24  H    4.151349   2.507716   2.505528   0.000000
    25  H    5.024311   2.561412   3.769463   2.504013   0.000000
    26  H    5.021804   3.769723   4.331050   2.506496   1.765035
    27  H    4.982541   4.150111   4.989544   4.332308   2.515400
    28  H    3.762147   5.030109   5.029365   4.995553   4.337006
    29  H    4.336191   5.032713   5.043169   4.172887   3.767344
    30  H    2.255635   5.899188   4.763516   5.883194   6.633945
    31  H    4.620873   8.249317   7.001275   7.812441   8.747816
    32  H    6.158057   8.493433   7.629946   6.984010   7.852243
    33  H    4.659183   6.232252   5.646343   4.714694   5.384716
    34  H    3.766597   4.321406   3.763954   2.481604   3.765587
    35  H    2.552946   3.771570   2.566008   2.500298   4.329612
                   26         27         28         29         30
    26  H    0.000000
    27  H    2.532138   0.000000
    28  H    3.772168   2.510995   0.000000
    29  H    2.560501   2.511458   1.760132   0.000000
    30  H    6.178938   5.879360   3.764574   4.550303   0.000000
    31  H    7.952831   7.817237   5.446224   5.981407   2.468916
    32  H    6.360311   7.020609   5.241583   4.518478   4.955229
    33  H    3.899610   4.756968   3.455192   2.285957   4.305615
    34  H    2.564297   4.199859   3.790565   2.606808   4.552858
    35  H    3.773146   5.009126   4.327036   3.792995   3.777092
                   31         32         33         34         35
    31  H    0.000000
    32  H    4.282183   0.000000
    33  H    4.952989   2.473056   0.000000
    34  H    5.982562   4.510401   2.271170   0.000000
    35  H    5.456736   5.236711   3.443901   1.760018   0.000000
 Stoichiometry    C16H17FO
 Framework group  C1[X(C16H17FO)]
 Deg. of freedom    99
 Full point group                 C1      NOp   1
 Largest Abelian subgroup         C1      NOp   1
 Largest concise Abelian subgroup C1      NOp   1
                         Standard orientation:                         
 ---------------------------------------------------------------------
 Center     Atomic      Atomic             Coordinates (Angstroms)
 Number     Number       Type             X           Y           Z
 ---------------------------------------------------------------------
      1          8           0       -3.688713   -1.498700   -1.385279
      2          6           0       -2.905222   -0.812677   -0.757136
      3          6           0       -2.393018   -1.165389    0.635379
      4          6           0       -0.849377   -1.277272    0.582187
      5          6           0       -2.800079   -0.030566    1.606556
      6          6           0       -2.186074    1.297353    1.125283
      7          6           0       -2.719126    1.627427   -0.282995
      8          6           0       -2.321809    0.499556   -1.267913
      9          6           0       -0.779491    0.366707   -1.308100
     10          6           0       -0.204874    0.048385    0.103234
     11          6           0        1.326443   -0.027682    0.041677
     12          6           0        2.046877   -1.181222    0.384039
     13          6           0        3.441819   -1.223507    0.319506
     14          6           0        4.128013   -0.091958   -0.094524
     15          9           0        5.476374   -0.121818   -0.160259
     16          6           0        3.457961    1.074639   -0.443880
     17          6           0        2.067168    1.094136   -0.372115
     18          6           0       -0.649950    1.173245    1.082531
     19          1           0       -2.835411   -2.120365    0.936270
     20          1           0       -0.567120   -2.098891   -0.088601
     21          1           0       -0.481129   -1.537834    1.583403
     22          1           0       -3.893817    0.047827    1.658249
     23          1           0       -2.447080   -0.272725    2.618149
     24          1           0       -2.464013    2.101747    1.818607
     25          1           0       -3.810695    1.741511   -0.261479
     26          1           0       -2.304206    2.581322   -0.636386
     27          1           0       -2.719190    0.691469   -2.269778
     28          1           0       -0.484540   -0.423866   -2.010037
     29          1           0       -0.352870    1.302075   -1.690893
     30          1           0        1.527635   -2.075393    0.709454
     31          1           0        3.993041   -2.119651    0.585526
     32          1           0        4.022798    1.944024   -0.764569
     33          1           0        1.553432    2.010821   -0.647201
     34          1           0       -0.212042    2.131453    0.776444
     35          1           0       -0.258031    0.955383    2.085034
 ---------------------------------------------------------------------
 Rotational constants (GHZ):           1.1051291           0.2310891           0.2232468
 Standard basis: 6-31G(d) (6D, 7F)
 There are   304 symmetry adapted cartesian basis functions of A   symmetry.
 There are   304 symmetry adapted basis functions of A   symmetry.
   304 basis functions,   572 primitive gaussians,   304 cartesian basis functions
    65 alpha electrons       65 beta electrons
       nuclear repulsion energy      1335.8378069084 Hartrees.
 NAtoms=   35 NActive=   35 NUniq=   35 SFac= 1.00D+00 NAtFMM=   60 NAOKFM=F Big=F
 Integral buffers will be    131072 words long.
 Raffenetti 2 integral format.
 Two-electron integral symmetry is turned on.
 One-electron integrals computed using PRISM.
 NBasis=   304 RedAO= T EigKep=  4.23D-04  NBF=   304
 NBsUse=   304 1.00D-06 EigRej= -1.00D+00 NBFU=   304
 ExpMin= 1.61D-01 ExpMax= 7.00D+03 ExpMxC= 1.05D+03 IAcc=3 IRadAn=         5 AccDes= 0.00D+00
 Harris functional with IExCor=  402 and IRadAn=       5 diagonalized for initial guess.
 HarFok:  IExCor=  402 AccDes= 0.00D+00 IRadAn=         5 IDoV= 1 UseB2=F ITyADJ=14
 ICtDFT=  3500011 ScaDFX=  1.000000  1.000000  1.000000  1.000000
 FoFCou: FMM=F IPFlag=           0 FMFlag=      100000 FMFlg1=           0
         NFxFlg=           0 DoJE=T BraDBF=F KetDBF=T FulRan=T
         wScrn=  0.000000 ICntrl=       500 IOpCl=  0 I1Cent=   200000004 NGrid=           0
         NMat0=    1 NMatS0=      1 NMatT0=    0 NMatD0=    1 NMtDS0=    0 NMtDT0=    0
 Petite list used in FoFCou.
 Requested convergence on RMS density matrix=1.00D-08 within 128 cycles.
 Requested convergence on MAX density matrix=1.00D-06.
 Requested convergence on             energy=1.00D-06.
 No special actions if energy rises.
 Integral accuracy reduced to 1.0D-05 until final iterations.
 Initial convergence to 1.0D-05 achieved.  Increase integral accuracy.
 SCF Done:  E(RB3LYP) =  -795.016316787     A.U. after   14 cycles
            NFock= 14  Conv=0.72D-08     -V/T= 2.0092
 DoSCS=F DFT=T ScalE2(SS,OS)=  1.000000  1.000000
 Range of M.O.s used for correlation:     1   304
 NBasis=   304 NAE=    65 NBE=    65 NFC=     0 NFV=     0
 NROrb=    304 NOA=    65 NOB=    65 NVA=   239 NVB=   239

 **** Warning!!: The largest alpha MO coefficient is  0.12601362D+02

 Symmetrizing basis deriv contribution to polar:
 IMax=3 JMax=2 DiffMx= 0.00D+00
 G2DrvN: will do    36 centers at a time, making    1 passes.
 Calling FoFCou, ICntrl=  3107 FMM=F I1Cent=   0 AccDes= 0.00D+00.
 End of G2Drv F.D. properties file   721 does not exist.
 End of G2Drv F.D. properties file   722 does not exist.
 End of G2Drv F.D. properties file   788 does not exist.
          IDoAtm=11111111111111111111111111111111111
          Differentiating once with respect to electric field.
                with respect to dipole field.
          Differentiating once with respect to nuclear coordinates.
 Keep R1 ints in memory in canonical form, NReq=1088850528.
          There are   108 degrees of freedom in the 1st order CPHF.  IDoFFX=6 NUNeed=     3.
    105 vectors produced by pass  0 Test12= 1.55D-14 1.00D-09 XBig12= 1.73D+02 7.01D+00.
 AX will form   105 AO Fock derivatives at one time.
    105 vectors produced by pass  1 Test12= 1.55D-14 1.00D-09 XBig12= 2.74D+01 1.20D+00.
    105 vectors produced by pass  2 Test12= 1.55D-14 1.00D-09 XBig12= 2.58D-01 5.76D-02.
    105 vectors produced by pass  3 Test12= 1.55D-14 1.00D-09 XBig12= 1.04D-03 7.29D-03.
    105 vectors produced by pass  4 Test12= 1.55D-14 1.00D-09 XBig12= 1.54D-06 1.53D-04.
     72 vectors produced by pass  5 Test12= 1.55D-14 1.00D-09 XBig12= 1.29D-09 4.71D-06.
      8 vectors produced by pass  6 Test12= 1.55D-14 1.00D-09 XBig12= 1.05D-12 1.68D-07.
      3 vectors produced by pass  7 Test12= 1.55D-14 1.00D-09 XBig12= 8.65D-16 2.89D-09.
 InvSVY:  IOpt=1 It=  1 EMax= 8.88D-15
 Solved reduced A of dimension   608 with   108 vectors.
 Isotropic polarizability for W=    0.000000      154.89 Bohr**3.
 End of Minotr F.D. properties file   721 does not exist.
 End of Minotr F.D. properties file   722 does not exist.
 End of Minotr F.D. properties file   788 does not exist.

 **********************************************************************

            Population analysis using the SCF density.

 **********************************************************************

 Orbital symmetries:
       Occupied  (A) (A) (A) (A) (A) (A) (A) (A) (A) (A) (A) (A)
                 (A) (A) (A) (A) (A) (A) (A) (A) (A) (A) (A) (A)
                 (A) (A) (A) (A) (A) (A) (A) (A) (A) (A) (A) (A)
                 (A) (A) (A) (A) (A) (A) (A) (A) (A) (A) (A) (A)
                 (A) (A) (A) (A) (A) (A) (A) (A) (A) (A) (A) (A)
                 (A) (A) (A) (A) (A)
       Virtual   (A) (A) (A) (A) (A) (A) (A) (A) (A) (A) (A) (A)
                 (A) (A) (A) (A) (A) (A) (A) (A) (A) (A) (A) (A)
                 (A) (A) (A) (A) (A) (A) (A) (A) (A) (A) (A) (A)
                 (A) (A) (A) (A) (A) (A) (A) (A) (A) (A) (A) (A)
                 (A) (A) (A) (A) (A) (A) (A) (A) (A) (A) (A) (A)
                 (A) (A) (A) (A) (A) (A) (A) (A) (A) (A) (A) (A)
                 (A) (A) (A) (A) (A) (A) (A) (A) (A) (A) (A) (A)
                 (A) (A) (A) (A) (A) (A) (A) (A) (A) (A) (A) (A)
                 (A) (A) (A) (A) (A) (A) (A) (A) (A) (A) (A) (A)
                 (A) (A) (A) (A) (A) (A) (A) (A) (A) (A) (A) (A)
                 (A) (A) (A) (A) (A) (A) (A) (A) (A) (A) (A) (A)
                 (A) (A) (A) (A) (A) (A) (A) (A) (A) (A) (A) (A)
                 (A) (A) (A) (A) (A) (A) (A) (A) (A) (A) (A) (A)
                 (A) (A) (A) (A) (A) (A) (A) (A) (A) (A) (A) (A)
                 (A) (A) (A) (A) (A) (A) (A) (A) (A) (A) (A) (A)
                 (A) (A) (A) (A) (A) (A) (A) (A) (A) (A) (A) (A)
                 (A) (A) (A) (A) (A) (A) (A) (A) (A) (A) (A) (A)
                 (A) (A) (A) (A) (A) (A) (A) (A) (A) (A) (A) (A)
                 (A) (A) (A) (A) (A) (A) (A) (A) (A) (A) (A) (A)
                 (A) (A) (A) (A) (A) (A) (A) (A) (A) (A) (A)
 The electronic state is 1-A.
 Alpha  occ. eigenvalues --  -24.70357 -19.13391 -10.27170 -10.26486 -10.21295
 Alpha  occ. eigenvalues --  -10.20245 -10.20069 -10.19982 -10.19866 -10.19828
 Alpha  occ. eigenvalues --  -10.19765 -10.19648 -10.19586 -10.19572 -10.19508
 Alpha  occ. eigenvalues --  -10.19418 -10.19382 -10.19005  -1.21488  -1.03210
 Alpha  occ. eigenvalues --   -0.88460  -0.86074  -0.79594  -0.78378  -0.76855
 Alpha  occ. eigenvalues --   -0.75772  -0.73047  -0.68236  -0.65309  -0.62768
 Alpha  occ. eigenvalues --   -0.62081  -0.60214  -0.58257  -0.57091  -0.54371
 Alpha  occ. eigenvalues --   -0.51305  -0.48825  -0.48471  -0.46539  -0.45991
 Alpha  occ. eigenvalues --   -0.45720  -0.45210  -0.44535  -0.44067  -0.43302
 Alpha  occ. eigenvalues --   -0.43253  -0.42143  -0.41524  -0.40437  -0.40209
 Alpha  occ. eigenvalues --   -0.39303  -0.37586  -0.36821  -0.36291  -0.36117
 Alpha  occ. eigenvalues --   -0.35136  -0.34047  -0.33891  -0.33542  -0.30635
 Alpha  occ. eigenvalues --   -0.30390  -0.29852  -0.26109  -0.23944  -0.23123
 Alpha virt. eigenvalues --   -0.01493  -0.00882  -0.00040   0.06343   0.08611
 Alpha virt. eigenvalues --    0.10592   0.11426   0.12344   0.12660   0.12997
 Alpha virt. eigenvalues --    0.13995   0.14325   0.14843   0.15066   0.15484
 Alpha virt. eigenvalues --    0.16780   0.17552   0.18167   0.18647   0.18929
 Alpha virt. eigenvalues --    0.19141   0.19595   0.20869   0.21439   0.21656
 Alpha virt. eigenvalues --    0.22529   0.23296   0.23804   0.24820   0.26266
 Alpha virt. eigenvalues --    0.27239   0.28140   0.28714   0.29179   0.33126
 Alpha virt. eigenvalues --    0.33351   0.33611   0.35262   0.36264   0.39296
 Alpha virt. eigenvalues --    0.49098   0.49374   0.49980   0.50816   0.51102
 Alpha virt. eigenvalues --    0.53205   0.53768   0.54182   0.55222   0.55252
 Alpha virt. eigenvalues --    0.55906   0.58101   0.58177   0.58990   0.60199
 Alpha virt. eigenvalues --    0.60593   0.60962   0.62287   0.62890   0.63751
 Alpha virt. eigenvalues --    0.64112   0.65905   0.66217   0.67054   0.67413
 Alpha virt. eigenvalues --    0.68032   0.69245   0.71337   0.71556   0.74830
 Alpha virt. eigenvalues --    0.75142   0.76370   0.77047   0.78163   0.78872
 Alpha virt. eigenvalues --    0.79925   0.80616   0.81766   0.82738   0.83193
 Alpha virt. eigenvalues --    0.85206   0.85584   0.86050   0.86835   0.87360
 Alpha virt. eigenvalues --    0.87703   0.88084   0.88991   0.89349   0.91144
 Alpha virt. eigenvalues --    0.92448   0.93558   0.93882   0.94696   0.95174
 Alpha virt. eigenvalues --    0.96832   0.97290   0.98130   0.98584   1.01109
 Alpha virt. eigenvalues --    1.03599   1.07766   1.08934   1.09554   1.12346
 Alpha virt. eigenvalues --    1.13726   1.15054   1.16324   1.16740   1.17443
 Alpha virt. eigenvalues --    1.18235   1.20464   1.21970   1.23284   1.23926
 Alpha virt. eigenvalues --    1.26227   1.26572   1.29023   1.32305   1.39433
 Alpha virt. eigenvalues --    1.40470   1.40693   1.41847   1.43446   1.45588
 Alpha virt. eigenvalues --    1.46021   1.47013   1.49593   1.50504   1.52091
 Alpha virt. eigenvalues --    1.53854   1.60264   1.60730   1.64336   1.65009
 Alpha virt. eigenvalues --    1.68169   1.68991   1.71243   1.73889   1.74599
 Alpha virt. eigenvalues --    1.75436   1.76185   1.76975   1.78526   1.80309
 Alpha virt. eigenvalues --    1.80534   1.81130   1.82854   1.83088   1.83673
 Alpha virt. eigenvalues --    1.85100   1.86348   1.87755   1.89074   1.90067
 Alpha virt. eigenvalues --    1.92773   1.93682   1.95835   1.96364   1.97974
 Alpha virt. eigenvalues --    2.00777   2.01841   2.04205   2.04565   2.05660
 Alpha virt. eigenvalues --    2.07430   2.07824   2.08723   2.10964   2.12574
 Alpha virt. eigenvalues --    2.13120   2.13664   2.15566   2.17069   2.19123
 Alpha virt. eigenvalues --    2.20697   2.21633   2.23842   2.25512   2.26668
 Alpha virt. eigenvalues --    2.29377   2.29925   2.30750   2.31641   2.33321
 Alpha virt. eigenvalues --    2.34897   2.35733   2.38223   2.39903   2.42025
 Alpha virt. eigenvalues --    2.42558   2.46263   2.46699   2.50087   2.52196
 Alpha virt. eigenvalues --    2.53407   2.56206   2.57196   2.59271   2.62032
 Alpha virt. eigenvalues --    2.64382   2.65099   2.66925   2.68602   2.69512
 Alpha virt. eigenvalues --    2.71069   2.72920   2.73674   2.74308   2.75589
 Alpha virt. eigenvalues --    2.77477   2.79177   2.81151   2.84292   2.96950
 Alpha virt. eigenvalues --    3.00963   3.02043   3.04010   3.10638   3.16973
 Alpha virt. eigenvalues --    3.40864   4.07960   4.09787   4.10718   4.13247
 Alpha virt. eigenvalues --    4.16810   4.26840   4.28921   4.30705   4.32184
 Alpha virt. eigenvalues --    4.39027   4.49790   4.55800   4.63888   4.71246
 Alpha virt. eigenvalues --    4.79690   4.83956   4.84710   5.31641
          Condensed to atoms (all electrons):
               1          2          3          4          5          6
     1  O    8.011306   0.580048  -0.073950   0.000991   0.000908   0.000046
     2  C    0.580048   4.513477   0.330494  -0.027914  -0.029250  -0.020495
     3  C   -0.073950   0.330494   5.230761   0.321926   0.338817  -0.027695
     4  C    0.000991  -0.027914   0.321926   5.181382  -0.038053  -0.014343
     5  C    0.000908  -0.029250   0.338817  -0.038053   5.094562   0.374972
     6  C    0.000046  -0.020495  -0.027695  -0.014343   0.374972   4.944896
     7  C    0.000962  -0.029529  -0.008068  -0.003057  -0.049288   0.374828
     8  C   -0.073683   0.331079  -0.125469  -0.006253  -0.008416  -0.028657
     9  C    0.000907  -0.027871  -0.007104  -0.058446  -0.002513  -0.014058
    10  C    0.000108  -0.019345  -0.017942   0.362781  -0.016313  -0.021209
    11  C    0.000001   0.000020   0.003450  -0.038200  -0.000046   0.004189
    12  C   -0.000000  -0.000013   0.000529  -0.009686  -0.000012  -0.000063
    13  C   -0.000000   0.000000  -0.000008   0.000180   0.000000   0.000001
    14  C   -0.000000  -0.000000   0.000000  -0.000002  -0.000000  -0.000000
    15  F    0.000000   0.000000  -0.000000   0.000000   0.000000   0.000000
    16  C   -0.000000   0.000000   0.000001  -0.000143   0.000000  -0.000001
    17  C   -0.000000  -0.000006  -0.000096   0.005358  -0.000000   0.000329
    18  C   -0.000031  -0.002808  -0.013322  -0.057118  -0.046002   0.352597
    19  H    0.004276  -0.031768   0.345775  -0.031183  -0.031393   0.004218
    20  H    0.000754  -0.001036  -0.039449   0.361117   0.005099  -0.000052
    21  H   -0.000084   0.003538  -0.030947   0.353739  -0.006020  -0.000727
    22  H    0.000759  -0.000896  -0.039688   0.005126   0.368082  -0.034951
    23  H   -0.000082   0.003537  -0.030918  -0.006122   0.361050  -0.033416
    24  H   -0.000000   0.000297   0.004663   0.000111  -0.038024   0.368757
    25  H    0.000723  -0.000849  -0.000065   0.000058  -0.004262  -0.034784
    26  H   -0.000082   0.003556  -0.000319   0.000118   0.005273  -0.033844
    27  H    0.004181  -0.031578   0.007128  -0.000056  -0.000055   0.004168
    28  H    0.000718  -0.001307   0.000449  -0.006696  -0.000008  -0.000049
    29  H   -0.000082   0.003552  -0.000321   0.005867   0.000100  -0.000704
    30  H   -0.000000  -0.000015   0.000041   0.007848  -0.000003  -0.000007
    31  H    0.000000  -0.000000  -0.000000   0.000002  -0.000000  -0.000000
    32  H    0.000000  -0.000000  -0.000000   0.000001  -0.000000  -0.000000
    33  H   -0.000000  -0.000004  -0.000002   0.000085  -0.000000  -0.000140
    34  H    0.000000   0.000146  -0.000076   0.005826   0.005141  -0.033958
    35  H    0.000000   0.000141  -0.001141  -0.005946  -0.003915  -0.033877
               7          8          9         10         11         12
     1  O    0.000962  -0.073683   0.000907   0.000108   0.000001  -0.000000
     2  C   -0.029529   0.331079  -0.027871  -0.019345   0.000020  -0.000013
     3  C   -0.008068  -0.125469  -0.007104  -0.017942   0.003450   0.000529
     4  C   -0.003057  -0.006253  -0.058446   0.362781  -0.038200  -0.009686
     5  C   -0.049288  -0.008416  -0.002513  -0.016313  -0.000046  -0.000012
     6  C    0.374828  -0.028657  -0.014058  -0.021209   0.004189  -0.000063
     7  C    5.098171   0.338708  -0.038971  -0.016373   0.000036  -0.000002
     8  C    0.338708   5.237720   0.312822  -0.020257   0.004155  -0.000052
     9  C   -0.038971   0.312822   5.178506   0.365020  -0.045468   0.001008
    10  C   -0.016373  -0.020257   0.365020   4.951250   0.359205  -0.051558
    11  C    0.000036   0.004155  -0.045468   0.359205   4.709294   0.546220
    12  C   -0.000002  -0.000052   0.001008  -0.051558   0.546220   5.031176
    13  C   -0.000000   0.000001  -0.000146   0.006731  -0.019460   0.435051
    14  C   -0.000000  -0.000000   0.000002   0.000286  -0.033269  -0.004391
    15  F    0.000000   0.000000  -0.000000   0.000000  -0.000001   0.003216
    16  C   -0.000000  -0.000001   0.000310   0.005035  -0.017987  -0.037761
    17  C   -0.000048   0.000318  -0.008672  -0.051766   0.518824  -0.051682
    18  C   -0.046449  -0.012219  -0.054770   0.371480  -0.048751   0.001066
    19  H   -0.000046   0.007138  -0.000073   0.003458  -0.000102   0.000004
    20  H    0.000008   0.000518  -0.006750  -0.029646  -0.006508   0.001725
    21  H    0.000133  -0.000414   0.006069  -0.028118  -0.006379   0.001876
    22  H   -0.004343  -0.000028   0.000043   0.000181   0.000012   0.000000
    23  H    0.005239  -0.000298   0.000105  -0.001139  -0.000095  -0.000003
    24  H   -0.037795   0.004623   0.000073   0.004117  -0.000097   0.000001
    25  H    0.367441  -0.039199   0.005107   0.000182   0.000012  -0.000000
    26  H    0.360465  -0.031710  -0.005638  -0.001293  -0.000079   0.000001
    27  H   -0.031148   0.344991  -0.030319   0.003514  -0.000105   0.000000
    28  H    0.005051  -0.037517   0.363102  -0.034137  -0.001992   0.001260
    29  H   -0.005905  -0.029712   0.354906  -0.030628  -0.008960  -0.000254
    30  H   -0.000001  -0.000006   0.000251  -0.015738  -0.036852   0.354712
    31  H   -0.000000  -0.000000   0.000001  -0.000123   0.003534  -0.037805
    32  H   -0.000000  -0.000000   0.000000  -0.000131   0.003438   0.000207
    33  H   -0.000014  -0.000122   0.000311  -0.008029  -0.044491   0.006053
    34  H   -0.003637  -0.001104  -0.004991  -0.033465  -0.008798  -0.000222
    35  H    0.005119  -0.000147   0.005851  -0.035600  -0.001513   0.001268
              13         14         15         16         17         18
     1  O   -0.000000  -0.000000   0.000000  -0.000000  -0.000000  -0.000031
     2  C    0.000000  -0.000000   0.000000   0.000000  -0.000006  -0.002808
     3  C   -0.000008   0.000000  -0.000000   0.000001  -0.000096  -0.013322
     4  C    0.000180  -0.000002   0.000000  -0.000143   0.005358  -0.057118
     5  C    0.000000  -0.000000   0.000000   0.000000  -0.000000  -0.046002
     6  C    0.000001  -0.000000   0.000000  -0.000001   0.000329   0.352597
     7  C   -0.000000  -0.000000   0.000000  -0.000000  -0.000048  -0.046449
     8  C    0.000001  -0.000000   0.000000  -0.000001   0.000318  -0.012219
     9  C   -0.000146   0.000002  -0.000000   0.000310  -0.008672  -0.054770
    10  C    0.006731   0.000286   0.000000   0.005035  -0.051766   0.371480
    11  C   -0.019460  -0.033269  -0.000001  -0.017987   0.518824  -0.048751
    12  C    0.435051  -0.004391   0.003216  -0.037761  -0.051682   0.001066
    13  C    5.147014   0.491306  -0.044239  -0.082606  -0.039785  -0.000144
    14  C    0.491306   4.446939   0.300386   0.486044  -0.006061   0.000000
    15  F   -0.044239   0.300386   9.082950  -0.044343   0.003182   0.000000
    16  C   -0.082606   0.486044  -0.044343   5.123515   0.453740   0.000306
    17  C   -0.039785  -0.006061   0.003182   0.453740   5.039501  -0.008562
    18  C   -0.000144   0.000000   0.000000   0.000306  -0.008562   5.152638
    19  H    0.000000  -0.000000  -0.000000  -0.000000   0.000002   0.000146
    20  H    0.000054  -0.000007   0.000000   0.000000  -0.000085   0.005890
    21  H    0.000046  -0.000007   0.000000   0.000001  -0.000127  -0.005827
    22  H   -0.000000   0.000000  -0.000000   0.000000  -0.000000   0.005021
    23  H   -0.000000  -0.000000   0.000000   0.000000   0.000000  -0.003612
    24  H   -0.000000   0.000000  -0.000000  -0.000000  -0.000008  -0.037784
    25  H    0.000000   0.000000  -0.000000   0.000000   0.000000   0.005010
    26  H   -0.000000  -0.000000  -0.000000  -0.000000  -0.000033  -0.003470
    27  H   -0.000000   0.000000  -0.000000  -0.000000  -0.000006   0.000122
    28  H   -0.000027  -0.000012   0.000000  -0.000049  -0.000205   0.005717
    29  H    0.000007  -0.000005  -0.000000   0.000006   0.004991  -0.004873
    30  H   -0.045022   0.003444  -0.000025   0.000200   0.006394   0.000240
    31  H    0.347815  -0.035118  -0.001052   0.006770   0.000198   0.000001
    32  H    0.006779  -0.034663  -0.001025   0.347663  -0.038310   0.000001
    33  H    0.000248   0.003429  -0.000026  -0.039015   0.352777   0.000334
    34  H    0.000005  -0.000005   0.000000  -0.000011   0.004943   0.358725
    35  H   -0.000031  -0.000010   0.000000  -0.000060  -0.000174   0.360261
              19         20         21         22         23         24
     1  O    0.004276   0.000754  -0.000084   0.000759  -0.000082  -0.000000
     2  C   -0.031768  -0.001036   0.003538  -0.000896   0.003537   0.000297
     3  C    0.345775  -0.039449  -0.030947  -0.039688  -0.030918   0.004663
     4  C   -0.031183   0.361117   0.353739   0.005126  -0.006122   0.000111
     5  C   -0.031393   0.005099  -0.006020   0.368082   0.361050  -0.038024
     6  C    0.004218  -0.000052  -0.000727  -0.034951  -0.033416   0.368757
     7  C   -0.000046   0.000008   0.000133  -0.004343   0.005239  -0.037795
     8  C    0.007138   0.000518  -0.000414  -0.000028  -0.000298   0.004623
     9  C   -0.000073  -0.006750   0.006069   0.000043   0.000105   0.000073
    10  C    0.003458  -0.029646  -0.028118   0.000181  -0.001139   0.004117
    11  C   -0.000102  -0.006508  -0.006379   0.000012  -0.000095  -0.000097
    12  C    0.000004   0.001725   0.001876   0.000000  -0.000003   0.000001
    13  C    0.000000   0.000054   0.000046  -0.000000  -0.000000  -0.000000
    14  C   -0.000000  -0.000007  -0.000007   0.000000  -0.000000   0.000000
    15  F   -0.000000   0.000000   0.000000  -0.000000   0.000000  -0.000000
    16  C   -0.000000   0.000000   0.000001   0.000000   0.000000  -0.000000
    17  C    0.000002  -0.000085  -0.000127  -0.000000   0.000000  -0.000008
    18  C    0.000146   0.005890  -0.005827   0.005021  -0.003612  -0.037784
    19  H    0.599706  -0.002663  -0.003982  -0.002448  -0.004125  -0.000145
    20  H   -0.002663   0.593577  -0.039238  -0.000157  -0.000060   0.000018
    21  H   -0.003982  -0.039238   0.600973  -0.000045   0.005750  -0.000099
    22  H   -0.002448  -0.000157  -0.000045   0.592068  -0.035090  -0.003313
    23  H   -0.004125  -0.000060   0.005750  -0.035090   0.599313  -0.003216
    24  H   -0.000145   0.000018  -0.000099  -0.003313  -0.003216   0.623910
    25  H   -0.000081  -0.000005   0.000000   0.004231   0.000005  -0.003404
    26  H    0.000023   0.000000  -0.000005   0.000006  -0.000201  -0.003236
    27  H   -0.000184  -0.000092   0.000024  -0.000085   0.000023  -0.000141
    28  H   -0.000090   0.004941  -0.000017  -0.000005   0.000001   0.000018
    29  H    0.000023   0.000006  -0.000203   0.000001  -0.000004  -0.000079
    30  H    0.000003   0.002103   0.002011  -0.000000  -0.000002   0.000000
    31  H    0.000000   0.000004   0.000003  -0.000000   0.000000   0.000000
    32  H    0.000000   0.000000   0.000000  -0.000000   0.000000   0.000000
    33  H    0.000000   0.000002  -0.000000  -0.000000  -0.000000   0.000005
    34  H    0.000017  -0.000170  -0.000054  -0.000163  -0.000050  -0.003818
    35  H   -0.000076  -0.000069   0.005393  -0.000032   0.004592  -0.003469
              25         26         27         28         29         30
     1  O    0.000723  -0.000082   0.004181   0.000718  -0.000082  -0.000000
     2  C   -0.000849   0.003556  -0.031578  -0.001307   0.003552  -0.000015
     3  C   -0.000065  -0.000319   0.007128   0.000449  -0.000321   0.000041
     4  C    0.000058   0.000118  -0.000056  -0.006696   0.005867   0.007848
     5  C   -0.004262   0.005273  -0.000055  -0.000008   0.000100  -0.000003
     6  C   -0.034784  -0.033844   0.004168  -0.000049  -0.000704  -0.000007
     7  C    0.367441   0.360465  -0.031148   0.005051  -0.005905  -0.000001
     8  C   -0.039199  -0.031710   0.344991  -0.037517  -0.029712  -0.000006
     9  C    0.005107  -0.005638  -0.030319   0.363102   0.354906   0.000251
    10  C    0.000182  -0.001293   0.003514  -0.034137  -0.030628  -0.015738
    11  C    0.000012  -0.000079  -0.000105  -0.001992  -0.008960  -0.036852
    12  C   -0.000000   0.000001   0.000000   0.001260  -0.000254   0.354712
    13  C    0.000000  -0.000000  -0.000000  -0.000027   0.000007  -0.045022
    14  C    0.000000  -0.000000   0.000000  -0.000012  -0.000005   0.003444
    15  F   -0.000000  -0.000000  -0.000000   0.000000  -0.000000  -0.000025
    16  C    0.000000  -0.000000  -0.000000  -0.000049   0.000006   0.000200
    17  C    0.000000  -0.000033  -0.000006  -0.000205   0.004991   0.006394
    18  C    0.005010  -0.003470   0.000122   0.005717  -0.004873   0.000240
    19  H   -0.000081   0.000023  -0.000184  -0.000090   0.000023   0.000003
    20  H   -0.000005   0.000000  -0.000092   0.004941   0.000006   0.002103
    21  H    0.000000  -0.000005   0.000024  -0.000017  -0.000203   0.002011
    22  H    0.004231   0.000006  -0.000085  -0.000005   0.000001  -0.000000
    23  H    0.000005  -0.000201   0.000023   0.000001  -0.000004  -0.000002
    24  H   -0.003404  -0.003236  -0.000141   0.000018  -0.000079   0.000000
    25  H    0.592100  -0.035170  -0.002529  -0.000157  -0.000060   0.000000
    26  H   -0.035170   0.602467  -0.004027  -0.000064   0.005808   0.000000
    27  H   -0.002529  -0.004027   0.598534  -0.002526  -0.004119   0.000000
    28  H   -0.000157  -0.000064  -0.002526   0.587170  -0.034485  -0.000035
    29  H   -0.000060   0.005808  -0.004119  -0.034485   0.598520  -0.000008
    30  H    0.000000   0.000000   0.000000  -0.000035  -0.000008   0.588513
    31  H   -0.000000   0.000000   0.000000   0.000001   0.000000  -0.005863
    32  H   -0.000000   0.000000   0.000000   0.000000   0.000005   0.000015
    33  H   -0.000000   0.000043   0.000002   0.000047   0.003724  -0.000188
    34  H   -0.000044   0.004743  -0.000060  -0.000056   0.003473  -0.000005
    35  H   -0.000161  -0.000059   0.000018  -0.000163  -0.000069  -0.000020
              31         32         33         34         35
     1  O    0.000000   0.000000  -0.000000   0.000000   0.000000
     2  C   -0.000000  -0.000000  -0.000004   0.000146   0.000141
     3  C   -0.000000  -0.000000  -0.000002  -0.000076  -0.001141
     4  C    0.000002   0.000001   0.000085   0.005826  -0.005946
     5  C   -0.000000  -0.000000  -0.000000   0.005141  -0.003915
     6  C   -0.000000  -0.000000  -0.000140  -0.033958  -0.033877
     7  C   -0.000000  -0.000000  -0.000014  -0.003637   0.005119
     8  C   -0.000000  -0.000000  -0.000122  -0.001104  -0.000147
     9  C    0.000001   0.000000   0.000311  -0.004991   0.005851
    10  C   -0.000123  -0.000131  -0.008029  -0.033465  -0.035600
    11  C    0.003534   0.003438  -0.044491  -0.008798  -0.001513
    12  C   -0.037805   0.000207   0.006053  -0.000222   0.001268
    13  C    0.347815   0.006779   0.000248   0.000005  -0.000031
    14  C   -0.035118  -0.034663   0.003429  -0.000005  -0.000010
    15  F   -0.001052  -0.001025  -0.000026   0.000000   0.000000
    16  C    0.006770   0.347663  -0.039015  -0.000011  -0.000060
    17  C    0.000198  -0.038310   0.352777   0.004943  -0.000174
    18  C    0.000001   0.000001   0.000334   0.358725   0.360261
    19  H    0.000000   0.000000   0.000000   0.000017  -0.000076
    20  H    0.000004   0.000000   0.000002  -0.000170  -0.000069
    21  H    0.000003   0.000000  -0.000000  -0.000054   0.005393
    22  H   -0.000000  -0.000000  -0.000000  -0.000163  -0.000032
    23  H    0.000000   0.000000  -0.000000  -0.000050   0.004592
    24  H    0.000000   0.000000   0.000005  -0.003818  -0.003469
    25  H   -0.000000  -0.000000  -0.000000  -0.000044  -0.000161
    26  H    0.000000   0.000000   0.000043   0.004743  -0.000059
    27  H    0.000000   0.000000   0.000002  -0.000060   0.000018
    28  H    0.000001   0.000000   0.000047  -0.000056  -0.000163
    29  H    0.000000   0.000005   0.003724   0.003473  -0.000069
    30  H   -0.005863   0.000015  -0.000188  -0.000005  -0.000020
    31  H    0.575540  -0.000164   0.000015   0.000000   0.000001
    32  H   -0.000164   0.576063  -0.005879   0.000006   0.000000
    33  H    0.000015  -0.005879   0.593228   0.003954   0.000067
    34  H    0.000000   0.000006   0.003954   0.605188  -0.034439
    35  H    0.000001   0.000000   0.000067  -0.034439   0.600615
 Mulliken charges:
               1
     1  O   -0.458692
     2  C    0.454796
     3  C   -0.167454
     4  C   -0.309298
     5  C   -0.280429
     6  C   -0.095970
     7  C   -0.281488
     8  C   -0.166808
     9  C   -0.288605
    10  C   -0.000541
    11  C    0.166762
    12  C   -0.191868
    13  C   -0.203770
    14  C    0.381713
    15  F   -0.299024
    16  C   -0.201615
    17  C   -0.184933
    18  C   -0.273813
    19  H    0.143569
    20  H    0.150172
    21  H    0.142739
    22  H    0.145712
    23  H    0.138819
    24  H    0.128037
    25  H    0.145900
    26  H    0.136728
    27  H    0.144322
    28  H    0.151121
    29  H    0.139483
    30  H    0.138014
    31  H    0.146240
    32  H    0.145993
    33  H    0.133588
    34  H    0.132957
    35  H    0.137645
 Sum of Mulliken charges =  -0.00000
 Mulliken charges with hydrogens summed into heavy atoms:
               1
     1  O   -0.458692
     2  C    0.454796
     3  C   -0.023885
     4  C   -0.016387
     5  C    0.004103
     6  C    0.032067
     7  C    0.001141
     8  C   -0.022487
     9  C    0.001998
    10  C   -0.000541
    11  C    0.166762
    12  C   -0.053854
    13  C   -0.057530
    14  C    0.381713
    15  F   -0.299024
    16  C   -0.055622
    17  C   -0.051346
    18  C   -0.003211
 APT charges:
               1
     1  O   -0.644497
     2  C    0.695412
     3  C   -0.036242
     4  C    0.084276
     5  C    0.112271
     6  C    0.104031
     7  C    0.116147
     8  C   -0.051310
     9  C    0.083584
    10  C    0.102138
    11  C    0.002760
    12  C   -0.015008
    13  C   -0.095223
    14  C    0.600933
    15  F   -0.584756
    16  C   -0.086569
    17  C   -0.022226
    18  C    0.054117
    19  H   -0.053763
    20  H   -0.031278
    21  H   -0.038060
    22  H   -0.044139
    23  H   -0.043798
    24  H   -0.079521
    25  H   -0.045456
    26  H   -0.043823
    27  H   -0.058110
    28  H   -0.030607
    29  H   -0.032915
    30  H    0.043496
    31  H    0.039499
    32  H    0.039300
    33  H    0.033319
    34  H   -0.034750
    35  H   -0.039234
 Sum of APT charges =   0.00000
 APT charges with hydrogens summed into heavy atoms:
               1
     1  O   -0.644497
     2  C    0.695412
     3  C   -0.090005
     4  C    0.014939
     5  C    0.024335
     6  C    0.024510
     7  C    0.026869
     8  C   -0.109420
     9  C    0.020062
    10  C    0.102138
    11  C    0.002760
    12  C    0.028488
    13  C   -0.055724
    14  C    0.600933
    15  F   -0.584756
    16  C   -0.047270
    17  C    0.011093
    18  C   -0.019867
 Electronic spatial extent (au):  <R**2>=           4906.6762
 Charge=             -0.0000 electrons
 Dipole moment (field-independent basis, Debye):
    X=              0.4036    Y=              1.8709    Z=              1.7370  Tot=              2.5847
 Quadrupole moment (field-independent basis, Debye-Ang):
   XX=           -123.7311   YY=           -101.4035   ZZ=           -106.4628
   XY=             -7.7844   XZ=             -7.2475   YZ=             -5.7346
 Traceless Quadrupole moment (field-independent basis, Debye-Ang):
   XX=            -13.1986   YY=              9.1290   ZZ=              4.0697
   XY=             -7.7844   XZ=             -7.2475   YZ=             -5.7346
 Octapole moment (field-independent basis, Debye-Ang**2):
  XXX=             13.2988  YYY=             -1.4896  ZZZ=             -1.4115  XYY=             31.2654
  XXY=             31.9117  XXZ=             29.0279  XZZ=             12.0762  YZZ=              2.8770
  YYZ=              3.0648  XYZ=              7.4462
 Hexadecapole moment (field-independent basis, Debye-Ang**3):
 XXXX=          -5225.5138 YYYY=           -833.4990 ZZZZ=           -641.1125 XXXY=           -106.2290
 XXXZ=            -98.9792 YYYX=             -8.9315 YYYZ=            -14.2641 ZZZX=             -3.9873
 ZZZY=              0.0621 XXYY=           -918.3634 XXZZ=           -932.2480 YYZZ=           -253.7768
 XXYZ=            -72.4601 YYXZ=            -19.6154 ZZXY=            -14.6858
 N-N= 1.335837806908D+03 E-N=-4.521273984450D+03  KE= 7.877506756821D+02
  Exact polarizability: 200.678   0.339 147.564  -0.218 -10.046 116.438
 Approx polarizability: 276.702   5.186 249.223   3.288 -20.082 182.598
 Calling FoFJK, ICntrl=    100127 FMM=F ISym2X=0 I1Cent= 0 IOpClX= 0 NMat=1 NMatS=1 NMatT=0.
 Full mass-weighted force constant matrix:
 Low frequencies ---  -10.7808   -0.0009   -0.0006   -0.0006    2.9523    5.6730
 Low frequencies ---   48.5967   62.8686   93.9071
 Diagonal vibrational polarizability:
       16.9740921       9.1223965      11.1446647
 Harmonic frequencies (cm**-1), IR intensities (KM/Mole), Raman scattering
 activities (A**4/AMU), depolarization ratios for plane and unpolarized
 incident light, reduced masses (AMU), force constants (mDyne/A),
 and normal coordinates:
                      1                      2                      3
                      A                      A                      A
 Frequencies --     48.5846                62.8660                93.9058
 Red. masses --      4.2322                 6.7160                 7.4062
 Frc consts  --      0.0059                 0.0156                 0.0385
 IR Inten    --      0.3191                 1.3292                 2.1376
  Atom  AN      X      Y      Z        X      Y      Z        X      Y      Z
     1   8     0.10  -0.10   0.00    -0.24   0.07   0.19     0.36  -0.25  -0.10
     2   6     0.04  -0.04   0.01    -0.09   0.00   0.07     0.04  -0.02   0.04
     3   6    -0.01   0.03   0.05     0.02   0.00   0.03     0.01   0.05   0.07
     4   6    -0.01   0.04   0.09     0.01  -0.03  -0.06     0.00   0.06  -0.04
     5   6    -0.05   0.07  -0.01     0.09   0.03   0.03     0.08   0.04   0.10
     6   6    -0.05   0.05  -0.06     0.08   0.01  -0.04     0.04   0.04   0.08
     7   6    -0.01  -0.01  -0.09     0.02  -0.01  -0.02    -0.09   0.04   0.13
     8   6     0.03  -0.05  -0.03    -0.05  -0.05  -0.02    -0.13   0.07   0.08
     9   6     0.04  -0.03   0.03    -0.05  -0.07  -0.10    -0.12   0.11  -0.04
    10   6    -0.00   0.03   0.06     0.01  -0.05  -0.12    -0.03   0.06  -0.09
    11   6    -0.00   0.03   0.07     0.01  -0.05  -0.14    -0.04   0.02  -0.15
    12   6    -0.02  -0.05  -0.15     0.01  -0.08  -0.25    -0.09  -0.01  -0.14
    13   6    -0.02  -0.07  -0.21     0.02  -0.04  -0.14    -0.09  -0.04  -0.05
    14   6    -0.01  -0.02  -0.04     0.03   0.04   0.09    -0.03  -0.05   0.04
    15   9    -0.01  -0.05  -0.10     0.04   0.11   0.26    -0.02  -0.06   0.20
    16   6     0.01   0.06   0.19     0.02   0.06   0.15     0.02  -0.04  -0.04
    17   6     0.01   0.08   0.24     0.01   0.01   0.02     0.01  -0.01  -0.13
    18   6    -0.04   0.06  -0.00     0.07  -0.02  -0.12     0.04   0.06  -0.05
    19   1    -0.01   0.04   0.08     0.02   0.02   0.08     0.04   0.04   0.08
    20   1     0.00   0.02   0.12    -0.05  -0.04  -0.07    -0.05   0.06  -0.06
    21   1    -0.01   0.08   0.11     0.07  -0.02  -0.08     0.07   0.07  -0.07
    22   1    -0.05   0.06  -0.05     0.10   0.04   0.09     0.08   0.04   0.19
    23   1    -0.08   0.12   0.01     0.15   0.06   0.02     0.15   0.02   0.07
    24   1    -0.07   0.08  -0.10     0.13   0.03  -0.05     0.09   0.04   0.10
    25   1    -0.01  -0.02  -0.12     0.02   0.01   0.02    -0.09   0.00   0.22
    26   1    -0.01  -0.02  -0.12     0.02  -0.03  -0.07    -0.16   0.06   0.10
    27   1     0.06  -0.10  -0.05    -0.10  -0.07   0.00    -0.20   0.08   0.10
    28   1     0.07  -0.05   0.07    -0.10  -0.10  -0.09    -0.17   0.14  -0.09
    29   1     0.04  -0.04   0.01    -0.05  -0.09  -0.14    -0.17   0.13  -0.02
    30   1    -0.03  -0.09  -0.28     0.01  -0.13  -0.40    -0.12  -0.00  -0.18
    31   1    -0.04  -0.14  -0.38     0.02  -0.05  -0.20    -0.12  -0.06  -0.01
    32   1     0.02   0.10   0.32     0.03   0.11   0.30     0.06  -0.05   0.01
    33   1     0.03   0.14   0.40     0.01   0.02   0.08     0.05   0.00  -0.16
    34   1    -0.05   0.06  -0.02     0.07  -0.03  -0.16     0.01   0.06  -0.08
    35   1    -0.08   0.11   0.02     0.12  -0.00  -0.14     0.12   0.06  -0.08
                      4                      5                      6
                      A                      A                      A
 Frequencies --    125.8574               205.3732               249.2699
 Red. masses --      4.6805                 5.0097                 6.5471
 Frc consts  --      0.0437                 0.1245                 0.2397
 IR Inten    --      0.4374                 0.2198                 0.5994
  Atom  AN      X      Y      Z        X      Y      Z        X      Y      Z
     1   8     0.13  -0.01  -0.10    -0.03   0.05   0.02    -0.03  -0.05  -0.07
     2   6    -0.01   0.05  -0.00     0.05  -0.02  -0.01    -0.14   0.01  -0.01
     3   6    -0.11   0.06   0.04     0.02  -0.02   0.00    -0.15   0.05   0.01
     4   6    -0.10  -0.08   0.07     0.03   0.05   0.14    -0.12   0.01   0.01
     5   6    -0.05   0.12   0.00    -0.15  -0.03  -0.06    -0.14   0.06   0.01
     6   6     0.09   0.05   0.01    -0.11  -0.02   0.01    -0.10   0.03  -0.00
     7   6     0.15   0.10  -0.00    -0.01  -0.02  -0.03    -0.20   0.02   0.04
     8   6     0.03   0.04   0.02     0.07  -0.02   0.00    -0.15   0.04   0.04
     9   6     0.01  -0.12   0.03     0.06   0.04   0.11    -0.12   0.03   0.02
    10   6    -0.02  -0.13   0.04     0.01   0.06   0.13    -0.03  -0.03  -0.01
    11   6    -0.03  -0.14  -0.00     0.02   0.03   0.00     0.08  -0.07  -0.00
    12   6     0.04  -0.11  -0.03     0.01  -0.01  -0.13     0.18  -0.04   0.01
    13   6     0.05  -0.00  -0.04     0.00  -0.05  -0.19     0.21  -0.00   0.02
    14   6    -0.03   0.06  -0.02     0.03  -0.03  -0.10     0.23  -0.01   0.01
    15   9    -0.03   0.19   0.00     0.04   0.04   0.21     0.25   0.05  -0.06
    16   6    -0.11   0.01  -0.03     0.03  -0.07  -0.22     0.15  -0.04   0.04
    17   6    -0.11  -0.10  -0.02     0.03  -0.03  -0.15     0.13  -0.08   0.03
    18   6     0.07  -0.10   0.04    -0.08   0.02   0.14    -0.07   0.01  -0.05
    19   1    -0.19   0.10   0.05     0.04  -0.04  -0.03    -0.15   0.05   0.03
    20   1    -0.16  -0.12   0.10     0.11   0.03   0.20    -0.16  -0.03   0.03
    21   1    -0.13  -0.07   0.09    -0.03   0.12   0.18    -0.14   0.00   0.02
    22   1    -0.05   0.21  -0.05    -0.16  -0.05  -0.23    -0.14   0.10  -0.01
    23   1    -0.12   0.10   0.02    -0.31  -0.01  -0.00    -0.17   0.05   0.02
    24   1     0.15   0.08   0.00    -0.18  -0.03  -0.01    -0.03   0.04   0.01
    25   1     0.17   0.24  -0.02    -0.02  -0.03  -0.11    -0.21  -0.09   0.11
    26   1     0.28   0.04  -0.01     0.01  -0.02  -0.01    -0.31   0.05   0.01
    27   1     0.05   0.06   0.02     0.13  -0.04  -0.02    -0.13   0.05   0.03
    28   1    -0.07  -0.18   0.06     0.15   0.06   0.13    -0.17   0.06  -0.04
    29   1     0.11  -0.18  -0.01     0.05   0.06   0.14    -0.14   0.05   0.04
    30   1     0.09  -0.14  -0.03     0.00  -0.00  -0.11     0.22  -0.07   0.01
    31   1     0.12   0.04  -0.05    -0.01  -0.06  -0.18     0.19  -0.01   0.03
    32   1    -0.18   0.05  -0.03     0.03  -0.08  -0.24     0.10  -0.01   0.04
    33   1    -0.17  -0.13  -0.01     0.04  -0.02  -0.15     0.15  -0.07   0.02
    34   1     0.17  -0.14   0.07    -0.08   0.05   0.21    -0.09   0.00  -0.09
    35   1     0.04  -0.15   0.04    -0.17  -0.00   0.16    -0.07   0.07  -0.03
                      7                      8                      9
                      A                      A                      A
 Frequencies --    264.4160               281.5893               330.2109
 Red. masses --      2.9213                 2.3670                 3.3901
 Frc consts  --      0.1203                 0.1106                 0.2178
 IR Inten    --      0.3528                 0.5828                 0.0568
  Atom  AN      X      Y      Z        X      Y      Z        X      Y      Z
     1   8    -0.01  -0.08   0.04    -0.00  -0.08   0.11    -0.03  -0.00  -0.11
     2   6    -0.05  -0.03   0.03     0.01  -0.03   0.03    -0.09  -0.01  -0.02
     3   6    -0.02  -0.01   0.00    -0.00   0.04   0.03    -0.14   0.04   0.03
     4   6     0.00  -0.01  -0.01    -0.02  -0.03  -0.14    -0.11  -0.06  -0.09
     5   6    -0.12   0.01  -0.07    -0.01   0.07  -0.02     0.09   0.05   0.14
     6   6     0.02  -0.02   0.03     0.00   0.04  -0.05     0.02   0.02   0.01
     7   6     0.14   0.08   0.01     0.00  -0.00  -0.07     0.02  -0.10  -0.03
     8   6    -0.06  -0.01   0.02     0.01  -0.03  -0.03     0.05  -0.08  -0.02
     9   6    -0.07  -0.07  -0.03     0.03   0.19   0.02     0.05  -0.08   0.04
    10   6    -0.01  -0.00  -0.04     0.00   0.01  -0.00    -0.01  -0.02   0.06
    11   6     0.01   0.09  -0.07    -0.00  -0.03   0.01     0.01   0.09   0.06
    12   6    -0.01   0.10  -0.03     0.01  -0.03   0.01    -0.00   0.09   0.01
    13   6    -0.02   0.07   0.02     0.01  -0.02   0.01    -0.01   0.06  -0.07
    14   6     0.03   0.03   0.02    -0.00  -0.01   0.00     0.02   0.03  -0.07
    15   9     0.03  -0.11  -0.00    -0.00   0.04  -0.01     0.03  -0.08   0.07
    16   6     0.07   0.06   0.02    -0.02  -0.02  -0.00     0.04   0.04  -0.09
    17   6     0.05   0.09  -0.03    -0.01  -0.03   0.01     0.03   0.08   0.01
    18   6     0.01  -0.11   0.09    -0.00  -0.08   0.09     0.00  -0.02   0.05
    19   1     0.01  -0.02   0.02    -0.00   0.05   0.06    -0.16   0.07   0.07
    20   1    -0.03  -0.03   0.00    -0.14   0.06  -0.31    -0.22   0.04  -0.26
    21   1     0.01   0.01  -0.01     0.09  -0.21  -0.23    -0.10  -0.29  -0.15
    22   1    -0.13   0.06  -0.28    -0.02   0.05  -0.05     0.11   0.06   0.44
    23   1    -0.33   0.01   0.00    -0.04   0.11   0.00     0.37   0.03   0.04
    24   1     0.03  -0.03   0.04     0.00   0.07  -0.09     0.01   0.08  -0.07
    25   1     0.17   0.35  -0.04     0.00   0.01  -0.05     0.01  -0.15  -0.03
    26   1     0.39  -0.03   0.01     0.00  -0.02  -0.11    -0.04  -0.08  -0.06
    27   1    -0.09   0.01   0.04     0.01  -0.07  -0.04     0.10  -0.06  -0.04
    28   1    -0.11  -0.13   0.02     0.21   0.38  -0.12     0.09  -0.11   0.10
    29   1    -0.05  -0.11  -0.12    -0.11   0.34   0.24     0.04  -0.09   0.00
    30   1    -0.04   0.11  -0.04     0.01  -0.04   0.00    -0.01   0.10   0.01
    31   1    -0.05   0.05   0.04     0.02  -0.01   0.02    -0.02   0.05  -0.09
    32   1     0.09   0.05   0.04    -0.03  -0.02  -0.02     0.03   0.04  -0.11
    33   1     0.08   0.11  -0.04    -0.02  -0.04   0.01     0.05   0.10   0.02
    34   1     0.08  -0.09   0.27     0.14  -0.08   0.27     0.07  -0.04   0.07
    35   1    -0.05  -0.31   0.07    -0.15  -0.25   0.11    -0.04  -0.04   0.07
                     10                     11                     12
                      A                      A                      A
 Frequencies --    363.1855               375.9412               399.6058
 Red. masses --      3.8526                 4.0802                 4.8520
 Frc consts  --      0.2994                 0.3398                 0.4565
 IR Inten    --      0.3214                 1.1817                 0.4503
  Atom  AN      X      Y      Z        X      Y      Z        X      Y      Z
     1   8    -0.05  -0.12   0.01    -0.14  -0.09  -0.12     0.01  -0.02   0.01
     2   6    -0.09  -0.03  -0.03    -0.09  -0.13  -0.12    -0.01   0.01   0.01
     3   6     0.05  -0.04  -0.10    -0.06  -0.01  -0.08    -0.10   0.06   0.05
     4   6     0.04   0.01  -0.10    -0.03   0.11   0.11    -0.08   0.18  -0.07
     5   6     0.10  -0.04  -0.08     0.03   0.04  -0.07    -0.11  -0.06   0.16
     6   6     0.01   0.04  -0.00     0.18   0.01   0.03    -0.05  -0.10   0.12
     7   6     0.07   0.14  -0.00     0.05  -0.10   0.05     0.15  -0.11   0.04
     8   6    -0.12   0.03   0.03    -0.04  -0.10  -0.01     0.10  -0.06  -0.06
     9   6    -0.08  -0.05   0.03    -0.02   0.10   0.07     0.09  -0.01  -0.16
    10   6    -0.01   0.07   0.06     0.03   0.07   0.05    -0.01   0.13  -0.10
    11   6     0.00   0.02   0.15     0.01  -0.01  -0.04    -0.00   0.03  -0.02
    12   6     0.01  -0.01   0.10    -0.01  -0.01  -0.02    -0.05  -0.00  -0.01
    13   6     0.01  -0.08  -0.07    -0.01  -0.01   0.02    -0.02  -0.10   0.05
    14   6     0.01  -0.08  -0.09    -0.02   0.00   0.04     0.01  -0.11   0.04
    15   9     0.02   0.10   0.05    -0.03   0.01  -0.03     0.02   0.17  -0.06
    16   6    -0.01  -0.09  -0.07    -0.00   0.01   0.04     0.03  -0.12   0.03
    17   6     0.01  -0.01   0.11     0.00  -0.01  -0.03     0.05  -0.00  -0.01
    18   6    -0.00   0.12   0.02     0.18   0.08   0.07    -0.04   0.04   0.01
    19   1     0.09  -0.04  -0.05    -0.01   0.00   0.04     0.02  -0.01  -0.02
    20   1     0.10   0.14  -0.23     0.13   0.03   0.28    -0.13   0.17  -0.08
    21   1     0.02  -0.14  -0.14    -0.18   0.28   0.21    -0.01   0.18  -0.10
    22   1     0.10  -0.09   0.00     0.04   0.22  -0.11    -0.11  -0.02   0.18
    23   1     0.17  -0.06  -0.11    -0.06  -0.10  -0.07    -0.10  -0.13   0.14
    24   1    -0.07  -0.03   0.06     0.12   0.01   0.01    -0.08  -0.04   0.04
    25   1     0.11   0.41  -0.03     0.05  -0.12   0.22     0.16   0.02  -0.12
    26   1     0.33   0.02  -0.02    -0.03  -0.12  -0.08     0.30  -0.13   0.15
    27   1    -0.08   0.07   0.02     0.00   0.02  -0.00     0.01   0.00  -0.01
    28   1    -0.14  -0.17   0.14     0.17   0.24  -0.00     0.11  -0.11  -0.05
    29   1    -0.07  -0.13  -0.13    -0.18   0.22   0.20     0.06  -0.05  -0.29
    30   1     0.01   0.01   0.14    -0.03  -0.00  -0.01    -0.11   0.03  -0.03
    31   1    -0.01  -0.10  -0.08    -0.01  -0.01   0.02    -0.11  -0.15   0.07
    32   1     0.00  -0.10  -0.10     0.01   0.01   0.07     0.11  -0.17   0.03
    33   1     0.02   0.01   0.16    -0.00  -0.01  -0.05     0.11   0.03  -0.02
    34   1    -0.04   0.11  -0.06     0.17   0.08   0.05    -0.20   0.13   0.06
    35   1     0.02   0.19   0.03     0.21   0.07   0.06     0.11  -0.01  -0.06
                     13                     14                     15
                      A                      A                      A
 Frequencies --    419.1424               427.2836               431.7107
 Red. masses --      3.1845                 3.1614                 2.2446
 Frc consts  --      0.3296                 0.3401                 0.2465
 IR Inten    --      0.7487                 0.0624                 0.4195
  Atom  AN      X      Y      Z        X      Y      Z        X      Y      Z
     1   8     0.00  -0.02   0.05     0.00  -0.01   0.02    -0.00  -0.02   0.01
     2   6     0.02  -0.00   0.00     0.01   0.00   0.01    -0.02  -0.02   0.03
     3   6    -0.03   0.02   0.01    -0.01   0.00   0.00    -0.05  -0.05   0.02
     4   6    -0.03   0.01  -0.02    -0.01  -0.00  -0.02    -0.05   0.00  -0.00
     5   6    -0.11   0.03  -0.04    -0.03  -0.00  -0.00    -0.02  -0.07   0.04
     6   6     0.08  -0.04   0.05     0.01  -0.01   0.02    -0.05  -0.04   0.02
     7   6    -0.00  -0.05   0.09     0.01  -0.01   0.02     0.11   0.05  -0.02
     8   6     0.03   0.01   0.01     0.01   0.00   0.00     0.02  -0.02   0.01
     9   6     0.04   0.04  -0.09     0.02   0.01  -0.02     0.03   0.08   0.02
    10   6     0.02  -0.04  -0.09     0.00  -0.00  -0.02    -0.02   0.01   0.02
    11   6     0.02   0.00   0.09     0.00  -0.00   0.02    -0.02  -0.06  -0.00
    12   6     0.02   0.00   0.08     0.02   0.07   0.23     0.03  -0.05  -0.04
    13   6     0.01   0.03  -0.04    -0.01  -0.06  -0.23     0.03   0.08   0.01
    14   6    -0.03   0.01  -0.15    -0.00   0.01  -0.04     0.02   0.09   0.02
    15   9    -0.02  -0.04   0.09    -0.00  -0.01   0.02     0.02  -0.09   0.01
    16   6    -0.02   0.02  -0.13     0.00   0.08   0.18    -0.02   0.06  -0.01
    17   6    -0.01   0.05   0.17    -0.02  -0.06  -0.18    -0.04  -0.05  -0.01
    18   6     0.06  -0.03  -0.13     0.00   0.00  -0.03    -0.04   0.10  -0.07
    19   1    -0.03   0.02  -0.01    -0.01   0.00  -0.01    -0.03  -0.07  -0.00
    20   1    -0.08  -0.05   0.03    -0.02   0.00  -0.03    -0.03   0.03  -0.04
    21   1    -0.01   0.07  -0.01    -0.01  -0.01  -0.03    -0.02  -0.03  -0.02
    22   1    -0.12   0.16  -0.31    -0.03   0.02  -0.05    -0.01  -0.08   0.11
    23   1    -0.40  -0.04   0.04    -0.09  -0.01   0.02     0.06  -0.06   0.02
    24   1     0.17  -0.03   0.07     0.02  -0.01   0.02    -0.08  -0.06   0.02
    25   1    -0.02  -0.17   0.16     0.01  -0.01   0.01     0.14   0.32  -0.17
    26   1    -0.14   0.01   0.09     0.01  -0.00   0.03     0.41  -0.06   0.04
    27   1    -0.04   0.07   0.04     0.00   0.01   0.01     0.02  -0.03   0.01
    28   1     0.03   0.11  -0.18     0.02   0.03  -0.04     0.14   0.21  -0.07
    29   1     0.02   0.09  -0.01    -0.00   0.03  -0.00    -0.06   0.18   0.17
    30   1     0.04   0.00   0.11     0.04   0.15   0.49     0.09  -0.10  -0.08
    31   1     0.07   0.09   0.02    -0.00  -0.11  -0.42     0.10   0.12  -0.01
    32   1    -0.06   0.03  -0.16     0.00   0.15   0.37    -0.11   0.11  -0.05
    33   1    -0.04   0.07   0.32    -0.04  -0.14  -0.38    -0.08  -0.08  -0.02
    34   1    -0.04  -0.02  -0.25    -0.02  -0.00  -0.08    -0.21   0.10  -0.31
    35   1     0.23   0.06  -0.17     0.05   0.04  -0.04     0.12   0.35  -0.08
                     16                     17                     18
                      A                      A                      A
 Frequencies --    448.3658               452.3831               483.1385
 Red. masses --      1.9893                 3.2439                 3.5392
 Frc consts  --      0.2356                 0.3911                 0.4867
 IR Inten    --      0.9035                 7.5750                 4.7626
  Atom  AN      X      Y      Z        X      Y      Z        X      Y      Z
     1   8    -0.00  -0.01   0.01    -0.01  -0.10   0.09    -0.00  -0.15   0.17
     2   6    -0.01   0.03  -0.03    -0.00   0.06  -0.09     0.01   0.09  -0.09
     3   6    -0.01   0.01  -0.01     0.02   0.11  -0.10    -0.06   0.06  -0.12
     4   6    -0.01   0.03   0.13     0.00   0.13  -0.04    -0.09  -0.12   0.05
     5   6     0.07  -0.04   0.06     0.01  -0.01   0.01     0.01  -0.04  -0.03
     6   6    -0.02  -0.04  -0.04    -0.02   0.00   0.05     0.01  -0.04   0.02
     7   6     0.02   0.03  -0.06    -0.04  -0.03   0.03    -0.01   0.04   0.03
     8   6    -0.04   0.03  -0.08     0.01   0.06  -0.09     0.06   0.12  -0.09
     9   6    -0.04   0.07  -0.07     0.03  -0.07  -0.05     0.07   0.00   0.08
    10   6    -0.03  -0.02  -0.06     0.01   0.08   0.01    -0.01  -0.10   0.07
    11   6    -0.02  -0.01   0.01     0.01  -0.10   0.02    -0.00   0.07  -0.02
    12   6     0.01   0.02   0.05     0.05  -0.10  -0.01    -0.04   0.07  -0.05
    13   6     0.01   0.00  -0.03     0.05   0.07  -0.01    -0.03  -0.02   0.02
    14   6     0.02  -0.02  -0.07    -0.00   0.10   0.01     0.01  -0.03   0.06
    15   9     0.03   0.00   0.03    -0.01  -0.10   0.01     0.01   0.04  -0.03
    16   6    -0.00  -0.01  -0.02    -0.04   0.08  -0.01     0.03  -0.03   0.02
    17   6    -0.00   0.00   0.05    -0.05  -0.09  -0.00     0.03   0.06  -0.05
    18   6    -0.03  -0.10   0.01    -0.00   0.02   0.12     0.01  -0.01  -0.06
    19   1    -0.03  -0.00  -0.06     0.05   0.08  -0.17    -0.22   0.08  -0.27
    20   1     0.10  -0.14   0.39     0.04   0.15  -0.04    -0.09  -0.14   0.09
    21   1    -0.10   0.35   0.24    -0.04   0.11  -0.03    -0.23  -0.14   0.10
    22   1     0.08  -0.10   0.32     0.01  -0.04   0.06     0.02  -0.01   0.05
    23   1     0.34  -0.03  -0.02     0.06  -0.10  -0.03     0.08  -0.14  -0.07
    24   1     0.01  -0.03  -0.05    -0.07   0.01   0.03     0.04  -0.06   0.05
    25   1     0.04   0.15  -0.08    -0.05  -0.17   0.06    -0.01  -0.03   0.04
    26   1     0.14  -0.01  -0.00    -0.18   0.05   0.08    -0.06   0.10   0.13
    27   1    -0.07   0.02  -0.07     0.05   0.17  -0.09     0.18   0.25  -0.12
    28   1     0.01   0.16  -0.16    -0.08  -0.29   0.14     0.09   0.06   0.02
    29   1    -0.06   0.13   0.05     0.14  -0.23  -0.30     0.18   0.01   0.22
    30   1     0.02   0.03   0.12     0.12  -0.15  -0.03    -0.10   0.09  -0.09
    31   1     0.00   0.01   0.01     0.16   0.13  -0.05    -0.11  -0.08   0.01
    32   1    -0.02   0.02   0.02    -0.15   0.13  -0.05     0.10  -0.08  -0.01
    33   1     0.00   0.03   0.12    -0.15  -0.15  -0.01     0.10   0.09  -0.11
    34   1     0.06  -0.08   0.18     0.04   0.07   0.30    -0.08  -0.05  -0.31
    35   1    -0.11  -0.27   0.01    -0.08  -0.15   0.11     0.11   0.23  -0.05
                     19                     20                     21
                      A                      A                      A
 Frequencies --    551.1787               562.5301               617.1001
 Red. masses --      2.5009                 7.2759                 5.4662
 Frc consts  --      0.4476                 1.3565                 1.2264
 IR Inten    --      9.4086                12.1023                 0.0782
  Atom  AN      X      Y      Z        X      Y      Z        X      Y      Z
     1   8    -0.01  -0.00  -0.02     0.04   0.07   0.05    -0.15  -0.10  -0.09
     2   6    -0.02  -0.01   0.00     0.14  -0.02  -0.00     0.01  -0.18  -0.16
     3   6     0.00  -0.00   0.01     0.04  -0.05  -0.02     0.12   0.06  -0.01
     4   6     0.01   0.01   0.01    -0.05  -0.05   0.00     0.13  -0.08   0.00
     5   6     0.00   0.01   0.00     0.07   0.02  -0.09     0.01   0.16   0.05
     6   6     0.02  -0.01  -0.01     0.10   0.04   0.04    -0.15   0.21   0.18
     7   6    -0.00   0.01   0.01     0.06  -0.08   0.03     0.01   0.07   0.15
     8   6    -0.02   0.00   0.00     0.03  -0.03  -0.04     0.11  -0.01   0.06
     9   6     0.00   0.02  -0.06    -0.05   0.00  -0.08     0.13  -0.02  -0.07
    10   6     0.01  -0.01  -0.03    -0.20   0.02   0.01    -0.01  -0.09  -0.08
    11   6     0.03   0.07   0.21    -0.29   0.02   0.05    -0.03   0.01  -0.02
    12   6     0.01  -0.01  -0.00    -0.16   0.12  -0.03     0.01   0.02  -0.03
    13   6     0.00  -0.03  -0.07    -0.11   0.13  -0.05     0.01   0.00   0.02
    14   6     0.00   0.08   0.23     0.20   0.01   0.03     0.01  -0.02  -0.03
    15   9    -0.02  -0.01  -0.03     0.31  -0.01  -0.02     0.03  -0.01   0.00
    16   6     0.00  -0.02  -0.07    -0.11  -0.13   0.03    -0.04  -0.03   0.02
    17   6     0.01   0.00  -0.01    -0.15  -0.12   0.05    -0.05  -0.00  -0.02
    18   6    -0.01  -0.05  -0.04     0.03   0.06   0.06    -0.17  -0.04  -0.04
    19   1     0.02  -0.00   0.03    -0.08   0.00  -0.02     0.12   0.14   0.23
    20   1     0.01  -0.05   0.08     0.02   0.01  -0.04     0.12  -0.19   0.13
    21   1     0.01   0.10   0.04     0.02  -0.03  -0.02     0.14   0.10   0.05
    22   1     0.01   0.02   0.01     0.07   0.09  -0.25     0.00  -0.06   0.11
    23   1     0.01   0.02   0.00    -0.11  -0.03  -0.04     0.10   0.10   0.01
    24   1     0.07  -0.00   0.01    -0.03   0.02   0.02    -0.01   0.24   0.21
    25   1    -0.00   0.02   0.03     0.04  -0.23   0.13     0.01   0.10  -0.07
    26   1     0.00   0.01   0.01    -0.12  -0.03  -0.04     0.09   0.02   0.11
    27   1    -0.06   0.00   0.02    -0.11  -0.03   0.02     0.12   0.25   0.11
    28   1    -0.01   0.05  -0.10     0.00  -0.04   0.00     0.14   0.10  -0.20
    29   1    -0.04   0.04  -0.04     0.01  -0.02  -0.07     0.12   0.06   0.10
    30   1    -0.02  -0.12  -0.34    -0.03   0.03  -0.07     0.02   0.03  -0.00
    31   1    -0.01  -0.16  -0.49    -0.35  -0.02  -0.07    -0.02  -0.00   0.08
    32   1    -0.01  -0.16  -0.48    -0.35  -0.01  -0.07    -0.06   0.00   0.08
    33   1    -0.02  -0.12  -0.36    -0.02  -0.07  -0.04    -0.02   0.02   0.01
    34   1     0.03  -0.06   0.00     0.10   0.02   0.03    -0.10  -0.09  -0.07
    35   1    -0.01  -0.11  -0.05     0.09  -0.01   0.02    -0.10  -0.07  -0.08
                     22                     23                     24
                      A                      A                      A
 Frequencies --    635.4268               654.8991               681.5620
 Red. masses --      3.7589                 6.5273                 4.6537
 Frc consts  --      0.8942                 1.6494                 1.2737
 IR Inten    --      1.3453                 0.4649                 0.9770
  Atom  AN      X      Y      Z        X      Y      Z        X      Y      Z
     1   8    -0.01  -0.04   0.03     0.02  -0.00   0.02    -0.03  -0.07  -0.06
     2   6    -0.00  -0.09   0.09    -0.01  -0.02   0.06    -0.17   0.04   0.03
     3   6    -0.14  -0.17  -0.01    -0.08  -0.07  -0.01     0.05   0.07   0.04
     4   6    -0.13   0.04  -0.02    -0.07   0.06  -0.02     0.11   0.20  -0.05
     5   6     0.05  -0.05  -0.13     0.02  -0.04  -0.06    -0.06  -0.03   0.07
     6   6    -0.00   0.06  -0.06     0.02   0.00  -0.04     0.03  -0.13  -0.11
     7   6    -0.05   0.15   0.03    -0.01   0.05  -0.00    -0.05   0.07  -0.04
     8   6     0.14   0.03   0.17     0.05   0.01   0.06     0.04   0.05   0.06
     9   6     0.15   0.02  -0.04     0.05   0.02  -0.03     0.09  -0.03   0.21
    10   6     0.00   0.05  -0.06    -0.00   0.03  -0.02     0.09   0.01   0.01
    11   6     0.00  -0.02   0.00     0.01   0.09  -0.03    -0.04   0.00   0.01
    12   6    -0.07  -0.05   0.00     0.28   0.17  -0.08    -0.08   0.03  -0.01
    13   6    -0.07   0.05  -0.00     0.27  -0.16   0.04    -0.08   0.05  -0.00
    14   6    -0.00   0.02  -0.02    -0.00  -0.08   0.02     0.04  -0.01  -0.01
    15   9     0.00   0.02  -0.01    -0.00  -0.08   0.03     0.11  -0.00  -0.00
    16   6     0.07   0.04  -0.01    -0.27  -0.14   0.06    -0.09  -0.04   0.03
    17   6     0.07  -0.04  -0.00    -0.27   0.19  -0.05    -0.09  -0.03   0.00
    18   6    -0.00   0.01  -0.02     0.02   0.03   0.01     0.04  -0.17  -0.15
    19   1    -0.10  -0.15   0.10    -0.05  -0.08   0.01     0.32  -0.05   0.06
    20   1    -0.00  -0.03   0.13     0.00   0.04   0.03     0.07   0.20  -0.07
    21   1    -0.18   0.22   0.04    -0.09   0.12   0.00     0.13   0.17  -0.07
    22   1     0.07  -0.01   0.12     0.03   0.01   0.05    -0.06  -0.03   0.06
    23   1     0.26  -0.02  -0.20     0.10  -0.03  -0.09    -0.03   0.08   0.08
    24   1    -0.00  -0.11   0.14    -0.02  -0.08   0.04     0.27  -0.08  -0.06
    25   1    -0.08  -0.10   0.02    -0.03  -0.08   0.02    -0.05   0.07  -0.04
    26   1    -0.24   0.22  -0.01    -0.12   0.09  -0.02    -0.03   0.09   0.06
    27   1     0.10  -0.06   0.17     0.01  -0.06   0.06     0.32   0.04  -0.05
    28   1    -0.00  -0.11   0.03    -0.01  -0.05   0.02     0.06  -0.04   0.21
    29   1     0.21  -0.07  -0.19     0.06  -0.02  -0.13     0.10  -0.05   0.17
    30   1    -0.06  -0.05   0.02     0.18   0.22  -0.08    -0.07   0.03  -0.01
    31   1    -0.05   0.06   0.02     0.20  -0.19   0.06    -0.17  -0.00   0.03
[...]
 ,0.00132337,0.00102714,-0.00181593,-0.00009052,0.00005314,-0.00003093,
 -0.00009785,0.00002052,-0.00007988,-0.00000589,0.00000815,-0.00003785,
 -0.00004655,-0.00013867,-0.00007901,0.00002059,-0.00002316,0.00046079,
 -0.00190890,-0.00129191,0.00000950,-0.01431972,0.01627700,0.00687691,0
 .02153502,-0.01090376,-0.05480261,0.01669064,-0.02102219,0.00059322,0.
 00450990,0.00269561,-0.00134072,0.00126994,-0.00121936,-0.00052839,0.0
 0013353,0.00017522,-0.00096371,0.00225453,0.00452207,-0.00179664,0.000
 27349,-0.00001329,-0.00030356,-0.00002841,0.00001496,0.00004119,0.0007
 2568,0.00003218,-0.00045190,0.00059611,-0.00054541,-0.00167654,0.00002
 765,-0.00001615,0.00006599,0.00001162,-0.00001974,-0.00002581,0.000039
 98,-0.00001732,-0.00000973,-0.00000171,0.00000275,0.00000485,0.0000142
 0,-0.00002408,0.00000633,-0.00002390,-0.00002761,0.00003596,-0.0000203
 5,0.00002542,0.00000961,-0.00004094,-0.00016212,0.00002649,-0.02971839
 ,0.01097194,0.05579153,-0.00004457,0.00000844,-0.00000805,0.00006885,-
 0.00001746,-0.00000839,-0.00000371,0.00003441,-0.00000588,0.00001688,-
 0.00011928,-0.00004420,0.00000178,-0.00001233,0.00000745,0.00008259,0.
 00001993,0.00004092,0.00000726,0.00001891,-0.00000303,-0.00001426,-0.0
 0004609,-0.00001795,0.00005460,0.00009192,0.00010590,0.00048344,-0.000
 60945,0.00035268,0.00115130,0.00303202,0.00502795,0.00360304,-0.015621
 53,0.01251208,-0.04632716,0.01345198,0.00596601,0.00436885,0.01453060,
 -0.01501464,-0.00062742,-0.00313964,-0.00186057,-0.00015033,0.00462116
 ,0.00281194,-0.00101549,0.00009462,0.00040736,-0.00022289,0.00002615,0
 .00019088,-0.00001517,0.00000497,0.00001379,-0.00003058,0.00001399,0.0
 0001662,0.00004234,0.00003378,-0.00000079,-0.00000734,0.00000658,0.000
 00273,0.00000102,0.00000023,-0.00000125,-0.00001996,0.00000187,0.00003
 549,-0.00000504,-0.00000364,0.00000352,0.00000092,-0.00000140,-0.00000
 210,-0.00001478,-0.00000063,0.00001795,-0.00001610,-0.00001292,-0.0000
 1406,-0.00000853,-0.00001927,-0.00000327,-0.00141506,-0.00166010,-0.00
 202228,0.04014166,-0.00003781,-0.00001053,-0.00000403,0.00004903,0.000
 02552,0.00000421,0.00001328,-0.00000824,-0.00000162,-0.00005891,-0.000
 02848,0.00000528,-0.00000935,-0.00000519,0.00001039,0.00002230,0.00001
 347,0.00000162,0.00000317,0.00000559,0.00000460,0.00002080,-0.00000475
 ,-0.00000787,0.00008496,0.00001200,-0.00002273,0.00015048,0.00021536,-
 0.00012345,0.00260121,0.00287206,0.00047173,-0.00055864,0.00530057,-0.
 00321553,0.01445344,-0.20016293,0.14845522,-0.00228752,-0.01322569,0.0
 2056980,-0.00248349,0.00098926,-0.00176988,0.00526103,-0.00152925,-0.0
 0058121,0.00030446,-0.00002464,-0.00105825,-0.00004865,0.00000961,0.00
 007221,-0.00000467,0.00000172,0.00000414,0.00001700,0.00001435,0.00002
 995,0.00001467,-0.00000847,-0.00002120,-0.00000297,0.00000277,0.000007
 42,-0.00000018,-0.00000190,-0.00000346,-0.00000533,-0.00000109,0.00001
 219,-0.00000484,-0.00000093,0.00000343,0.00000023,0.00000021,-0.000002
 61,-0.00000039,-0.00000192,0.00000107,-0.00000550,0.00000126,-0.000002
 88,-0.00000937,-0.00000972,-0.00000886,-0.00188397,-0.00038442,-0.0010
 6968,-0.01524021,0.20679661,0.00007382,-0.00002428,0.00001287,-0.00009
 165,0.00005527,-0.00001528,0.00002547,-0.00002753,0.00002683,-0.000108
 56,0.00010381,-0.00004345,0.00000057,0.00002816,0.00001474,-0.00009754
 ,0.00000903,-0.00002873,0.00000338,-0.00001840,0.00001955,0.00007744,0
 .00006420,0.00003685,0.00010651,-0.00012836,-0.00027392,-0.00039333,0.
 00092426,-0.00007907,0.00545247,-0.00013151,-0.00052193,-0.00263563,0.
 01778876,-0.01287970,0.00497357,0.14988478,-0.18991614,0.00187571,-0.0
 0288466,0.00435007,-0.00251934,-0.00085253,0.00013945,0.00216388,0.000
 30126,0.00187006,0.00020780,-0.00076313,-0.00017730,0.00024099,0.00005
 585,-0.00002086,0.00002449,-0.00000863,-0.00002347,0.00001566,0.000003
 04,0.00004104,0.00001372,-0.00002206,-0.00001150,0.00000713,-0.0000040
 0,-0.00000736,-0.00000903,-0.00000922,0.00000028,0.00001975,-0.0000011
 1,-0.00004224,0.00000486,0.00000227,-0.00001199,-0.00000528,-0.0000003
 7,0.00000311,0.00003410,0.00000185,-0.00004335,0.00000536,-0.00000114,
 0.00001478,-0.00001572,-0.00000162,-0.00000546,-0.00178400,-0.00139010
 ,-0.00017921,-0.00745733,-0.16261936,0.19765301,-0.00006522,-0.0000247
 6,-0.00001238,0.00007900,0.00005325,0.00001445,-0.00008409,0.00006002,
 -0.00005207,-0.00014190,-0.00018667,0.00024741,-0.00000044,-0.00000970
 ,-0.00002633,0.00003833,-0.00001519,0.00001600,-0.00000654,0.00002102,
 -0.00000847,-0.00001924,-0.00001921,-0.00002685,0.00000868,0.00001734,
 0.00006500,-0.00003530,0.00092448,-0.00023895,0.00274124,0.00120474,0.
 00532804,-0.00011579,-0.00063824,0.00009626,0.00304336,0.00129941,0.00
 142417,0.00197340,0.00032663,0.00227532,-0.00117110,-0.00165944,-0.002
 33243,-0.15944869,0.14810597,0.02841660,-0.00854033,0.01388958,-0.0000
 8660,-0.00010200,0.00004398,-0.00012542,-0.00003093,-0.00000125,0.0000
 4267,-0.00001865,0.00002301,-0.00001919,0.00001939,-0.00001659,-0.0000
 0135,-0.00000213,-0.00000049,0.00000975,0.00000394,-0.00000202,-0.0000
 0206,-0.00000648,-0.00000213,0.00002307,-0.00000564,-0.00000444,0.0000
 0616,0.00000914,-0.00000716,0.00000075,-0.00002215,-0.00000751,0.00002
 107,-0.00002572,0.00000317,-0.00000858,-0.00001957,-0.00000032,0.00002
 124,-0.00041646,-0.00021983,-0.00030825,0.00023618,-0.00000241,0.00015
 808,0.16361190,0.00002904,-0.00000287,-0.00000036,-0.00003891,0.000005
 80,-0.00000375,-0.00002018,-0.00002399,0.00000994,-0.00003326,0.000014
 17,-0.00005577,0.00001033,0.00001143,-0.00001066,-0.00002267,-0.000020
 61,0.00000706,0.00000123,-0.00000343,0.00000510,0.00000935,0.00001342,
 0.00000217,-0.00001281,-0.00006338,-0.00001721,0.00005221,0.00014115,0
 .00024746,0.00171476,0.00320796,0.00183910,-0.00086496,0.00018034,0.00
 051801,0.00066903,-0.00098585,0.00507307,0.01711838,-0.01363307,-0.006
 33608,-0.00232779,0.00092734,-0.00172438,0.14713264,-0.22097774,-0.015
 97728,-0.00122044,0.00305238,0.00003399,0.00002944,0.00004426,-0.00008
 416,0.00000507,-0.00000055,-0.00000833,-0.00001733,0.00000965,-0.00000
 374,0.00001297,-0.00001966,0.00000768,0.00000306,-0.00000224,-0.000007
 69,-0.00000247,-0.00000258,0.00000241,0.00000394,0.,-0.00001873,0.0000
 0268,-0.00000113,-0.00000682,-0.00000088,0.00000029,0.00000327,0.00000
 637,0.00000179,-0.00000936,-0.00000723,-0.00000351,0.00000056,-0.00002
 497,-0.00000358,0.00001502,-0.00023030,-0.00021593,-0.00026140,0.00086
 353,-0.00065050,-0.00020169,-0.16117445,0.22945665,0.00003134,0.000022
 23,0.00000244,-0.00005597,-0.00005816,0.00000385,0.00005214,-0.0001321
 3,0.00004522,0.00012263,0.00013855,-0.00039429,0.00001218,0.00001145,0
 .00001301,-0.00003774,-0.00000720,0.00000089,0.00001442,-0.00002354,0.
 00001229,-0.00000054,0.00004582,0.00000295,-0.00007443,-0.00015873,0.0
 0004054,0.00062750,-0.00096611,0.00056818,0.00481407,0.00256184,-0.001
 86034,0.00031914,0.00020191,-0.00115068,0.00206505,0.00419345,-0.00209
 625,-0.01460219,0.01711506,0.00702246,-0.00165947,-0.00265950,0.000951
 36,0.02942369,-0.01737883,-0.05607461,0.01506026,-0.02101333,0.0014817
 4,0.00005116,0.00000918,0.00003482,0.00003528,0.00000220,-0.00005431,-
 0.00000536,0.00002134,0.00001061,-0.00000461,-0.00003061,-0.00000106,-
 0.00000236,0.00000076,-0.00001207,-0.00000495,-0.00000062,0.00000054,0
 .00000470,0.00000046,-0.00002868,-0.00000036,0.00000304,-0.00000676,-0
 .00000721,0.00001237,-0.00000116,0.00001318,0.00000512,-0.00001536,-0.
 00000762,0.00001591,-0.00000289,-0.00001390,0.00005916,0.00000756,-0.0
 0029537,-0.00027823,-0.00010625,-0.00071197,0.00100717,0.00032901,-0.0
 3305980,0.01844102,0.05151077,0.00016141,-0.00014001,0.00003963,-0.000
 10057,0.00034889,-0.00014958,0.00003450,-0.00005544,0.00004390,-0.0001
 2972,-0.00012594,-0.00013634,-0.00001189,0.00000853,0.00003741,-0.0000
 8654,0.00009068,-0.00000217,-0.00000691,0.00005978,0.00004221,0.000171
 67,-0.00056887,0.00005929,-0.00081044,0.00074742,0.00031580,-0.0010951
 9,-0.00130771,-0.00168030,0.00389977,0.01364100,-0.01472509,0.00009470
 ,0.00492152,0.00289291,-0.00084992,-0.00000264,0.00026675,0.00188583,0
 .00356990,0.00482866,-0.00020258,-0.00088075,0.00112242,0.00369237,-0.
 01520560,0.01420174,-0.04852009,0.01742451,0.00034487,0.00001855,0.000
 09139,0.00026890,0.00000681,-0.00001968,-0.00001173,0.00005243,0.00001
 317,0.00001957,0.00003624,-0.00013294,-0.00003791,0.00000718,0.0000053
 3,-0.00000167,-0.00000854,-0.00001983,-0.00000211,0.00000718,-0.000012
 84,-0.00005443,0.00000398,-0.00002484,-0.00003657,0.00000194,-0.000030
 08,0.00003248,-0.00002127,0.00000933,0.00002190,0.00010660,-0.00003243
 ,0.00001498,-0.00144260,-0.00064530,0.00066281,0.00024733,0.00091900,-
 0.00075106,-0.00031661,-0.00033588,-0.00032814,-0.00153421,-0.00169835
 ,-0.00208292,0.04430416,-0.00011214,0.00007408,-0.00000923,0.00009992,
 -0.00019977,0.00005645,0.00005619,0.00001873,0.00001755,0.00000133,0.0
 0000359,-0.00026699,-0.00008876,-0.00010125,0.00020816,-0.00026833,0.0
 0045684,-0.00038522,0.00002247,0.00002035,0.00003416,0.00002132,0.0002
 3190,-0.00002696,-0.00002652,-0.00029898,0.00006687,-0.00204697,-0.000
 75986,0.00045194,-0.00051333,-0.01366823,0.01761382,0.00555609,-0.0015
 1028,-0.00048000,0.00009342,0.00005243,-0.00084834,0.00288082,0.003179
 68,0.00075332,-0.00007472,0.00009971,-0.00002993,0.00071391,0.00422756
 ,-0.00229624,0.01712722,-0.20303898,0.14423678,0.00072321,-0.00073753,
 0.00022174,0.00000140,0.00001051,-0.00004094,-0.00016365,0.00006048,-0
 .00002626,0.00002779,0.00008408,0.00006068,-0.00008830,0.00007041,-0.0
 0001059,0.00001071,-0.00000264,-0.00000718,0.00004563,-0.00000223,-0.0
 0004370,-0.00004115,-0.00001355,0.00002104,0.00000501,0.00003409,-0.00
 002508,-0.00001329,-0.00001124,-0.00001132,-0.00019662,0.00009546,-0.0
 0000052,-0.00041764,0.00070544,0.00015736,0.00000609,-0.00074950,0.001
 10874,-0.00034313,-0.00020077,-0.00011809,-0.00193560,-0.00041308,-0.0
 0115923,-0.02064181,0.21162259,0.00000095,-0.00007721,0.00001688,0.000
 05234,0.00019145,-0.00010497,-0.00004951,0.00006185,-0.00000983,-0.000
 25481,-0.00014592,0.00015438,0.00001736,-0.00003323,0.00005445,0.00001
 061,0.00014056,-0.00003328,0.00005410,-0.00001259,0.00001771,0.0000558
 9,-0.00039459,-0.00002038,0.00034433,0.00047621,-0.00014003,-0.0008711
 5,-0.00062004,-0.00134860,-0.00059894,-0.00205604,0.00603150,0.0022607
 6,0.00041171,0.00214654,0.00016721,-0.00071118,-0.00017716,0.00551250,
 -0.00021868,0.00043476,0.00031322,0.00109326,-0.00156525,-0.00178125,0
 .01987535,-0.01455281,0.00070245,0.14382589,-0.18102392,0.00034215,-0.
 00045553,-0.00059751,-0.00003389,-0.00000668,0.00003733,-0.00001206,0.
 00004591,0.00000050,0.00001233,-0.00003463,-0.00001991,-0.00001304,0.0
 0001715,0.00001435,-0.00000158,-0.00000162,-0.00000632,-0.00000372,-0.
 00001081,0.00001343,-0.00002942,0.00000683,-0.00000854,0.00000231,0.00
 001782,-0.00001253,-0.00004855,-0.00000098,0.00004782,-0.00004071,0.00
 001752,0.00005113,0.00069196,-0.00048047,0.00022430,0.00017121,-0.0001
 6136,0.00029875,-0.00031966,-0.00012742,-0.00021757,-0.00184511,-0.001
 47880,-0.00017937,-0.00523342,-0.15814533,0.19184374,-0.00002977,-0.00
 036761,-0.00000562,0.00022448,0.00094500,0.00001657,0.00044548,-0.0003
 9402,-0.00004171,-0.00109241,-0.00158555,-0.00359208,-0.00114387,-0.00
 164390,0.00384023,-0.01244073,0.01547488,0.00007839,0.00026792,0.00142
 456,-0.00076301,-0.00009906,-0.00046819,-0.00000306,0.00046002,0.00136
 728,0.00065005,-0.01184963,0.01484964,-0.00105159,-0.00018847,-0.00072
 588,0.00102786,0.00019986,0.00027314,-0.00028603,-0.00014054,0.0000382
 2,0.00019543,0.00004482,-0.00019537,0.00007008,-0.00002797,-0.00003784
 ,0.00002974,0.00028137,-0.00021295,-0.00003007,-0.00002612,0.00083511,
 0.00060063,-0.14066147,0.12116027,-0.00328563,-0.00000372,-0.00002178,
 0.00001987,-0.00058255,0.00109642,-0.00000328,0.00010597,0.00027624,0.
 00003243,-0.00059128,0.00107263,-0.00005671,0.00012047,0.00023149,-0.0
 0002847,0.00088430,-0.00034406,-0.00002240,0.00042778,-0.00020553,0.00
 001889,-0.00008215,-0.00097678,0.00016685,-0.00005481,-0.00003898,0.00
 000066,0.00032982,-0.00018897,0.00000402,-0.00007119,-0.00082660,-0.00
 018275,-0.00003180,-0.00007700,0.00006276,-0.00001306,-0.00000850,-0.0
 0001846,0.00004198,0.00003106,-0.00001028,0.00032113,-0.00040581,0.000
 42477,0.15255196,0.00018885,0.00016188,-0.00000030,-0.00026206,-0.0004
 0850,0.00000621,-0.00011793,0.00008571,0.00003551,-0.00021582,0.001064
 92,0.00055292,-0.00039745,0.00103860,-0.00070081,-0.00089310,-0.000560
 58,-0.00025634,-0.00066032,0.00060340,0.00032337,0.00007597,0.00001026
 ,-0.00001710,-0.00052407,0.00058971,0.00001615,-0.00088591,-0.00067302
 ,0.00035535,0.00075625,0.00009284,-0.00048404,-0.00010968,-0.00011605,
 0.00038351,0.00012625,-0.00000530,-0.00020935,-0.00002129,0.00020918,0
 .00002636,0.00000645,0.00004055,-0.00001995,-0.00040397,0.00007412,0.0
 0010122,-0.00015109,-0.00069000,-0.00085695,0.12149159,-0.21514814,0.0
 0392144,0.00004592,-0.00003303,-0.00001274,0.00037386,0.00014701,-0.00
 005539,-0.00014165,0.00041832,-0.00014333,0.00037436,0.00011021,0.0001
 0034,-0.00012853,0.00044209,0.00012910,0.00001267,0.00012188,-0.000540
 93,-0.00002539,0.00021296,-0.00010242,0.00018062,0.00056025,0.00003966
 ,-0.00000111,0.00002002,0.00001315,0.00004014,0.00015615,0.00007796,0.
 00012787,0.00043773,-0.00006440,-0.00001689,0.00007399,-0.00008115,-0.
 00001338,-0.00000142,0.00000560,-0.00003350,-0.00001874,0.00001065,0.0
 0018098,0.00050221,-0.00098746,-0.13498439,0.23198554,-0.00003957,0.00
 002691,-0.00002147,0.00005049,-0.00008478,-0.00005400,0.00007638,-0.00
 004425,-0.00046183,-0.00298666,-0.00109819,-0.00540350,0.00327921,0.00
 137633,-0.00492945,0.01746001,-0.02307255,0.00002684,-0.00062235,-0.00
 100477,0.00096800,-0.00007875,0.00000591,-0.00026987,0.00096671,0.0008
 8944,0.00121589,-0.01643924,0.02277969,-0.00147165,-0.00060123,0.00042
 102,0.00166986,0.00027559,0.00029709,-0.00034370,-0.00030608,0.0000593
 8,0.00025536,0.00020727,-0.00030082,0.00008809,-0.00008783,-0.00003533
 ,0.00010783,0.00042747,-0.00013465,-0.00021513,-0.00009404,0.00048229,
 -0.00092109,-0.00242529,0.00270776,-0.04700504,0.00001614,0.00000453,0
 .00028603,-0.00148725,0.00148626,0.00009289,0.00021750,-0.00021477,0.0
 0001919,0.00140398,-0.00140898,0.00009368,-0.00024572,0.00030580,-0.00
 001910,-0.00077510,-0.00022078,0.00093861,-0.00041222,-0.00003141,-0.0
 0006773,-0.00008696,0.00067124,0.00010920,-0.00001558,0.00000236,0.000
 09910,0.00033926,-0.00001530,-0.00007114,0.00000280,-0.00062247,0.0001
 3900,-0.00001763,-0.00011595,0.00011470,-0.00001383,-0.00001173,-0.000
 00645,-0.00001010,0.00000398,-0.00003950,0.00011379,-0.00113976,-0.001
 38269,0.00168798,-0.00196095,0.05663809,-0.00001069,0.00037430,-0.0000
 0260,0.00020886,-0.00096454,0.00000226,-0.00010923,0.00049756,-0.00000
 671,0.00027222,-0.00150203,0.00070087,0.00032376,-0.00143542,-0.000748
 72,-0.01186703,-0.01546613,0.00003455,-0.00114737,0.00158631,0.0038520
 3,0.00047517,0.00043979,-0.00001741,-0.00116547,0.00135002,-0.00357660
 ,-0.01149547,-0.01479743,-0.00122573,0.00010008,0.00051224,0.00099891,
 0.00023936,0.00005425,-0.00005954,0.00002845,-0.00000725,-0.00012590,-
 0.00007665,0.00011391,-0.00008598,0.00002200,0.00000730,0.00003137,-0.
 00015031,-0.00020405,0.00014006,0.00031742,0.00016936,-0.00024087,-0.1
 3543326,-0.11866250,0.00002006,-0.00005752,0.00003869,-0.00000198,0.00
 038722,0.00023199,0.00002394,-0.00011965,0.00093394,-0.00026602,0.0004
 1307,0.00020452,0.00001131,-0.00007758,0.00095412,0.00021853,0.0008148
 0,0.00033932,-0.00000563,-0.00057912,-0.00108546,-0.00006282,0.0001239
 8,-0.00023954,-0.00003108,0.00000554,0.00001639,0.00000209,-0.00056520
 ,-0.00102543,-0.00000621,0.00006418,-0.00020968,0.00003546,-0.00001979
 ,0.00002862,-0.00004386,0.00000733,-0.00000748,-0.00002074,0.00000605,
 0.00000195,-0.00000969,0.00008330,-0.00001477,0.00000040,0.01242323,0.
 01600577,0.00022089,0.14655834,-0.00018159,0.00015692,0.00000246,0.000
 26959,-0.00039413,-0.00000593,-0.00013519,0.00004211,0.00001264,0.0007
 2269,0.00055231,0.00028802,0.00063298,0.00060466,-0.00031268,0.0010351
 6,-0.00029472,0.00029949,0.00042702,0.00103759,0.00062593,0.00012110,0
 .00010346,-0.00002284,0.00024640,0.00107111,-0.00056596,0.00024954,-0.
 00104183,-0.00029813,-0.00016461,0.00055738,0.00038975,0.00018866,0.00
 011846,-0.00028742,-0.00001299,0.00006531,-0.00003201,0.00001181,-0.00
 006547,-0.00004015,0.00003930,0.00002859,-0.00004014,0.00001497,0.0001
 4674,-0.00010318,0.00040710,-0.00048736,0.00008998,-0.11933149,-0.2196
 6380,-0.00035628,-0.00000473,0.00001942,-0.00000119,0.00002711,0.00018
 924,-0.00010452,-0.00012646,0.00052313,0.00008099,0.00003506,0.0002073
 5,0.00010297,-0.00019454,0.00055084,-0.00006477,-0.00004175,0.00010227
 ,0.00055123,-0.00033876,0.00012910,-0.00010331,0.00012230,0.00042990,-
 0.00012472,-0.00004179,-0.00003753,0.00000743,-0.00032167,0.00011389,0
 .00003503,0.00013984,0.00034783,0.00013823,-0.00003342,0.00000456,0.00
 000271,0.00000535,0.00000044,-0.00002035,-0.00001168,-0.00002416,-0.00
 001246,-0.00015046,0.00015775,-0.00002095,-0.01536623,-0.02150477,-0.0
 0000255,0.13176139,0.23625341,-0.00001501,-0.00001855,-0.00002424,0.00
 001819,0.00005219,-0.00005088,-0.00002141,-0.00000479,-0.00026638,0.00
 074122,-0.00112501,0.00101763,-0.00066112,0.00103817,0.00104598,0.0165
 9523,0.02334767,0.00022528,0.00324294,-0.00136120,-0.00500445,0.000078
 93,0.00004563,-0.00043553,-0.00314239,0.00109044,-0.00535334,-0.016372
 33,-0.02317336,-0.00176029,-0.00092951,-0.00072307,0.00171840,0.000134
 11,0.00031821,0.00001002,0.00001826,0.00004811,-0.00009142,0.00001575,
 0.00002409,-0.00011966,-0.00006700,0.00001729,0.00009625,0.00001389,-0
 .00005770,0.00007036,0.00037354,-0.00012378,-0.00000227,0.00034352,0.0
 0026293,-0.04778908,-0.00000519,-0.00000272,0.00010075,0.00036068,0.00
 000569,-0.00003096,0.00005294,0.00068433,0.00009518,-0.00040702,0.0000
 1741,-0.00007400,-0.00006194,-0.00071285,0.00006176,-0.00082205,0.0001
 8242,0.00090563,0.00140382,0.00144105,0.00010615,-0.00024812,-0.000307
 97,-0.00001460,0.00001887,-0.00000045,0.00029795,-0.00145406,-0.001504
 73,0.00021019,0.00023017,0.00020390,0.00001040,-0.00003152,-0.00000115
 ,-0.00003210,-0.00000401,-0.00000869,-0.00000665,-0.00000209,-0.000003
 63,-0.00001464,-0.00009658,0.00006229,0.00001309,0.00045394,0.00039511
 ,-0.00017905,0.00024537,-0.00010728,0.05526453\\0.00017431,0.00000994,
 0.00003564,-0.00014808,-0.00003964,0.00003066,-0.00004260,0.00005038,-
 0.00005902,0.00002042,-0.00005436,0.00002143,0.00001433,-0.00001730,0.
 00000622,0.00002018,0.00007161,-0.00004640,0.00004053,-0.00001141,0.00
 000108,0.00000212,0.00000467,-0.00007267,-0.00002138,-0.00006975,0.000
 03933,0.00001630,-0.00000731,0.00001159,0.00004776,0.00006900,0.000030
 01,-0.00001151,-0.00001554,-0.00000968,-0.00000336,0.00002716,-0.00000
 422,-0.00001656,0.00000316,0.00000516,0.00000100,-0.00000821,0.0000060
 8,0.00000259,-0.00002328,0.00000550,0.00001132,-0.00002281,-0.00004097
 ,-0.00000310,0.00002358,0.00003940,-0.00001931,0.00001911,-0.00000309,
 -0.00001098,-0.00000507,0.00000603,0.00000578,0.00000462,-0.00001300,-
 0.00000124,0.00000833,-0.00000879,-0.00000133,0.00000131,0.00000002,0.
 00000474,-0.00000075,-0.00000577,-0.00000851,-0.00000845,0.00000752,-0
 .00001841,-0.00000232,-0.00000524,-0.00001759,-0.00001082,-0.00000425,
 -0.00001067,-0.00002080,-0.00000766,-0.00000387,-0.00002502,-0.0000017
 9,-0.00001591,0.00000519,0.00001986,0.00000454,0.00000580,-0.00000044,
 0.00001086,-0.00000232,-0.00000482,-0.00001410,0.00001275,-0.00001975,
 -0.00001179,0.00001501,0.00003435,0.00000355,0.00001352,0.00000768\\\@


 YOU CAN WIPE THE SLATE CLEAN, BUT YOU'LL STILL
 HAVE TO EAT A LITTLE CHALK DUST.
 Job cpu time:       0 days  0 hours  5 minutes 58.9 seconds.
 Elapsed time:       0 days  0 hours  6 minutes 21.0 seconds.
 File lengths (MBytes):  RWF=    383 Int=      0 D2E=      0 Chk=     16 Scr=      1
 Normal termination of Gaussian 16 at Fri Feb 23 23:03:27 2024.
