 Entering Gaussian System, Link 0=g16
 Input=/Volumes/SSD-PMU3/b3lyp_6-31gd_freq/NFLGAXVYCFJBMK-BDAKNGLRSA-N_calculating/gaussianinput0.gjf
 Output=/Volumes/SSD-PMU3/b3lyp_6-31gd_freq/NFLGAXVYCFJBMK-BDAKNGLRSA-N_calculating/gaussianinput0.log
 Initial command:
 /Applications/g16/l1.exe "/Users/macmini_m1_2022/PycharmProjects/sphere_model/sphere_model_lib/Gau-60589.inp" -scrdir="/Users/macmini_m1_2022/PycharmProjects/sphere_model/sphere_model_lib/"
 Entering Link 1 = /Applications/g16/l1.exe PID=     60590.
  
 Copyright (c) 1988,1990,1992,1993,1995,1998,2003,2009,2016,
            Gaussian, Inc.  All Rights Reserved.
  
 This is part of the Gaussian(R) 16 program.  It is based on
 the Gaussian(R) 09 system (copyright 2009, Gaussian, Inc.),
 the Gaussian(R) 03 system (copyright 2003, Gaussian, Inc.),
 the Gaussian(R) 98 system (copyright 1998, Gaussian, Inc.),
 the Gaussian(R) 94 system (copyright 1995, Gaussian, Inc.),
 the Gaussian 92(TM) system (copyright 1992, Gaussian, Inc.),
 the Gaussian 90(TM) system (copyright 1990, Gaussian, Inc.),
 the Gaussian 88(TM) system (copyright 1988, Gaussian, Inc.),
 the Gaussian 86(TM) system (copyright 1986, Carnegie Mellon
 University), and the Gaussian 82(TM) system (copyright 1983,
 Carnegie Mellon University). Gaussian is a federally registered
 trademark of Gaussian, Inc.
  
 This software contains proprietary and confidential information,
 including trade secrets, belonging to Gaussian, Inc.
  
 This software is provided under written license and may be
 used, copied, transmitted, or stored only in accord with that
 written license.
  
 The following legend is applicable only to US Government
 contracts under FAR:
  
                    RESTRICTED RIGHTS LEGEND
  
 Use, reproduction and disclosure by the US Government is
 subject to restrictions as set forth in subparagraphs (a)
 and (c) of the Commercial Computer Software - Restricted
 Rights clause in FAR 52.227-19.
  
 Gaussian, Inc.
 340 Quinnipiac St., Bldg. 40, Wallingford CT 06492
  
  
 ---------------------------------------------------------------
 Warning -- This program may not be used in any manner that
 competes with the business of Gaussian, Inc. or will provide
 assistance to any competitor of Gaussian, Inc.  The licensee
 of this program is prohibited from giving any competitor of
 Gaussian, Inc. access to this program.  By using this program,
 the user acknowledges that Gaussian, Inc. is engaged in the
 business of creating and licensing software in the field of
 computational chemistry and represents and warrants to the
 licensee that it is not a competitor of Gaussian, Inc. and that
 it will not use this program in any manner prohibited above.
 ---------------------------------------------------------------
  

 Cite this work as:
 Gaussian 16, Revision A.03,
 M. J. Frisch, G. W. Trucks, H. B. Schlegel, G. E. Scuseria, 
 M. A. Robb, J. R. Cheeseman, G. Scalmani, V. Barone, 
 G. A. Petersson, H. Nakatsuji, X. Li, M. Caricato, A. V. Marenich, 
 J. Bloino, B. G. Janesko, R. Gomperts, B. Mennucci, H. P. Hratchian, 
 J. V. Ortiz, A. F. Izmaylov, J. L. Sonnenberg, D. Williams-Young, 
 F. Ding, F. Lipparini, F. Egidi, J. Goings, B. Peng, A. Petrone, 
 T. Henderson, D. Ranasinghe, V. G. Zakrzewski, J. Gao, N. Rega, 
 G. Zheng, W. Liang, M. Hada, M. Ehara, K. Toyota, R. Fukuda, 
 J. Hasegawa, M. Ishida, T. Nakajima, Y. Honda, O. Kitao, H. Nakai, 
 T. Vreven, K. Throssell, J. A. Montgomery, Jr., J. E. Peralta, 
 F. Ogliaro, M. J. Bearpark, J. J. Heyd, E. N. Brothers, K. N. Kudin, 
 V. N. Staroverov, T. A. Keith, R. Kobayashi, J. Normand, 
 K. Raghavachari, A. P. Rendell, J. C. Burant, S. S. Iyengar, 
 J. Tomasi, M. Cossi, J. M. Millam, M. Klene, C. Adamo, R. Cammi, 
 J. W. Ochterski, R. L. Martin, K. Morokuma, O. Farkas, 
 J. B. Foresman, and D. J. Fox, Gaussian, Inc., Wallingford CT, 2016.
 
 ******************************************
 Gaussian 16:  EM64M-G16RevA.03 25-Dec-2016
                22-Feb-2024 
 ******************************************
 %nprocshared=8
 Will use up to    8 processors via shared memory.
 %mem=8GB
 %chk= 0.chk
 ---------------------
 # freq b3lyp/6-31g(d)
 ---------------------
 1/10=4,30=1,38=1/1,3;
 2/12=2,17=6,18=5,40=1/2;
 3/5=1,6=6,7=1,11=2,25=1,30=1,71=2,74=-5,140=1/1,2,3;
 4//1;
 5/5=2,38=5,98=1/2;
 8/6=4,10=90,11=11/1;
 11/6=1,8=1,9=11,15=111,16=1/1,2,10;
 10/6=1/2;
 6/7=2,8=2,9=2,10=2,28=1/1;
 7/8=1,10=1,25=1/1,2,3,16;
 1/10=4,30=1/3;
 99//99;
 ---------
 good luck
 ---------
 Symbolic Z-matrix:
 Charge =  0 Multiplicity = 1
 O                     1.21814   0.        0. 
 C                     0.        0.        0. 
 C                    -0.84105  -1.28282  -0.04584 
 C                     0.01822  -2.56098   0.09168 
 C                    -0.75747  -3.84424  -0.2462 
 C                     0.61183  -2.66874   1.50683 
 C                    -1.70973  -1.20474  -1.33185 
 C                    -2.54294   0.08398  -1.40223 
 C                    -1.68206   1.35391  -1.31386 
 C                    -2.52568   2.6325   -1.34956 
 C                    -0.79707   1.2961   -0.04584 
 H                    -1.53986  -1.23585   0.807 
 H                     0.85409  -2.46552  -0.61386 
 H                    -1.07363  -3.88221  -1.29366 
 H                    -0.12847  -4.72315  -0.06333 
 H                    -1.6538   -3.9473    0.38048 
 H                     1.20915  -1.78903   1.75783 
 H                    -0.18379  -2.77613   2.25694 
 H                     1.26005  -3.5492    1.5874 
 H                    -1.05378  -1.27056  -2.21226 
 H                    -2.3779   -2.0707   -1.37421 
 H                    -3.2738    0.08915  -0.57883 
 H                    -3.12565   0.09568  -2.33265 
 H                    -1.00735   1.36428  -2.18374 
 H                    -3.21705   2.67037  -0.49785 
 H                    -1.8942    3.52745  -1.30733 
 H                    -3.12292   2.68553  -2.2676 
 H                    -1.44685   1.34913   0.84112 
 H                    -0.0967    2.13614  -0.00675 
 

 GradGradGradGradGradGradGradGradGradGradGradGradGradGradGradGradGradGrad
 Berny optimization.
 Initialization pass.
 Trust Radius=3.00D-01 FncErr=1.00D-07 GrdErr=1.00D-07 EigMax=2.50D+02 EigMin=1.00D-04
 Number of steps in this run=      2 maximum allowed number of steps=      2.
 GradGradGradGradGradGradGradGradGradGradGradGradGradGradGradGradGradGrad

                          Input orientation:                          
 ---------------------------------------------------------------------
 Center     Atomic      Atomic             Coordinates (Angstroms)
 Number     Number       Type             X           Y           Z
 ---------------------------------------------------------------------
      1          8           0        1.218142    0.000000    0.000000
      2          6           0        0.000000    0.000000    0.000000
      3          6           0       -0.841047   -1.282816   -0.045838
      4          6           0        0.018219   -2.560981    0.091675
      5          6           0       -0.757471   -3.844241   -0.246196
      6          6           0        0.611826   -2.668743    1.506830
      7          6           0       -1.709726   -1.204738   -1.331854
      8          6           0       -2.542936    0.083982   -1.402228
      9          6           0       -1.682061    1.353912   -1.313863
     10          6           0       -2.525683    2.632496   -1.349560
     11          6           0       -0.797070    1.296100   -0.045838
     12          1           0       -1.539862   -1.235848    0.806997
     13          1           0        0.854091   -2.465516   -0.613859
     14          1           0       -1.073633   -3.882205   -1.293659
     15          1           0       -0.128466   -4.723149   -0.063328
     16          1           0       -1.653803   -3.947299    0.380482
     17          1           0        1.209148   -1.789028    1.757826
     18          1           0       -0.183792   -2.776132    2.256938
     19          1           0        1.260045   -3.549200    1.587401
     20          1           0       -1.053777   -1.270556   -2.212258
     21          1           0       -2.377900   -2.070704   -1.374214
     22          1           0       -3.273800    0.089150   -0.578829
     23          1           0       -3.125645    0.095679   -2.332653
     24          1           0       -1.007347    1.364283   -2.183738
     25          1           0       -3.217047    2.670365   -0.497852
     26          1           0       -1.894202    3.527446   -1.307326
     27          1           0       -3.122919    2.685527   -2.267596
     28          1           0       -1.446847    1.349126    0.841119
     29          1           0       -0.096698    2.136138   -0.006748
 ---------------------------------------------------------------------
                    Distance matrix (angstroms):
                    1          2          3          4          5
     1  O    0.000000
     2  C    1.218142   0.000000
     3  C    2.426515   1.534626   0.000000
     4  C    2.829637   2.562686   1.546271   0.000000
     5  C    4.329186   3.925884   2.570608   1.537078   0.000000
     6  C    3.124155   3.125229   2.538191   1.538391   2.515923
     7  C    3.434769   2.479595   1.553878   2.617561   3.008724
     8  C    4.014848   2.905137   2.569894   3.973297   4.467128
     9  C    3.459840   2.527576   3.044261   4.493648   5.386611
    10  C    4.771538   3.889784   4.457281   5.959933   6.803830
    11  C    2.396467   1.522267   2.579291   3.944703   5.144397
    12  H    3.128123   2.133012   1.103574   2.166859   2.919771
    13  H    2.566734   2.680497   2.143576   1.097986   2.152485
    14  H    4.690128   4.230574   2.892746   2.203843   1.094796
    15  H    4.911772   4.725320   3.513398   2.172674   1.096160
    16  H    4.896326   4.296627   2.818118   2.191106   1.098525
    17  H    2.508118   2.784351   2.777185   2.188671   3.479597
    18  H    3.842668   3.582521   2.822190   2.185283   2.781303
    19  H    3.888241   4.087099   3.495505   2.180804   2.742170
    20  H    3.416140   2.760225   2.176874   2.849996   3.252238
    21  H    4.371247   3.439577   2.178822   2.851419   2.653987
    22  H    4.529960   3.325772   2.843353   4.279037   4.681252
    23  H    4.931421   3.901292   3.514137   4.776933   5.048220
    24  H    3.403349   2.764910   3.406671   4.651558   5.562844
    25  H    5.200924   4.210475   4.634364   6.179116   6.967994
    26  H    4.882485   4.211885   5.083218   6.533261   7.533918
    27  H    5.585594   4.701773   5.088310   6.554293   7.233206
    28  H    3.103190   2.149648   2.842676   4.242290   5.350566
    29  H    2.508373   2.138336   3.499261   4.699555   6.021535
                    6          7          8          9         10
     6  C    0.000000
     7  C    3.948549   0.000000
     8  C    5.098297   1.536226   0.000000
     9  C    5.422175   2.558863   1.536762   0.000000
    10  C    6.790144   3.923068   2.549117   1.532237   0.000000
    11  C    4.485058   2.956513   2.521323   1.547397   2.544356
    12  H    2.678193   2.145811   2.762025   3.350392   4.537253
    13  H    2.144135   2.945885   4.319868   4.637899   6.160670
    14  H    3.486546   2.752254   4.230990   5.271386   6.674796
    15  H    2.689612   4.060635   5.543539   6.395949   7.842612
    16  H    2.834862   3.233707   4.496648   5.565469   6.859076
    17  H    1.092562   4.290378   5.250928   5.260460   6.569223
    18  H    1.098728   4.204424   5.209156   5.661510   6.909742
    19  H    1.096305   4.778922   6.049839   6.412007   7.821179
    20  H    4.308222   1.099869   2.169912   2.844237   4.259644
    21  H    4.194821   1.094599   2.161179   3.495115   4.705586
    22  H    5.201350   2.165068   1.100988   2.161835   2.760854
    23  H    6.029291   2.167374   1.097897   2.169105   2.786013
    24  H    5.701518   2.796232   2.146616   1.100922   2.146989
    25  H    6.869141   4.240755   2.821648   2.180620   1.097645
    26  H    7.252062   4.735842   3.505325   2.183872   1.096124
    27  H    7.540744   4.243453   2.802370   2.181485   1.096491
    28  H    4.563395   3.363501   2.799037   2.167786   2.758623
    29  H    5.087220   3.939444   3.484650   2.198591   2.819483
                   11         12         13         14         15
    11  C    0.000000
    12  H    2.773054   0.000000
    13  H    4.147136   3.043341   0.000000
    14  H    5.333703   3.410767   2.487017   0.000000
    15  H    6.056294   3.861447   2.522976   1.764721   0.000000
    16  H    5.330007   2.747156   3.077975   1.773015   1.767926
    17  H    4.098308   2.960936   2.491704   4.347878   3.703361
    18  H    4.718258   2.512714   3.068413   3.823866   3.029451
    19  H    5.511454   3.714850   2.486909   3.722560   2.455815
    20  H    3.368530   3.058330   2.760936   2.768561   4.170671
    21  H    3.949554   2.481325   3.343618   2.233638   3.716697
    22  H    2.806243   2.585087   4.854589   4.596018   5.772096
    23  H    3.477470   3.760994   5.035104   4.594978   6.111794
    24  H    2.149298   3.998593   4.538373   5.321867   6.505797
    25  H    2.819434   4.446806   6.554761   6.940008   8.024475
    26  H    2.788181   5.223494   6.629450   7.454961   8.528638
    27  H    3.503754   5.228420   6.714514   6.948614   8.289392
    28  H    1.100779   2.586872   4.686445   5.662454   6.279226
    29  H    1.094401   3.757019   4.737911   6.231452   6.859594
                   16         17         18         19         20
    16  H    0.000000
    17  H    3.840794   0.000000
    18  H    2.655871   1.778699   0.000000
    19  H    3.178938   1.769136   1.769344   0.000000
    20  H    3.774558   4.599044   4.795555   4.998340   0.000000
    21  H    2.669248   4.770318   4.300814   4.918512   1.759505
    22  H    4.453941   5.392989   5.079327   6.203700   3.073336
    23  H    5.086560   6.250965   6.161667   6.919989   2.484699
    24  H    5.933467   5.512907   6.127061   6.595822   2.635402
    25  H    6.856288   6.675738   6.815705   7.942016   4.811422
    26  H    7.666701   6.876833   7.440738   8.270891   4.954396
    27  H    7.291433   7.415691   7.677213   8.540679   4.464863
    28  H    5.320445   4.212205   4.540661   5.646043   4.042320
    29  H    6.291481   4.497320   5.409460   6.058476   4.169633
                   21         22         23         24         25
    21  H    0.000000
    22  H    2.469867   0.000000
    23  H    2.484138   1.760083   0.000000
    24  H    3.785879   3.055897   2.473604   0.000000
    25  H    4.893865   2.583108   3.162887   3.070967   0.000000
    26  H    5.619406   3.775696   3.787449   2.496775   1.771935
    27  H    4.896419   3.100947   2.590666   2.495669   1.772310
    28  H    4.179689   2.634682   3.802936   3.056657   2.583045
    29  H    4.977084   3.822488   4.329876   2.482806   3.203617
                   26         27         28         29
    26  H    0.000000
    27  H    1.772200   0.000000
    28  H    3.092090   3.776148   0.000000
    29  H    2.618828   3.817234   1.777968   0.000000
 Stoichiometry    C10H18O
 Framework group  C1[X(C10H18O)]
 Deg. of freedom    81
 Full point group                 C1      NOp   1
 Largest Abelian subgroup         C1      NOp   1
 Largest concise Abelian subgroup C1      NOp   1
                         Standard orientation:                         
 ---------------------------------------------------------------------
 Center     Atomic      Atomic             Coordinates (Angstroms)
 Number     Number       Type             X           Y           Z
 ---------------------------------------------------------------------
      1          8           0        0.389391    1.997442   -0.801993
      2          6           0       -0.077199    1.093464   -0.131926
      3          6           0        0.706055   -0.175473    0.230549
      4          6           0        2.192131   -0.095747   -0.189185
      5          6           0        2.912246   -1.451161   -0.106156
      6          6           0        2.942684    0.945418    0.658927
      7          6           0       -0.084797   -1.375606   -0.360021
      8          6           0       -1.549742   -1.399883    0.101865
      9          6           0       -2.301261   -0.102871   -0.236684
     10          6           0       -3.750834   -0.123800    0.259351
     11          6           0       -1.527300    1.110917    0.330892
     12          1           0        0.656032   -0.277675    1.328241
     13          1           0        2.215044    0.245383   -1.232583
     14          1           0        2.506620   -2.187605   -0.807368
     15          1           0        3.975511   -1.327279   -0.342136
     16          1           0        2.848886   -1.877239    0.904389
     17          1           0        2.480010    1.932191    0.582097
     18          1           0        2.959111    0.648933    1.716768
     19          1           0        3.983638    1.035599    0.327016
     20          1           0       -0.043106   -1.327100   -1.458029
     21          1           0        0.402011   -2.311996   -0.069610
     22          1           0       -1.584495   -1.559773    1.190626
     23          1           0       -2.065302   -2.255978   -0.352752
     24          1           0       -2.315667    0.001458   -1.332556
     25          1           0       -3.790406   -0.225417    1.351565
     26          1           0       -4.277024    0.799393   -0.009582
     27          1           0       -4.304267   -0.964864   -0.174950
     28          1           0       -1.553478    1.063797    1.430351
     29          1           0       -1.980143    2.057087    0.018792
 ---------------------------------------------------------------------
 Rotational constants (GHZ):           2.0045952           0.6854699           0.5544554
 Standard basis: 6-31G(d) (6D, 7F)
 There are   201 symmetry adapted cartesian basis functions of A   symmetry.
 There are   201 symmetry adapted basis functions of A   symmetry.
   201 basis functions,   380 primitive gaussians,   201 cartesian basis functions
    43 alpha electrons       43 beta electrons
       nuclear repulsion energy       658.1913834912 Hartrees.
 NAtoms=   29 NActive=   29 NUniq=   29 SFac= 1.00D+00 NAtFMM=   60 NAOKFM=F Big=F
 Integral buffers will be    131072 words long.
 Raffenetti 2 integral format.
 Two-electron integral symmetry is turned on.
 One-electron integrals computed using PRISM.
 NBasis=   201 RedAO= T EigKep=  2.33D-03  NBF=   201
 NBsUse=   201 1.00D-06 EigRej= -1.00D+00 NBFU=   201
 ExpMin= 1.61D-01 ExpMax= 5.48D+03 ExpMxC= 8.25D+02 IAcc=3 IRadAn=         5 AccDes= 0.00D+00
 Harris functional with IExCor=  402 and IRadAn=       5 diagonalized for initial guess.
 HarFok:  IExCor=  402 AccDes= 0.00D+00 IRadAn=         5 IDoV= 1 UseB2=F ITyADJ=14
 ICtDFT=  3500011 ScaDFX=  1.000000  1.000000  1.000000  1.000000
 FoFCou: FMM=F IPFlag=           0 FMFlag=      100000 FMFlg1=           0
         NFxFlg=           0 DoJE=T BraDBF=F KetDBF=T FulRan=T
         wScrn=  0.000000 ICntrl=       500 IOpCl=  0 I1Cent=   200000004 NGrid=           0
         NMat0=    1 NMatS0=      1 NMatT0=    0 NMatD0=    1 NMtDS0=    0 NMtDT0=    0
 Petite list used in FoFCou.
 Requested convergence on RMS density matrix=1.00D-08 within 128 cycles.
 Requested convergence on MAX density matrix=1.00D-06.
 Requested convergence on             energy=1.00D-06.
 No special actions if energy rises.
 Integral accuracy reduced to 1.0D-05 until final iterations.
 Initial convergence to 1.0D-05 achieved.  Increase integral accuracy.
 SCF Done:  E(RB3LYP) =  -467.146644078     A.U. after   13 cycles
            NFock= 13  Conv=0.57D-08     -V/T= 2.0098
 DoSCS=F DFT=T ScalE2(SS,OS)=  1.000000  1.000000
 Range of M.O.s used for correlation:     1   201
 NBasis=   201 NAE=    43 NBE=    43 NFC=     0 NFV=     0
 NROrb=    201 NOA=    43 NOB=    43 NVA=   158 NVB=   158
 Symmetrizing basis deriv contribution to polar:
 IMax=3 JMax=2 DiffMx= 0.00D+00
 G2DrvN: will do    30 centers at a time, making    1 passes.
 Calling FoFCou, ICntrl=  3107 FMM=F I1Cent=   0 AccDes= 0.00D+00.
 End of G2Drv F.D. properties file   721 does not exist.
 End of G2Drv F.D. properties file   722 does not exist.
 End of G2Drv F.D. properties file   788 does not exist.
          IDoAtm=11111111111111111111111111111
          Differentiating once with respect to electric field.
                with respect to dipole field.
          Differentiating once with respect to nuclear coordinates.
 Keep R1 ints in memory in canonical form, NReq=214321554.
          There are    90 degrees of freedom in the 1st order CPHF.  IDoFFX=6 NUNeed=     3.
     87 vectors produced by pass  0 Test12= 7.55D-15 1.11D-09 XBig12= 7.03D+01 2.18D+00.
 AX will form    87 AO Fock derivatives at one time.
     87 vectors produced by pass  1 Test12= 7.55D-15 1.11D-09 XBig12= 4.44D+00 4.04D-01.
     87 vectors produced by pass  2 Test12= 7.55D-15 1.11D-09 XBig12= 3.03D-02 1.85D-02.
     87 vectors produced by pass  3 Test12= 7.55D-15 1.11D-09 XBig12= 6.53D-05 8.82D-04.
     87 vectors produced by pass  4 Test12= 7.55D-15 1.11D-09 XBig12= 5.27D-08 3.15D-05.
     39 vectors produced by pass  5 Test12= 7.55D-15 1.11D-09 XBig12= 3.09D-11 5.57D-07.
      3 vectors produced by pass  6 Test12= 7.55D-15 1.11D-09 XBig12= 1.83D-14 1.37D-08.
 InvSVY:  IOpt=1 It=  1 EMax= 7.99D-15
 Solved reduced A of dimension   477 with    90 vectors.
 Isotropic polarizability for W=    0.000000      104.56 Bohr**3.
 End of Minotr F.D. properties file   721 does not exist.
 End of Minotr F.D. properties file   722 does not exist.
 End of Minotr F.D. properties file   788 does not exist.

 **********************************************************************

            Population analysis using the SCF density.

 **********************************************************************

 Orbital symmetries:
       Occupied  (A) (A) (A) (A) (A) (A) (A) (A) (A) (A) (A) (A)
                 (A) (A) (A) (A) (A) (A) (A) (A) (A) (A) (A) (A)
                 (A) (A) (A) (A) (A) (A) (A) (A) (A) (A) (A) (A)
                 (A) (A) (A) (A) (A) (A) (A)
       Virtual   (A) (A) (A) (A) (A) (A) (A) (A) (A) (A) (A) (A)
                 (A) (A) (A) (A) (A) (A) (A) (A) (A) (A) (A) (A)
                 (A) (A) (A) (A) (A) (A) (A) (A) (A) (A) (A) (A)
                 (A) (A) (A) (A) (A) (A) (A) (A) (A) (A) (A) (A)
                 (A) (A) (A) (A) (A) (A) (A) (A) (A) (A) (A) (A)
                 (A) (A) (A) (A) (A) (A) (A) (A) (A) (A) (A) (A)
                 (A) (A) (A) (A) (A) (A) (A) (A) (A) (A) (A) (A)
                 (A) (A) (A) (A) (A) (A) (A) (A) (A) (A) (A) (A)
                 (A) (A) (A) (A) (A) (A) (A) (A) (A) (A) (A) (A)
                 (A) (A) (A) (A) (A) (A) (A) (A) (A) (A) (A) (A)
                 (A) (A) (A) (A) (A) (A) (A) (A) (A) (A) (A) (A)
                 (A) (A) (A) (A) (A) (A) (A) (A) (A) (A) (A) (A)
                 (A) (A) (A) (A) (A) (A) (A) (A) (A) (A) (A) (A)
                 (A) (A)
 The electronic state is 1-A.
 Alpha  occ. eigenvalues --  -19.13380 -10.26678 -10.20012 -10.19325 -10.19138
 Alpha  occ. eigenvalues --  -10.18844 -10.18748 -10.18466 -10.18085 -10.17134
 Alpha  occ. eigenvalues --  -10.16345  -1.03241  -0.84018  -0.80139  -0.74948
 Alpha  occ. eigenvalues --   -0.72559  -0.68245  -0.67540  -0.61299  -0.58051
 Alpha  occ. eigenvalues --   -0.56214  -0.52740  -0.48375  -0.46032  -0.44304
 Alpha  occ. eigenvalues --   -0.44148  -0.43351  -0.42791  -0.41374  -0.39507
 Alpha  occ. eigenvalues --   -0.39276  -0.39169  -0.37684  -0.37323  -0.35628
 Alpha  occ. eigenvalues --   -0.34754  -0.34465  -0.33292  -0.32699  -0.32039
 Alpha  occ. eigenvalues --   -0.31208  -0.30482  -0.23394
 Alpha virt. eigenvalues --   -0.01184   0.08653   0.09301   0.10092   0.12357
 Alpha virt. eigenvalues --    0.13641   0.14202   0.14639   0.14953   0.15796
 Alpha virt. eigenvalues --    0.16245   0.16661   0.17095   0.17576   0.18310
 Alpha virt. eigenvalues --    0.19094   0.19245   0.20182   0.20507   0.21944
 Alpha virt. eigenvalues --    0.22346   0.23804   0.24728   0.26155   0.26497
 Alpha virt. eigenvalues --    0.27425   0.28864   0.29637   0.34153   0.37866
 Alpha virt. eigenvalues --    0.48607   0.50534   0.50932   0.53243   0.53519
 Alpha virt. eigenvalues --    0.54264   0.54403   0.56106   0.57440   0.60932
 Alpha virt. eigenvalues --    0.62442   0.63348   0.64193   0.67523   0.68474
 Alpha virt. eigenvalues --    0.69246   0.70886   0.71874   0.73790   0.74602
 Alpha virt. eigenvalues --    0.75418   0.78049   0.79839   0.80380   0.82353
 Alpha virt. eigenvalues --    0.83338   0.84707   0.86527   0.87287   0.87680
 Alpha virt. eigenvalues --    0.88358   0.89774   0.90596   0.91455   0.91737
 Alpha virt. eigenvalues --    0.91912   0.92697   0.93343   0.93477   0.94359
 Alpha virt. eigenvalues --    0.95005   0.95597   0.96261   0.98247   0.99949
 Alpha virt. eigenvalues --    1.02628   1.04464   1.08248   1.11008   1.15230
 Alpha virt. eigenvalues --    1.16177   1.18048   1.22659   1.28953   1.32675
 Alpha virt. eigenvalues --    1.39720   1.41797   1.43873   1.45567   1.48479
 Alpha virt. eigenvalues --    1.51686   1.54397   1.61535   1.64663   1.68342
 Alpha virt. eigenvalues --    1.70834   1.71369   1.73413   1.75948   1.77472
 Alpha virt. eigenvalues --    1.79325   1.82114   1.83093   1.85902   1.89201
 Alpha virt. eigenvalues --    1.90717   1.90896   1.94328   1.96016   1.98435
 Alpha virt. eigenvalues --    1.99000   2.00390   2.01899   2.03214   2.04383
 Alpha virt. eigenvalues --    2.05271   2.06039   2.08319   2.10741   2.13604
 Alpha virt. eigenvalues --    2.14406   2.17156   2.22216   2.23718   2.25238
 Alpha virt. eigenvalues --    2.27902   2.29070   2.34620   2.35845   2.41635
 Alpha virt. eigenvalues --    2.43129   2.45519   2.48197   2.49286   2.52310
 Alpha virt. eigenvalues --    2.54650   2.56162   2.62283   2.64777   2.65869
 Alpha virt. eigenvalues --    2.73594   2.75660   2.78463   2.81484   2.86710
 Alpha virt. eigenvalues --    2.99732   3.04619   4.03599   4.12690   4.20045
 Alpha virt. eigenvalues --    4.25324   4.28263   4.29752   4.35776   4.53890
 Alpha virt. eigenvalues --    4.55058   4.64004   4.67982
          Condensed to atoms (all electrons):
               1          2          3          4          5          6
     1  O    8.024462   0.564055  -0.091291   0.004652   0.000459  -0.007461
     2  C    0.564055   4.540581   0.292766  -0.026695   0.004082  -0.002627
     3  C   -0.091291   0.292766   5.275157   0.358961  -0.040943  -0.038011
     4  C    0.004652  -0.026695   0.358961   4.866149   0.360889   0.375475
     5  C    0.000459   0.004082  -0.040943   0.360889   5.135935  -0.055995
     6  C   -0.007461  -0.002627  -0.038011   0.375475  -0.055995   5.128627
     7  C   -0.000493  -0.028813   0.358555  -0.034332  -0.005961   0.003778
     8  C    0.000144  -0.011511  -0.035509   0.003493   0.000304  -0.000120
     9  C   -0.000387  -0.022778  -0.007556   0.000103  -0.000006  -0.000004
    10  C   -0.000042   0.003001  -0.000009   0.000004   0.000000  -0.000000
    11  C   -0.071880   0.340106  -0.120938   0.005728  -0.000116  -0.000300
    12  H    0.002058  -0.034825   0.342541  -0.040724  -0.003042  -0.006250
    13  H    0.010305  -0.006468  -0.050321   0.377521  -0.046253  -0.041047
    14  H    0.000002  -0.000058  -0.005641  -0.026367   0.368690   0.005109
    15  H    0.000002  -0.000060   0.004478  -0.030573   0.371453  -0.004637
    16  H   -0.000005  -0.000019  -0.005906  -0.031932   0.367381  -0.004529
    17  H    0.010135   0.004563  -0.007201  -0.027928   0.005157   0.369253
    18  H    0.000185  -0.000058  -0.007986  -0.036362  -0.005326   0.367445
    19  H    0.000108   0.000009   0.004470  -0.029364  -0.003941   0.369110
    20  H    0.000796  -0.004527  -0.043817  -0.002028  -0.001158   0.000001
    21  H   -0.000066   0.003422  -0.030779  -0.006825   0.003509   0.000045
    22  H   -0.000008  -0.001700  -0.004635   0.000076  -0.000025  -0.000001
    23  H    0.000000   0.000264   0.004171  -0.000116   0.000002   0.000002
    24  H    0.000836  -0.001793  -0.000225  -0.000012  -0.000001   0.000001
    25  H   -0.000000   0.000001  -0.000006  -0.000000   0.000000   0.000000
    26  H   -0.000000   0.000042  -0.000007  -0.000000   0.000000   0.000000
    27  H    0.000001  -0.000099   0.000013  -0.000000  -0.000000   0.000000
    28  H    0.001844  -0.029925   0.003107  -0.000136  -0.000003   0.000060
    29  H    0.005479  -0.022330   0.006469  -0.000148   0.000001   0.000003
               7          8          9         10         11         12
     1  O   -0.000493   0.000144  -0.000387  -0.000042  -0.071880   0.002058
     2  C   -0.028813  -0.011511  -0.022778   0.003001   0.340106  -0.034825
     3  C    0.358555  -0.035509  -0.007556  -0.000009  -0.120938   0.342541
     4  C   -0.034332   0.003493   0.000103   0.000004   0.005728  -0.040724
     5  C   -0.005961   0.000304  -0.000006   0.000000  -0.000116  -0.003042
     6  C    0.003778  -0.000120  -0.000004  -0.000000  -0.000300  -0.006250
     7  C    5.053312   0.359115  -0.035609   0.004209  -0.007311  -0.044154
     8  C    0.359115   5.051422   0.386570  -0.044309  -0.050907  -0.002527
     9  C   -0.035609   0.386570   4.885386   0.372703   0.358188  -0.001831
    10  C    0.004209  -0.044309   0.372703   5.106376  -0.044431  -0.000024
    11  C   -0.007311  -0.050907   0.358188  -0.044431   5.297607   0.001675
    12  H   -0.044154  -0.002527  -0.001831  -0.000024   0.001675   0.632509
    13  H   -0.003630  -0.000033  -0.000061   0.000000   0.000602   0.006808
    14  H    0.002236   0.000017  -0.000003   0.000000   0.000001  -0.000090
    15  H    0.000296  -0.000003   0.000000  -0.000000   0.000002  -0.000128
    16  H   -0.001403  -0.000065  -0.000001  -0.000000   0.000001   0.004033
    17  H    0.000115  -0.000001   0.000002   0.000000   0.000180  -0.000404
    18  H    0.000043  -0.000002   0.000000  -0.000000   0.000016   0.006457
    19  H   -0.000116   0.000001   0.000000  -0.000000   0.000005  -0.000013
    20  H    0.369151  -0.037424  -0.005789   0.000024   0.000058   0.006587
    21  H    0.369215  -0.030223   0.004266  -0.000159  -0.000260  -0.005920
    22  H   -0.040058   0.367734  -0.042568  -0.004766  -0.005333   0.005283
    23  H   -0.029641   0.362526  -0.032601  -0.003450   0.005436  -0.000003
    24  H   -0.003133  -0.048384   0.378688  -0.044607  -0.051814   0.000113
    25  H    0.000063  -0.006388  -0.033487   0.372522  -0.006076  -0.000010
    26  H   -0.000155   0.004729  -0.028032   0.369423  -0.003273   0.000001
    27  H    0.000028  -0.003936  -0.028530   0.368732   0.004695  -0.000000
    28  H   -0.000552  -0.005911  -0.035242  -0.006906   0.343245   0.001864
    29  H   -0.000117   0.004904  -0.025733  -0.004157   0.339129  -0.000137
              13         14         15         16         17         18
     1  O    0.010305   0.000002   0.000002  -0.000005   0.010135   0.000185
     2  C   -0.006468  -0.000058  -0.000060  -0.000019   0.004563  -0.000058
     3  C   -0.050321  -0.005641   0.004478  -0.005906  -0.007201  -0.007986
     4  C    0.377521  -0.026367  -0.030573  -0.031932  -0.027928  -0.036362
     5  C   -0.046253   0.368690   0.371453   0.367381   0.005157  -0.005326
     6  C   -0.041047   0.005109  -0.004637  -0.004529   0.369253   0.367445
     7  C   -0.003630   0.002236   0.000296  -0.001403   0.000115   0.000043
     8  C   -0.000033   0.000017  -0.000003  -0.000065  -0.000001  -0.000002
     9  C   -0.000061  -0.000003   0.000000  -0.000001   0.000002   0.000000
    10  C    0.000000   0.000000  -0.000000  -0.000000   0.000000  -0.000000
    11  C    0.000602   0.000001   0.000002   0.000001   0.000180   0.000016
    12  H    0.006808  -0.000090  -0.000128   0.004033  -0.000404   0.006457
    13  H    0.609176  -0.003468  -0.002494   0.005482  -0.003248   0.005774
    14  H   -0.003468   0.577005  -0.030181  -0.033093  -0.000180  -0.000025
    15  H   -0.002494  -0.030181   0.575754  -0.031832   0.000041  -0.000187
    16  H    0.005482  -0.033093  -0.031832   0.591135  -0.000093   0.004659
    17  H   -0.003248  -0.000180   0.000041  -0.000093   0.537872  -0.029955
    18  H    0.005774  -0.000025  -0.000187   0.004659  -0.029955   0.599448
    19  H   -0.003358  -0.000018   0.004673  -0.000209  -0.026491  -0.032260
    20  H    0.004151   0.000900  -0.000052   0.000184  -0.000005   0.000009
    21  H   -0.000252   0.001176  -0.000052   0.001343  -0.000008  -0.000006
    22  H    0.000005   0.000007  -0.000000   0.000009  -0.000000  -0.000001
    23  H    0.000002   0.000005  -0.000000   0.000001   0.000000   0.000000
    24  H   -0.000010  -0.000000  -0.000000   0.000000  -0.000001  -0.000000
    25  H   -0.000000  -0.000000  -0.000000  -0.000000   0.000000  -0.000000
    26  H    0.000000   0.000000   0.000000   0.000000   0.000000   0.000000
    27  H   -0.000000   0.000000  -0.000000   0.000000  -0.000000  -0.000000
    28  H   -0.000010  -0.000000  -0.000000  -0.000000  -0.000058  -0.000014
    29  H   -0.000007   0.000000  -0.000000   0.000000   0.000003  -0.000000
              19         20         21         22         23         24
     1  O    0.000108   0.000796  -0.000066  -0.000008   0.000000   0.000836
     2  C    0.000009  -0.004527   0.003422  -0.001700   0.000264  -0.001793
     3  C    0.004470  -0.043817  -0.030779  -0.004635   0.004171  -0.000225
     4  C   -0.029364  -0.002028  -0.006825   0.000076  -0.000116  -0.000012
     5  C   -0.003941  -0.001158   0.003509  -0.000025   0.000002  -0.000001
     6  C    0.369110   0.000001   0.000045  -0.000001   0.000002   0.000001
     7  C   -0.000116   0.369151   0.369215  -0.040058  -0.029641  -0.003133
     8  C    0.000001  -0.037424  -0.030223   0.367734   0.362526  -0.048384
     9  C    0.000000  -0.005789   0.004266  -0.042568  -0.032601   0.378688
    10  C   -0.000000   0.000024  -0.000159  -0.004766  -0.003450  -0.044607
    11  C    0.000005   0.000058  -0.000260  -0.005333   0.005436  -0.051814
    12  H   -0.000013   0.006587  -0.005920   0.005283  -0.000003   0.000113
    13  H   -0.003358   0.004151  -0.000252   0.000005   0.000002  -0.000010
    14  H   -0.000018   0.000900   0.001176   0.000007   0.000005  -0.000000
    15  H    0.004673  -0.000052  -0.000052  -0.000000  -0.000000  -0.000000
    16  H   -0.000209   0.000184   0.001343   0.000009   0.000001   0.000000
    17  H   -0.026491  -0.000005  -0.000008  -0.000000   0.000000  -0.000001
    18  H   -0.032260   0.000009  -0.000006  -0.000001   0.000000  -0.000000
    19  H    0.578359   0.000003  -0.000004   0.000000  -0.000000  -0.000000
    20  H    0.000003   0.602002  -0.036968   0.005755  -0.003939   0.004540
    21  H   -0.000004  -0.036968   0.586009  -0.004343  -0.002205  -0.000017
    22  H    0.000000   0.005755  -0.004343   0.616016  -0.036663   0.006498
    23  H   -0.000000  -0.003939  -0.002205  -0.036663   0.600590  -0.004951
    24  H   -0.000000   0.004540  -0.000017   0.006498  -0.004951   0.627020
    25  H   -0.000000   0.000005   0.000001   0.005281  -0.000284   0.005576
    26  H   -0.000000   0.000002   0.000002  -0.000037  -0.000069  -0.003209
    27  H   -0.000000  -0.000007   0.000003  -0.000219   0.004211  -0.002957
    28  H   -0.000000   0.000101  -0.000011   0.005004  -0.000045   0.006551
    29  H   -0.000000  -0.000041   0.000018  -0.000055  -0.000152  -0.003879
              25         26         27         28         29
     1  O   -0.000000  -0.000000   0.000001   0.001844   0.005479
     2  C    0.000001   0.000042  -0.000099  -0.029925  -0.022330
     3  C   -0.000006  -0.000007   0.000013   0.003107   0.006469
     4  C   -0.000000  -0.000000  -0.000000  -0.000136  -0.000148
     5  C    0.000000   0.000000  -0.000000  -0.000003   0.000001
     6  C    0.000000   0.000000   0.000000   0.000060   0.000003
     7  C    0.000063  -0.000155   0.000028  -0.000552  -0.000117
     8  C   -0.006388   0.004729  -0.003936  -0.005911   0.004904
     9  C   -0.033487  -0.028032  -0.028530  -0.035242  -0.025733
    10  C    0.372522   0.369423   0.368732  -0.006906  -0.004157
    11  C   -0.006076  -0.003273   0.004695   0.343245   0.339129
    12  H   -0.000010   0.000001  -0.000000   0.001864  -0.000137
    13  H   -0.000000   0.000000  -0.000000  -0.000010  -0.000007
    14  H   -0.000000   0.000000   0.000000  -0.000000   0.000000
    15  H   -0.000000   0.000000  -0.000000  -0.000000  -0.000000
    16  H   -0.000000   0.000000   0.000000  -0.000000   0.000000
    17  H    0.000000   0.000000  -0.000000  -0.000058   0.000003
    18  H   -0.000000   0.000000  -0.000000  -0.000014  -0.000000
    19  H   -0.000000  -0.000000  -0.000000  -0.000000  -0.000000
    20  H    0.000005   0.000002  -0.000007   0.000101  -0.000041
    21  H    0.000001   0.000002   0.000003  -0.000011   0.000018
    22  H    0.005281  -0.000037  -0.000219   0.005004  -0.000055
    23  H   -0.000284  -0.000069   0.004211  -0.000045  -0.000152
    24  H    0.005576  -0.003209  -0.002957   0.006551  -0.003879
    25  H    0.578220  -0.031081  -0.030669   0.005293  -0.000232
    26  H   -0.031081   0.570028  -0.029649  -0.000275   0.003680
    27  H   -0.030669  -0.029649   0.573152   0.000032  -0.000006
    28  H    0.005293  -0.000275   0.000032   0.596075  -0.028496
    29  H   -0.000232   0.003680  -0.000006  -0.028496   0.567607
 Mulliken charges:
               1
     1  O   -0.453890
     2  C    0.441395
     3  C   -0.159907
     4  C   -0.059509
     5  C   -0.455091
     6  C   -0.457926
     7  C   -0.284636
     8  C   -0.263707
     9  C   -0.085687
    10  C   -0.444135
    11  C   -0.334034
    12  H    0.130154
    13  H    0.140835
    14  H    0.143976
    15  H    0.143502
    16  H    0.134860
    17  H    0.168254
    18  H    0.128149
    19  H    0.139037
    20  H    0.141486
    21  H    0.149088
    22  H    0.128744
    23  H    0.136910
    24  H    0.135172
    25  H    0.141270
    26  H    0.147879
    27  H    0.145206
    28  H    0.144408
    29  H    0.158197
 Sum of Mulliken charges =  -0.00000
 Mulliken charges with hydrogens summed into heavy atoms:
               1
     1  O   -0.453890
     2  C    0.441395
     3  C   -0.029753
     4  C    0.081326
     5  C   -0.032753
     6  C   -0.022487
     7  C    0.005938
     8  C    0.001948
     9  C    0.049485
    10  C   -0.009780
    11  C   -0.031429
 APT charges:
               1
     1  O   -0.641266
     2  C    0.713538
     3  C   -0.068553
     4  C    0.132132
     5  C    0.060905
     6  C    0.050901
     7  C    0.110983
     8  C    0.094975
     9  C    0.150486
    10  C    0.083217
    11  C   -0.093522
    12  H   -0.036577
    13  H   -0.042530
    14  H   -0.024654
    15  H   -0.033614
    16  H   -0.027400
    17  H    0.012904
    18  H   -0.031585
    19  H   -0.038422
    20  H   -0.037875
    21  H   -0.040739
    22  H   -0.045283
    23  H   -0.056336
    24  H   -0.063622
    25  H   -0.025326
    26  H   -0.028495
    27  H   -0.034433
    28  H   -0.010141
    29  H   -0.029670
 Sum of APT charges =   0.00000
 APT charges with hydrogens summed into heavy atoms:
               1
     1  O   -0.641266
     2  C    0.713538
     3  C   -0.105130
     4  C    0.089603
     5  C   -0.024763
     6  C   -0.006203
     7  C    0.032369
     8  C   -0.006644
     9  C    0.086864
    10  C   -0.005037
    11  C   -0.133333
 Electronic spatial extent (au):  <R**2>=           2193.6069
 Charge=             -0.0000 electrons
 Dipole moment (field-independent basis, Debye):
    X=             -1.3076    Y=             -2.1858    Z=              1.1301  Tot=              2.7866
 Quadrupole moment (field-independent basis, Debye-Ang):
   XX=            -68.0283   YY=            -74.7161   ZZ=            -69.6593
   XY=             -1.6624   XZ=              0.4966   YZ=              3.1001
 Traceless Quadrupole moment (field-independent basis, Debye-Ang):
   XX=              2.7729   YY=             -3.9148   ZZ=              1.1419
   XY=             -1.6624   XZ=              0.4966   YZ=              3.1001
 Octapole moment (field-independent basis, Debye-Ang**2):
  XXX=             -0.7314  YYY=             -4.6347  ZZZ=             -1.9206  XYY=             -6.0599
  XXY=              4.1997  XXZ=             -4.8871  XZZ=             -1.4135  YZZ=             -0.6221
  YYZ=              4.5714  XYZ=              0.5138
 Hexadecapole moment (field-independent basis, Debye-Ang**3):
 XXXX=          -2119.8343 YYYY=           -678.3248 ZZZZ=           -194.7586 XXXY=              4.5922
 XXXZ=             -4.1038 YYYX=             -1.5020 YYYZ=              9.2114 ZZZX=             -3.0058
 ZZZY=             -5.1425 XXYY=           -463.7749 XXZZ=           -389.8202 YYZZ=           -148.1544
 XXYZ=             -2.4203 YYXZ=              4.3457 ZZXY=             -1.2090
 N-N= 6.581913834912D+02 E-N=-2.399250422182D+03  KE= 4.625922781009D+02
  Exact polarizability: 123.899   1.466 102.300  -1.624  -1.232  87.471
 Approx polarizability: 145.172   5.715 149.106  -4.435  -9.092 142.313
 Calling FoFJK, ICntrl=    100127 FMM=F ISym2X=0 I1Cent= 0 IOpClX= 0 NMat=1 NMatS=1 NMatT=0.
 Full mass-weighted force constant matrix:
 Low frequencies ---   -3.3684   -0.0009   -0.0006    0.0002    2.2762    7.7004
 Low frequencies ---   65.5567   75.8567  109.5022
 Diagonal vibrational polarizability:
        7.7755809       4.3879922       6.5723997
 Harmonic frequencies (cm**-1), IR intensities (KM/Mole), Raman scattering
 activities (A**4/AMU), depolarization ratios for plane and unpolarized
 incident light, reduced masses (AMU), force constants (mDyne/A),
 and normal coordinates:
                      1                      2                      3
                      A                      A                      A
 Frequencies --     65.5562                75.8565               109.5017
 Red. masses --      2.8779                 2.8583                 3.8651
 Frc consts  --      0.0073                 0.0097                 0.0273
 IR Inten    --      0.1678                 0.2483                 2.0530
  Atom  AN      X      Y      Z        X      Y      Z        X      Y      Z
     1   8    -0.03  -0.05  -0.10     0.02  -0.03  -0.13     0.13   0.19   0.21
     2   6     0.01  -0.02  -0.03     0.00   0.01  -0.10     0.01   0.05  -0.05
     3   6    -0.00  -0.03  -0.06    -0.01   0.02  -0.03    -0.02   0.02  -0.08
     4   6     0.02  -0.03   0.03     0.01   0.04   0.05    -0.00  -0.03  -0.03
     5   6     0.03  -0.01   0.20    -0.00   0.03  -0.13    -0.06  -0.06   0.10
     6   6    -0.06   0.05   0.01    -0.05  -0.08   0.26     0.02  -0.02  -0.06
     7   6    -0.01   0.04  -0.19     0.00   0.01  -0.02    -0.01   0.01  -0.06
     8   6    -0.00   0.00  -0.15     0.02   0.00   0.04     0.02  -0.02   0.03
     9   6    -0.01   0.04   0.03    -0.01  -0.02   0.02    -0.05  -0.08  -0.03
    10   6     0.03   0.01   0.17     0.02  -0.01   0.14     0.01  -0.09   0.14
    11   6     0.04  -0.00   0.07    -0.00   0.04  -0.11    -0.06   0.02  -0.23
    12   1    -0.06  -0.11  -0.07    -0.07   0.04  -0.03    -0.04   0.03  -0.08
    13   1     0.09  -0.10   0.01     0.06   0.21   0.11     0.06  -0.10  -0.05
    14   1     0.10  -0.07   0.22     0.02   0.14  -0.26    -0.02  -0.08   0.10
    15   1     0.05  -0.02   0.28     0.01   0.06  -0.07    -0.03  -0.11   0.20
    16   1    -0.07   0.07   0.22    -0.04  -0.13  -0.20    -0.17  -0.00   0.12
    17   1    -0.05   0.04  -0.12    -0.07  -0.08   0.41     0.09   0.01  -0.16
    18   1    -0.15   0.14   0.04    -0.08  -0.26   0.21    -0.06   0.06  -0.04
    19   1    -0.03   0.01   0.09    -0.04   0.00   0.31     0.04  -0.11  -0.02
    20   1    -0.03   0.17  -0.18    -0.03   0.00  -0.02    -0.07   0.02  -0.06
    21   1    -0.01   0.00  -0.30     0.02   0.01  -0.03     0.02   0.02  -0.10
    22   1     0.04  -0.13  -0.17     0.07   0.04   0.04     0.10   0.06   0.04
    23   1    -0.02   0.06  -0.24     0.01  -0.02   0.09     0.02  -0.07   0.12
    24   1    -0.11   0.14   0.04    -0.10  -0.09   0.01    -0.17  -0.20  -0.04
    25   1     0.14  -0.09   0.17     0.12   0.05   0.15     0.14   0.03   0.15
    26   1     0.01   0.04   0.31    -0.01  -0.04   0.12    -0.07  -0.15   0.10
    27   1    -0.02   0.05   0.15     0.00  -0.05   0.24     0.00  -0.17   0.30
    28   1     0.10  -0.07   0.06     0.01   0.15  -0.11    -0.11   0.21  -0.22
    29   1     0.03   0.02   0.15    -0.01   0.00  -0.20    -0.05  -0.03  -0.39
                      4                      5                      6
                      A                      A                      A
 Frequencies --    178.0572               208.6424               231.0985
 Red. masses --      2.9917                 2.0208                 1.0672
 Frc consts  --      0.0559                 0.0518                 0.0336
 IR Inten    --      2.0263                 0.6722                 0.0145
  Atom  AN      X      Y      Z        X      Y      Z        X      Y      Z
     1   8     0.12  -0.06   0.10    -0.04   0.06   0.00     0.00  -0.00   0.01
     2   6     0.03  -0.08   0.01     0.00   0.01  -0.03     0.00  -0.01   0.00
     3   6    -0.02  -0.12  -0.02     0.01  -0.01  -0.13    -0.00  -0.01  -0.01
     4   6    -0.02  -0.00  -0.02     0.02  -0.01  -0.06    -0.00  -0.00  -0.01
     5   6     0.17   0.11  -0.04    -0.00  -0.02   0.02     0.00   0.00   0.04
     6   6    -0.16   0.09  -0.00    -0.09  -0.01   0.04    -0.01   0.01  -0.02
     7   6    -0.06  -0.10  -0.01    -0.02  -0.01  -0.08    -0.01   0.00  -0.03
     8   6    -0.07  -0.03   0.01     0.05  -0.00   0.15     0.01  -0.01   0.02
     9   6    -0.02  -0.00  -0.01     0.05  -0.02   0.07     0.01  -0.01   0.01
    10   6    -0.01   0.14   0.03     0.00   0.03  -0.09    -0.00   0.03  -0.01
    11   6     0.02  -0.02  -0.06     0.04  -0.02   0.08     0.01  -0.01   0.01
    12   1    -0.01  -0.13  -0.02     0.02  -0.04  -0.13    -0.00  -0.03  -0.02
    13   1    -0.06   0.01  -0.01     0.11  -0.01  -0.06    -0.00  -0.01  -0.01
    14   1     0.11  -0.02   0.12     0.11   0.01  -0.08     0.16   0.05  -0.11
    15   1     0.10   0.23  -0.29     0.04  -0.03   0.22     0.05   0.03   0.28
    16   1     0.45   0.20   0.02    -0.19  -0.05  -0.01    -0.22  -0.07  -0.01
    17   1    -0.24   0.05  -0.05     0.02   0.02  -0.17    -0.28  -0.09   0.36
    18   1    -0.19   0.11   0.00    -0.41   0.08   0.07     0.42  -0.23  -0.09
    19   1    -0.15   0.18   0.06     0.01  -0.14   0.31    -0.14   0.36  -0.34
    20   1    -0.08  -0.11  -0.02    -0.19   0.01  -0.08    -0.05   0.04  -0.03
    21   1    -0.09  -0.11  -0.02     0.03  -0.01  -0.16     0.01  -0.01  -0.09
    22   1    -0.05   0.00   0.02     0.20   0.12   0.17     0.04   0.01   0.02
    23   1    -0.11  -0.02   0.04    -0.02  -0.05   0.30    -0.01  -0.01   0.05
    24   1    -0.04  -0.04  -0.01     0.15  -0.07   0.07     0.02  -0.02   0.01
    25   1     0.01   0.23   0.04    -0.14   0.16  -0.08    -0.02   0.18   0.00
    26   1     0.06   0.16  -0.02     0.04   0.00  -0.26    -0.01  -0.02  -0.15
    27   1    -0.10   0.15   0.11     0.05  -0.01  -0.06     0.02  -0.04   0.09
    28   1    -0.01   0.04  -0.06     0.10  -0.05   0.08     0.01  -0.01   0.01
    29   1     0.08  -0.01  -0.11     0.00  -0.02   0.13     0.01  -0.01   0.01
                      7                      8                      9
                      A                      A                      A
 Frequencies --    239.5623               254.9989               272.1638
 Red. masses --      1.0830                 1.6645                 2.1615
 Frc consts  --      0.0366                 0.0638                 0.0943
 IR Inten    --      0.0510                 0.1244                 3.3701
  Atom  AN      X      Y      Z        X      Y      Z        X      Y      Z
     1   8    -0.02  -0.02  -0.01     0.00  -0.03  -0.02    -0.12   0.14  -0.00
     2   6    -0.01  -0.00   0.02    -0.00   0.00   0.02    -0.03   0.04  -0.08
     3   6     0.00   0.00   0.03     0.01  -0.01   0.00     0.01   0.03  -0.09
     4   6     0.01  -0.00   0.02     0.02  -0.02   0.02     0.04  -0.02  -0.03
     5   6     0.01  -0.00  -0.01     0.07   0.00   0.02     0.06  -0.01   0.06
     6   6     0.04  -0.01   0.00     0.06  -0.04   0.01     0.03  -0.08   0.05
     7   6     0.00   0.03  -0.02    -0.05   0.08  -0.10     0.01  -0.05   0.05
     8   6    -0.00   0.00  -0.03     0.01   0.05   0.08    -0.02  -0.04  -0.02
     9   6    -0.01   0.00  -0.00    -0.03   0.01   0.04    -0.01  -0.03  -0.01
    10   6    -0.01   0.01   0.00    -0.06  -0.07  -0.04     0.00   0.08   0.02
    11   6    -0.01  -0.01   0.01    -0.03   0.04  -0.01     0.01  -0.07   0.02
    12   1    -0.00  -0.02   0.02    -0.02  -0.08  -0.00     0.00   0.13  -0.08
    13   1    -0.01   0.00   0.02     0.02  -0.03   0.01     0.11  -0.02  -0.03
    14   1    -0.06  -0.03   0.07    -0.09  -0.14   0.27    -0.12  -0.19   0.35
    15   1    -0.02  -0.01  -0.13    -0.00   0.01  -0.31    -0.01  -0.04  -0.26
    16   1     0.13   0.04   0.02     0.39   0.18   0.12     0.34   0.24   0.18
    17   1     0.10   0.02  -0.07     0.01  -0.05   0.14    -0.05  -0.10   0.26
    18   1    -0.03   0.04   0.02     0.18  -0.12  -0.01     0.15  -0.26  -0.00
    19   1     0.06  -0.09   0.04     0.02   0.02  -0.09    -0.00   0.05  -0.03
    20   1     0.00   0.08  -0.02    -0.19   0.25  -0.10     0.07  -0.22   0.04
    21   1    -0.00   0.01  -0.06    -0.03   0.03  -0.30     0.01  -0.00   0.21
    22   1    -0.01  -0.04  -0.04     0.15   0.15   0.10    -0.07  -0.07  -0.03
    23   1     0.01   0.01  -0.07    -0.02   0.00   0.22     0.01  -0.04  -0.07
    24   1    -0.02   0.01  -0.00    -0.01  -0.03   0.03    -0.02  -0.01  -0.01
    25   1     0.00   0.55   0.05    -0.14  -0.22  -0.06     0.03   0.10   0.02
    26   1    -0.17  -0.22  -0.47    -0.07  -0.05   0.04     0.09   0.13   0.02
    27   1     0.13  -0.31   0.43    -0.01  -0.03  -0.20    -0.09   0.13   0.05
    28   1    -0.02  -0.03   0.01    -0.07   0.12  -0.01     0.10  -0.17   0.01
    29   1    -0.00   0.00   0.03    -0.00   0.03  -0.09    -0.05  -0.05   0.15
                     10                     11                     12
                      A                      A                      A
 Frequencies --    287.9249               319.5363               378.1494
 Red. masses --      2.2591                 2.2332                 3.3051
 Frc consts  --      0.1103                 0.1343                 0.2785
 IR Inten    --      0.5182                 0.2521                 1.1753
  Atom  AN      X      Y      Z        X      Y      Z        X      Y      Z
     1   8    -0.07  -0.02   0.01    -0.00   0.03   0.00     0.18  -0.05   0.00
     2   6    -0.03  -0.04   0.02     0.00  -0.00  -0.03     0.04  -0.04  -0.09
     3   6     0.04   0.01   0.03     0.03  -0.02  -0.05    -0.00   0.00  -0.11
     4   6     0.07   0.03   0.04     0.07  -0.04  -0.04     0.02   0.16  -0.04
     5   6     0.07   0.02  -0.01     0.18  -0.00   0.01    -0.14   0.13   0.04
     6   6     0.15   0.01   0.00     0.03  -0.03   0.00     0.14   0.05   0.04
     7   6    -0.01   0.04  -0.04    -0.04  -0.04   0.07    -0.05  -0.07  -0.01
     8   6    -0.02  -0.05   0.02    -0.09   0.09  -0.02    -0.08  -0.05  -0.00
     9   6    -0.08  -0.08  -0.01    -0.09   0.10  -0.01    -0.06  -0.01   0.08
    10   6    -0.08   0.15   0.02    -0.10  -0.10   0.01    -0.12  -0.03  -0.01
    11   6    -0.05  -0.09  -0.06    -0.01   0.04   0.02     0.06  -0.05   0.06
    12   1     0.03  -0.03   0.03     0.06   0.05  -0.04     0.00   0.03  -0.10
    13   1     0.06   0.04   0.04     0.11  -0.04  -0.04     0.08   0.20  -0.02
    14   1     0.23   0.13  -0.21     0.44   0.04  -0.20    -0.28   0.10   0.15
    15   1     0.12   0.07   0.25     0.23   0.14   0.32    -0.13  -0.08  -0.00
    16   1    -0.14  -0.14  -0.09    -0.06  -0.13  -0.06    -0.19   0.26   0.10
    17   1     0.29   0.07  -0.12     0.04  -0.03  -0.03     0.28   0.13   0.15
    18   1     0.06   0.12   0.03    -0.05  -0.03   0.01     0.15  -0.05   0.02
    19   1     0.18  -0.18   0.04     0.05  -0.05   0.08     0.14  -0.08   0.01
    20   1    -0.07   0.16  -0.03     0.03  -0.20   0.07    -0.07  -0.17  -0.02
    21   1     0.02   0.02  -0.17    -0.11  -0.03   0.23    -0.07  -0.05   0.06
    22   1     0.02  -0.03   0.02    -0.16   0.10  -0.02    -0.09  -0.15  -0.01
    23   1     0.04  -0.10   0.04    -0.09   0.10  -0.04    -0.08  -0.01  -0.08
    24   1    -0.10  -0.13  -0.02    -0.12   0.14  -0.00    -0.06   0.02   0.08
    25   1    -0.09   0.11   0.01    -0.08  -0.12   0.01    -0.25  -0.04  -0.02
    26   1     0.13   0.28   0.07    -0.28  -0.21   0.01    -0.12  -0.05  -0.08
    27   1    -0.29   0.30  -0.02     0.07  -0.21   0.01    -0.04  -0.05  -0.08
    28   1    -0.10  -0.05  -0.06     0.03  -0.01   0.02     0.25  -0.13   0.06
    29   1    -0.04  -0.10  -0.11     0.04   0.09   0.09     0.02  -0.02   0.22
                     13                     14                     15
                      A                      A                      A
 Frequencies --    402.4568               412.6553               451.7761
 Red. masses --      2.7071                 2.2657                 2.0811
 Frc consts  --      0.2583                 0.2273                 0.2503
 IR Inten    --      0.2593                 0.6345                 1.0398
  Atom  AN      X      Y      Z        X      Y      Z        X      Y      Z
     1   8     0.09   0.09  -0.06    -0.01  -0.00   0.02    -0.04  -0.05   0.03
     2   6     0.07   0.09  -0.07     0.05  -0.05  -0.01    -0.01  -0.03   0.06
     3   6    -0.01   0.07   0.07     0.11   0.01  -0.00     0.08  -0.01  -0.03
     4   6    -0.00  -0.08   0.07     0.12  -0.01   0.02     0.08   0.02  -0.09
     5   6     0.06  -0.08  -0.04    -0.06  -0.11  -0.04    -0.03  -0.04   0.00
     6   6    -0.07   0.03  -0.02    -0.05   0.12   0.03    -0.04   0.01   0.01
     7   6    -0.03   0.10   0.04     0.01   0.06   0.02     0.11  -0.02   0.01
     8   6    -0.05  -0.13  -0.02    -0.00   0.09   0.02     0.07  -0.01  -0.05
     9   6    -0.02  -0.07   0.13    -0.08   0.01  -0.09    -0.03   0.01   0.12
    10   6    -0.10  -0.01  -0.02    -0.06  -0.01   0.02    -0.10   0.03   0.00
    11   6     0.06  -0.02   0.01     0.03  -0.11  -0.01    -0.06   0.10  -0.02
    12   1    -0.07   0.16   0.07     0.12   0.02  -0.00     0.18  -0.05  -0.03
    13   1    -0.03  -0.10   0.06     0.15  -0.01   0.01     0.11   0.01  -0.09
    14   1     0.07  -0.02  -0.12    -0.31  -0.01   0.00    -0.12  -0.07   0.09
    15   1     0.04   0.01  -0.08    -0.06  -0.34  -0.18    -0.01  -0.20  -0.02
    16   1     0.13  -0.21  -0.09    -0.03  -0.12  -0.04    -0.08   0.08   0.05
    17   1    -0.19  -0.04  -0.11    -0.28   0.01  -0.02    -0.13  -0.03   0.06
    18   1    -0.03   0.13   0.01    -0.02   0.17   0.04    -0.12  -0.08  -0.01
    19   1    -0.09   0.13  -0.04    -0.06   0.36   0.06    -0.01   0.14   0.13
    20   1    -0.05   0.24   0.04     0.01   0.05   0.02     0.19  -0.11   0.00
    21   1     0.07   0.11  -0.10    -0.06   0.02   0.02     0.06  -0.01   0.11
    22   1    -0.14  -0.43  -0.07     0.03   0.28   0.05     0.05  -0.23  -0.08
    23   1     0.06  -0.03  -0.32     0.06  -0.03   0.18     0.10   0.06  -0.22
    24   1    -0.01  -0.07   0.13    -0.12   0.00  -0.09    -0.05   0.03   0.12
    25   1    -0.30  -0.02  -0.03     0.04  -0.02   0.02    -0.28   0.05  -0.00
    26   1    -0.02   0.00  -0.12    -0.10  -0.02   0.07    -0.02   0.05  -0.10
    27   1    -0.05   0.01  -0.13    -0.09  -0.02   0.07    -0.07   0.05  -0.08
    28   1     0.21   0.04   0.02     0.07  -0.32  -0.02    -0.20   0.44  -0.01
    29   1    -0.05  -0.07   0.03     0.08  -0.02   0.19     0.04   0.03  -0.37
                     16                     17                     18
                      A                      A                      A
 Frequencies --    453.4474               525.4738               610.2829
 Red. masses --      2.6669                 2.4564                 3.7608
 Frc consts  --      0.3231                 0.3996                 0.8253
 IR Inten    --      0.4652                 3.1366                 8.3390
  Atom  AN      X      Y      Z        X      Y      Z        X      Y      Z
     1   8    -0.07   0.06   0.01     0.08  -0.01   0.01    -0.17   0.08   0.05
     2   6    -0.04  -0.01  -0.06    -0.06   0.01  -0.08     0.10  -0.17  -0.10
     3   6    -0.05  -0.08  -0.06    -0.06   0.01  -0.00     0.06  -0.09   0.10
     4   6     0.05  -0.02   0.18    -0.09  -0.04   0.08    -0.10  -0.00   0.05
     5   6     0.00  -0.08  -0.04     0.01   0.00  -0.00    -0.07   0.10   0.01
     6   6     0.10   0.14   0.03    -0.03  -0.04  -0.03    -0.03  -0.06  -0.03
     7   6    -0.02  -0.16  -0.07     0.17  -0.03  -0.05     0.04   0.01   0.01
     8   6    -0.01  -0.02  -0.00     0.17   0.07  -0.03     0.03   0.08  -0.01
     9   6     0.04   0.05   0.06    -0.07   0.00   0.01    -0.00   0.07   0.08
    10   6     0.03  -0.00  -0.01    -0.12   0.03   0.02    -0.06  -0.01   0.01
    11   6    -0.00   0.08   0.00    -0.05  -0.01   0.04     0.24  -0.07  -0.13
    12   1    -0.24  -0.08  -0.07    -0.20   0.04  -0.01    -0.02   0.01   0.11
    13   1     0.09  -0.00   0.19    -0.11  -0.06   0.07    -0.23   0.02   0.05
    14   1    -0.16   0.10  -0.13     0.10   0.00  -0.05    -0.01   0.08  -0.00
    15   1    -0.02  -0.12  -0.18    -0.02   0.17  -0.03    -0.07   0.17   0.03
    16   1     0.11  -0.29  -0.12     0.11  -0.09  -0.03    -0.06   0.09   0.01
    17   1     0.03   0.10  -0.12     0.02  -0.02  -0.07     0.07  -0.01  -0.02
    18   1     0.29   0.37   0.09     0.04   0.03  -0.01     0.00  -0.05  -0.02
    19   1     0.04   0.14  -0.17    -0.05  -0.12  -0.12    -0.04  -0.18  -0.09
    20   1    -0.02  -0.26  -0.08     0.34  -0.18  -0.05     0.08   0.15   0.01
    21   1    -0.06  -0.14   0.03     0.13   0.02   0.18    -0.05  -0.07  -0.10
    22   1     0.05  -0.04  -0.00     0.35   0.24  -0.00     0.05   0.02  -0.02
    23   1    -0.15   0.05   0.02     0.15  -0.05   0.21     0.02   0.10  -0.04
    24   1     0.06   0.05   0.06    -0.13   0.05   0.02    -0.09   0.05   0.07
    25   1    -0.05  -0.01  -0.01    -0.19   0.07   0.02    -0.23  -0.07  -0.01
    26   1     0.00  -0.03  -0.05    -0.03   0.07  -0.04    -0.13  -0.07  -0.06
    27   1     0.09  -0.02  -0.05    -0.17   0.07   0.01     0.12  -0.06  -0.13
    28   1     0.00   0.23   0.01     0.12  -0.20   0.04     0.34   0.11  -0.11
    29   1     0.01   0.05  -0.12    -0.12   0.04   0.28     0.46  -0.00  -0.22
                     19                     20                     21
                      A                      A                      A
 Frequencies --    676.7334               757.2801               826.2862
 Red. masses --      4.2592                 2.1501                 2.1067
 Frc consts  --      1.1492                 0.7265                 0.8474
 IR Inten    --      1.8233                 4.0641                 1.0415
  Atom  AN      X      Y      Z        X      Y      Z        X      Y      Z
     1   8    -0.02   0.11  -0.14     0.01   0.06  -0.01     0.02   0.03  -0.02
     2   6     0.22   0.22   0.23    -0.07   0.03  -0.10    -0.02   0.04  -0.02
     3   6     0.06  -0.07   0.08     0.04  -0.12   0.15    -0.00  -0.03   0.12
     4   6    -0.02  -0.00   0.01     0.04   0.02  -0.05     0.02   0.01  -0.05
     5   6    -0.03   0.05   0.00     0.00   0.00  -0.01     0.03  -0.02  -0.02
     6   6    -0.02  -0.01  -0.01     0.01   0.01  -0.00     0.02   0.03   0.00
     7   6    -0.01  -0.16  -0.09     0.06  -0.12   0.03    -0.07  -0.01  -0.04
     8   6    -0.03  -0.09  -0.03     0.03  -0.04   0.03    -0.03   0.12  -0.09
     9   6    -0.05  -0.06  -0.09    -0.01   0.05  -0.03     0.02  -0.05   0.13
    10   6    -0.13  -0.01   0.03    -0.02   0.01  -0.00     0.10  -0.01   0.01
    11   6     0.08   0.03   0.02    -0.07   0.10  -0.02    -0.06  -0.10  -0.04
    12   1     0.10  -0.35   0.05     0.13   0.00   0.16     0.00  -0.09   0.11
    13   1    -0.11   0.02   0.01    -0.12   0.03  -0.05    -0.15   0.03  -0.05
    14   1    -0.05   0.05   0.01    -0.05  -0.03   0.06     0.00  -0.07   0.05
    15   1    -0.03   0.02   0.02     0.04  -0.16   0.05     0.07  -0.15   0.08
    16   1    -0.07   0.07   0.01    -0.12   0.12   0.03    -0.10   0.09   0.02
    17   1     0.02   0.00   0.01    -0.02   0.00   0.05    -0.00   0.02   0.08
    18   1    -0.01  -0.02  -0.01    -0.09  -0.08  -0.03    -0.09  -0.08  -0.03
    19   1    -0.02  -0.04  -0.02     0.05   0.07   0.12     0.06   0.08   0.13
    20   1     0.12  -0.29  -0.08    -0.11   0.37   0.04     0.22  -0.12  -0.04
    21   1    -0.02  -0.11   0.11     0.04  -0.29  -0.49    -0.29  -0.06   0.19
    22   1     0.17   0.23   0.03    -0.08  -0.10   0.02     0.19   0.21  -0.06
    23   1    -0.11  -0.23   0.34    -0.03   0.03  -0.05    -0.18   0.10   0.12
    24   1    -0.10  -0.04  -0.08    -0.01  -0.00  -0.04    -0.14   0.01   0.13
    25   1    -0.06   0.01   0.03     0.05  -0.01   0.00    -0.26   0.04   0.00
    26   1    -0.14  -0.01   0.05    -0.07  -0.00   0.05     0.29   0.02  -0.22
    27   1    -0.18  -0.01   0.08    -0.02  -0.00   0.02     0.15   0.05  -0.18
    28   1    -0.22   0.04   0.01     0.16  -0.20  -0.02     0.06  -0.04  -0.03
    29   1     0.09   0.00  -0.09    -0.18   0.16   0.32    -0.28  -0.21  -0.03
                     22                     23                     24
                      A                      A                      A
 Frequencies --    849.2200               887.2640               913.3599
 Red. masses --      2.2496                 1.7922                 2.0580
 Frc consts  --      0.9559                 0.8313                 1.0115
 IR Inten    --      1.1899                 1.6287                 1.7574
  Atom  AN      X      Y      Z        X      Y      Z        X      Y      Z
     1   8     0.02   0.03  -0.04     0.02   0.02   0.01    -0.01  -0.05   0.02
     2   6     0.04   0.04   0.01    -0.00  -0.05  -0.10    -0.05   0.02   0.06
     3   6     0.12  -0.10  -0.07     0.05   0.04   0.04     0.02   0.11   0.02
     4   6     0.03  -0.04   0.09     0.07  -0.01   0.04     0.09   0.01   0.04
     5   6    -0.05   0.12   0.03    -0.02   0.08   0.01    -0.01   0.06   0.03
     6   6    -0.05  -0.09  -0.03    -0.03  -0.07  -0.04    -0.02  -0.09  -0.05
     7   6    -0.00   0.00   0.03     0.01  -0.02   0.00     0.04  -0.03  -0.07
     8   6     0.03   0.12   0.04    -0.07  -0.05  -0.07    -0.07  -0.09   0.03
     9   6     0.00  -0.02   0.03    -0.01  -0.01  -0.01    -0.01   0.08   0.03
    10   6     0.03  -0.01  -0.00     0.02  -0.01  -0.02     0.05   0.06   0.02
    11   6    -0.12  -0.05  -0.00    -0.04  -0.01   0.13     0.00   0.00  -0.11
    12   1     0.16  -0.17  -0.07     0.01   0.27   0.06     0.04  -0.01   0.01
    13   1     0.17  -0.02   0.10     0.09  -0.03   0.04     0.18  -0.05   0.03
    14   1    -0.15   0.28  -0.08    -0.13   0.20  -0.04    -0.12   0.21  -0.07
    15   1    -0.08   0.13  -0.08    -0.02   0.00  -0.04    -0.03   0.03  -0.07
    16   1     0.01  -0.05  -0.04    -0.03  -0.01  -0.02     0.04  -0.09  -0.03
    17   1    -0.07  -0.11  -0.19    -0.14  -0.14  -0.13    -0.20  -0.18  -0.16
    18   1     0.09   0.11   0.02    -0.05  -0.01  -0.02    -0.08  -0.02  -0.03
    19   1    -0.11  -0.13  -0.21    -0.03   0.02  -0.02    -0.02   0.07   0.01
    20   1    -0.18  -0.03   0.02     0.11   0.15   0.01     0.11  -0.10  -0.06
    21   1    -0.16  -0.10  -0.05    -0.01  -0.06  -0.11     0.16   0.07   0.05
    22   1    -0.20  -0.21  -0.02     0.08   0.32  -0.00     0.07  -0.05   0.04
    23   1     0.14   0.26  -0.34    -0.13  -0.21   0.31    -0.24  -0.03   0.12
    24   1     0.00  -0.12   0.02     0.09   0.27   0.02    -0.17  -0.08   0.02
    25   1    -0.02   0.03   0.00     0.15   0.04  -0.01    -0.18  -0.13  -0.00
    26   1     0.14   0.04  -0.04     0.04   0.02   0.03    -0.19  -0.10  -0.04
    27   1    -0.04   0.04  -0.01    -0.08   0.00   0.09     0.42  -0.07  -0.21
    28   1    -0.19  -0.12  -0.01    -0.09   0.41   0.14     0.11  -0.31  -0.12
    29   1    -0.21  -0.07   0.04    -0.02  -0.13  -0.26    -0.04   0.09   0.21
                     25                     26                     27
                      A                      A                      A
 Frequencies --    938.8098               944.5385               966.5318
 Red. masses --      1.3162                 1.6568                 1.3979
 Frc consts  --      0.6835                 0.8709                 0.7694
 IR Inten    --      2.4194                 1.4255                 1.4114
  Atom  AN      X      Y      Z        X      Y      Z        X      Y      Z
     1   8    -0.01  -0.01   0.01    -0.02  -0.01   0.02    -0.01  -0.02   0.01
     2   6    -0.02  -0.01  -0.00    -0.03  -0.01  -0.00    -0.01   0.01   0.03
     3   6    -0.02  -0.02   0.02    -0.03  -0.02   0.03     0.02   0.02  -0.05
     4   6     0.05  -0.03   0.00     0.06   0.03   0.02    -0.03  -0.03  -0.02
     5   6    -0.01   0.04  -0.07     0.04   0.04   0.05    -0.05  -0.01   0.01
     6   6     0.02  -0.07   0.03    -0.02  -0.01  -0.06     0.02   0.02   0.03
     7   6    -0.04   0.04  -0.00    -0.07   0.05  -0.00    -0.00  -0.04   0.06
     8   6     0.01  -0.01  -0.01     0.03   0.00  -0.02    -0.01  -0.01  -0.06
     9   6    -0.01  -0.04  -0.01    -0.01  -0.08  -0.02    -0.03  -0.04  -0.01
    10   6     0.00  -0.02  -0.01    -0.00  -0.06  -0.01     0.05  -0.05   0.05
    11   6     0.03   0.07  -0.01     0.06   0.13  -0.01     0.03   0.07  -0.01
    12   1    -0.06  -0.07   0.01    -0.06  -0.09   0.02     0.21   0.13  -0.03
    13   1     0.03   0.33   0.12     0.03  -0.19  -0.05     0.15  -0.07  -0.03
    14   1     0.08  -0.21   0.15    -0.26   0.35  -0.10     0.14  -0.06  -0.05
    15   1     0.05  -0.06   0.16     0.04  -0.21  -0.10    -0.10   0.29  -0.05
    16   1    -0.20   0.39   0.08    -0.00  -0.23  -0.07     0.15  -0.07  -0.00
    17   1    -0.23  -0.22  -0.35     0.04   0.03   0.13     0.01   0.01  -0.02
    18   1     0.12   0.35   0.14    -0.14  -0.26  -0.13     0.06   0.09   0.05
    19   1    -0.04   0.14  -0.11     0.03  -0.05   0.09     0.00   0.03  -0.02
    20   1     0.05  -0.07  -0.00     0.02  -0.11  -0.01    -0.11   0.19   0.06
    21   1    -0.06   0.07   0.13    -0.17   0.05   0.17     0.04  -0.09  -0.20
    22   1     0.07  -0.02  -0.01     0.09  -0.03  -0.02    -0.09   0.24  -0.02
    23   1     0.05  -0.05   0.01     0.09  -0.04  -0.02    -0.00  -0.10   0.12
    24   1    -0.00  -0.07  -0.01    -0.01  -0.15  -0.02    -0.35   0.06  -0.00
    25   1     0.02   0.04  -0.00     0.01   0.10   0.01    -0.35   0.08   0.04
    26   1     0.10   0.03  -0.02     0.26   0.08  -0.05     0.36   0.04  -0.26
    27   1    -0.11   0.03   0.03    -0.28   0.07   0.08    -0.01   0.10  -0.15
    28   1     0.13  -0.03  -0.01     0.24  -0.04  -0.01     0.03  -0.05  -0.01
    29   1     0.04   0.12   0.11     0.11   0.22   0.19     0.07   0.12   0.09
                     28                     29                     30
                      A                      A                      A
 Frequencies --    977.7368              1000.2260              1010.4246
 Red. masses --      1.4233                 2.2857                 1.9532
 Frc consts  --      0.8016                 1.3473                 1.1749
 IR Inten    --      0.1872                 7.3565                 1.4299
  Atom  AN      X      Y      Z        X      Y      Z        X      Y      Z
     1   8    -0.00   0.00   0.00    -0.00   0.02   0.00     0.00   0.02  -0.01
     2   6     0.00  -0.01  -0.01     0.01  -0.04  -0.06     0.00   0.02   0.00
     3   6     0.01   0.02   0.03     0.12  -0.11   0.00    -0.10  -0.11  -0.03
     4   6     0.01  -0.08  -0.02    -0.06  -0.04  -0.02     0.04  -0.07  -0.01
     5   6    -0.10   0.04   0.01    -0.04  -0.01   0.01    -0.00   0.07   0.00
     6   6     0.11   0.02  -0.00    -0.01   0.06   0.04     0.06   0.01  -0.00
     7   6    -0.02  -0.02  -0.04     0.02   0.14  -0.02    -0.07   0.06   0.09
     8   6     0.00   0.03   0.02    -0.07  -0.10   0.01     0.11  -0.06  -0.04
     9   6     0.02  -0.01   0.01    -0.10   0.00   0.03    -0.00   0.04  -0.03
    10   6    -0.03  -0.01  -0.02     0.09   0.04  -0.05     0.01   0.07   0.04
    11   6    -0.00  -0.00  -0.00    -0.07   0.08   0.01    -0.00  -0.03   0.01
    12   1    -0.04  -0.02   0.02     0.29  -0.32  -0.02    -0.17  -0.10  -0.03
    13   1    -0.05  -0.28  -0.09    -0.03  -0.10  -0.04    -0.01  -0.16  -0.05
    14   1     0.18  -0.04  -0.07     0.09  -0.05  -0.03    -0.13   0.16  -0.02
    15   1    -0.16   0.46  -0.03    -0.08   0.21  -0.02     0.01  -0.06  -0.01
    16   1     0.15  -0.02  -0.01     0.08  -0.05  -0.00    -0.08   0.04  -0.02
    17   1    -0.23  -0.14  -0.01     0.17   0.15   0.11    -0.09  -0.06   0.01
    18   1    -0.20  -0.04  -0.01     0.10   0.02   0.03    -0.08  -0.03  -0.01
    19   1     0.19   0.40   0.36    -0.03  -0.13  -0.07     0.10   0.18   0.17
    20   1     0.02  -0.09  -0.04     0.28  -0.13  -0.02    -0.17   0.05   0.09
    21   1    -0.05  -0.01   0.06    -0.07   0.19   0.29    -0.06   0.04   0.02
    22   1     0.03  -0.11  -0.00     0.17  -0.05   0.03     0.08   0.09  -0.02
    23   1    -0.05   0.11  -0.08     0.06  -0.26   0.15     0.42  -0.28   0.04
    24   1     0.15  -0.08  -0.00    -0.05  -0.03   0.03    -0.16   0.19  -0.01
    25   1     0.14   0.02  -0.01     0.22  -0.06  -0.05    -0.20  -0.12   0.01
    26   1    -0.01   0.02   0.08    -0.08  -0.03   0.05    -0.24  -0.09  -0.03
    27   1    -0.14  -0.00   0.10     0.20  -0.05  -0.02     0.36  -0.05  -0.17
    28   1     0.04  -0.00   0.00     0.13   0.02   0.02    -0.13   0.03   0.01
    29   1     0.01   0.01   0.01    -0.09   0.12   0.15    -0.07  -0.10  -0.09
                     31                     32                     33
                      A                      A                      A
 Frequencies --   1038.6245              1065.2359              1099.1918
 Red. masses --      1.6623                 1.7893                 1.5562
 Frc consts  --      1.0565                 1.1963                 1.1078
 IR Inten    --      4.2005                 9.2393                 4.7432
  Atom  AN      X      Y      Z        X      Y      Z        X      Y      Z
     1   8    -0.00  -0.03   0.01     0.00  -0.01  -0.00    -0.01   0.00  -0.00
     2   6    -0.10   0.05   0.02    -0.07   0.06   0.03     0.05  -0.02   0.00
     3   6     0.03   0.00   0.01    -0.07  -0.09  -0.04    -0.06  -0.06  -0.04
     4   6    -0.00   0.01  -0.03     0.01  -0.02  -0.00     0.01  -0.09  -0.04
     5   6    -0.02  -0.01   0.03     0.00   0.02   0.00     0.01   0.06  -0.01
     6   6    -0.03  -0.01   0.03     0.02  -0.00  -0.00     0.00   0.03   0.04
     7   6    -0.08  -0.01   0.04     0.15   0.06   0.02     0.03   0.04   0.03
     8   6     0.05  -0.00  -0.07    -0.11   0.03   0.02    -0.06   0.00  -0.02
     9   6     0.11  -0.01   0.02     0.03  -0.02   0.00     0.10  -0.01   0.01
    10   6    -0.09   0.03  -0.00    -0.02  -0.03   0.00    -0.05  -0.00   0.03
    11   6     0.04  -0.01  -0.06     0.05  -0.03  -0.03    -0.02   0.02  -0.01
    12   1     0.41  -0.04   0.02    -0.03  -0.46  -0.07    -0.01   0.30  -0.00
    13   1     0.27   0.01  -0.02     0.02  -0.06  -0.02     0.09  -0.16  -0.07
    14   1     0.04   0.03  -0.05    -0.06   0.07  -0.01    -0.12   0.12  -0.01
    15   1    -0.05   0.15  -0.05     0.00  -0.06  -0.02     0.02  -0.09  -0.02
    16   1     0.12  -0.12  -0.02    -0.03  -0.00  -0.01    -0.10   0.05  -0.02
    17   1     0.06   0.03  -0.06    -0.04  -0.03  -0.01     0.09   0.07   0.02
    18   1     0.14   0.12   0.06    -0.02   0.00   0.00     0.11   0.08   0.06
    19   1    -0.08  -0.11  -0.16     0.03   0.07   0.05    -0.02  -0.05  -0.05
    20   1    -0.00   0.06   0.04     0.04   0.06   0.01     0.40   0.27   0.05
    21   1    -0.24  -0.11  -0.01     0.35   0.16  -0.03     0.04   0.04  -0.00
    22   1     0.20   0.10  -0.05    -0.41   0.23   0.04     0.20  -0.01  -0.01
    23   1     0.02  -0.06   0.07    -0.11   0.02   0.04    -0.37   0.14   0.08
    24   1     0.30   0.10   0.02     0.07   0.20   0.02     0.16  -0.30  -0.02
    25   1     0.09  -0.04   0.00    -0.01   0.05   0.01    -0.10  -0.01   0.03
    26   1    -0.25  -0.02   0.15     0.10   0.03  -0.02    -0.05  -0.01   0.02
    27   1    -0.05  -0.05   0.10    -0.13   0.02   0.04    -0.05   0.00   0.01
    28   1     0.36   0.06  -0.04     0.35   0.17  -0.01    -0.31  -0.23  -0.03
    29   1    -0.24  -0.14  -0.02    -0.17  -0.16  -0.08    -0.00   0.06   0.07
                     34                     35                     36
                      A                      A                      A
 Frequencies --   1120.2270              1141.1256              1165.9285
 Red. masses --      2.3306                 2.0696                 2.2323
 Frc consts  --      1.7232                 1.5878                 1.7879
 IR Inten    --      9.4159                13.4415                 6.8005
  Atom  AN      X      Y      Z        X      Y      Z        X      Y      Z
     1   8    -0.01   0.01   0.02    -0.01  -0.00  -0.01    -0.00   0.04  -0.02
     2   6     0.03  -0.07  -0.07     0.08  -0.01   0.03     0.09  -0.04  -0.01
     3   6     0.11   0.02   0.03    -0.03   0.04   0.01    -0.11  -0.11   0.01
     4   6    -0.00   0.01   0.04     0.00  -0.08  -0.04     0.04   0.20  -0.03
     5   6    -0.01  -0.02  -0.02     0.01   0.05  -0.01    -0.04  -0.09   0.07
     6   6    -0.01   0.01  -0.02    -0.01   0.02   0.04     0.01  -0.06  -0.05
     7   6    -0.06   0.06  -0.03    -0.05  -0.03   0.02    -0.02   0.03   0.05
     8   6    -0.00  -0.07   0.00     0.07  -0.06  -0.01     0.00  -0.02  -0.01
     9   6     0.21   0.06  -0.08    -0.04   0.15   0.07     0.01   0.06   0.03
    10   6    -0.08  -0.03   0.11     0.01  -0.08  -0.06    -0.00  -0.03  -0.01
    11   6    -0.07   0.04   0.00    -0.08  -0.06  -0.09    -0.03  -0.02  -0.01
    12   1    -0.04  -0.22  -0.00     0.02  -0.02   0.01    -0.05  -0.15   0.01
    13   1    -0.19   0.04   0.05     0.05  -0.16  -0.07     0.29   0.40   0.04
    14   1     0.06  -0.10   0.03    -0.10   0.10   0.00     0.20  -0.07  -0.10
    15   1    -0.01   0.05   0.05     0.03  -0.11  -0.02    -0.10   0.23  -0.08
    16   1     0.00   0.06   0.02    -0.10   0.05  -0.01     0.32  -0.30   0.00
    17   1     0.02   0.03   0.06     0.08   0.06   0.01    -0.15  -0.14  -0.13
    18   1    -0.06  -0.10  -0.05     0.12   0.08   0.06    -0.10  -0.01  -0.04
    19   1     0.00  -0.05   0.02    -0.03  -0.06  -0.06     0.01   0.12   0.00
    20   1    -0.22  -0.27  -0.05    -0.16  -0.04   0.02     0.17   0.17   0.07
    21   1     0.16   0.23   0.17     0.30   0.16   0.02     0.10   0.09   0.03
    22   1    -0.18   0.13   0.02     0.14  -0.05   0.00     0.17  -0.04  -0.01
    23   1    -0.07  -0.05   0.04    -0.09   0.01   0.05    -0.08  -0.00   0.05
    24   1     0.17   0.20  -0.07    -0.02   0.48   0.10     0.03   0.04   0.03
    25   1    -0.47   0.06   0.10     0.22   0.19  -0.02     0.04   0.06  -0.00
    26   1     0.07  -0.01  -0.12     0.30   0.11   0.03     0.09   0.03   0.01
    27   1    -0.12   0.08  -0.07    -0.34   0.06   0.14    -0.12   0.02   0.05
    28   1    -0.16  -0.13  -0.01     0.15  -0.07  -0.07    -0.21  -0.14  -0.02
    29   1    -0.22  -0.02   0.05    -0.01   0.03   0.08     0.00   0.02   0.03
                     37                     38                     39
                      A                      A                      A
 Frequencies --   1177.9332              1206.1863              1230.9912
 Red. masses --      2.0815                 1.7503                 1.9274
 Frc consts  --      1.7017                 1.5004                 1.7208
 IR Inten    --      3.5223                 6.3251                37.9946
  Atom  AN      X      Y      Z        X      Y      Z        X      Y      Z
     1   8    -0.03  -0.03   0.01     0.00   0.00  -0.00    -0.04  -0.00   0.02
     2   6     0.07   0.01   0.07    -0.01   0.01  -0.00     0.15  -0.08   0.00
     3   6     0.06  -0.02  -0.13    -0.06  -0.00   0.05    -0.03   0.04   0.06
     4   6    -0.01   0.02   0.14     0.18  -0.04   0.04     0.02   0.00  -0.10
     5   6    -0.00  -0.02  -0.05    -0.09  -0.00  -0.07    -0.01   0.00   0.04
     6   6     0.01   0.02  -0.08    -0.09   0.06  -0.04    -0.02  -0.01   0.05
     7   6     0.01   0.01   0.07    -0.00  -0.01  -0.00     0.01  -0.04  -0.02
     8   6    -0.03  -0.01  -0.07     0.01   0.01   0.01     0.00   0.06  -0.05
     9   6     0.02  -0.01   0.09    -0.01  -0.01  -0.01     0.00  -0.10   0.04
    10   6    -0.01   0.01  -0.04     0.00   0.00  -0.00    -0.00   0.06  -0.02
    11   6    -0.03   0.04  -0.08     0.01  -0.01   0.01    -0.04   0.08  -0.01
    12   1    -0.21   0.26  -0.11    -0.26  -0.07   0.04    -0.32   0.05   0.04
    13   1    -0.25   0.10   0.17     0.46  -0.11   0.02     0.02  -0.05  -0.11
    14   1     0.07  -0.18   0.08     0.21  -0.25   0.03    -0.00   0.09  -0.06
    15   1     0.03   0.01   0.12    -0.07   0.28   0.11    -0.03   0.01  -0.08
    16   1    -0.07   0.19   0.04     0.03   0.29   0.06     0.06  -0.11  -0.01
    17   1    -0.05   0.00   0.14     0.23   0.22   0.19     0.04   0.01  -0.09
    18   1    -0.22  -0.26  -0.15     0.07  -0.25  -0.12     0.13   0.13   0.08
    19   1     0.09   0.04   0.17    -0.07  -0.32  -0.08    -0.06  -0.03  -0.11
    20   1    -0.02   0.16   0.07     0.01   0.01  -0.00    -0.25  -0.11  -0.03
    21   1    -0.10  -0.11  -0.11     0.03   0.01   0.01     0.24   0.09  -0.02
    22   1     0.08   0.16  -0.04    -0.02  -0.02   0.00    -0.31   0.26  -0.03
    23   1     0.02  -0.13   0.12     0.00   0.03  -0.02     0.12  -0.03  -0.02
    24   1     0.10   0.04   0.09    -0.04  -0.01  -0.01    -0.04  -0.13   0.04
    25   1     0.18  -0.00  -0.03     0.00  -0.01  -0.00     0.10  -0.11  -0.03
    26   1    -0.06   0.02   0.10    -0.00  -0.00  -0.01    -0.20  -0.03   0.08
    27   1    -0.04  -0.04   0.09     0.02  -0.00  -0.01     0.14  -0.07   0.03
    28   1     0.19  -0.11  -0.07     0.01   0.03   0.01     0.16   0.02   0.01
    29   1    -0.30  -0.01   0.17     0.02  -0.02  -0.02    -0.45  -0.07   0.15
                     40                     41                     42
                      A                      A                      A
 Frequencies --   1251.3329              1285.1755              1308.4536
 Red. masses --      1.3677                 1.3601                 1.3656
 Frc consts  --      1.2618                 1.3235                 1.3775
 IR Inten    --      0.2255                 2.0120                 3.3007
  Atom  AN      X      Y      Z        X      Y      Z        X      Y      Z
     1   8    -0.02  -0.02   0.01    -0.02  -0.01   0.01     0.00   0.01  -0.01
     2   6     0.04   0.01   0.04     0.06  -0.02   0.01     0.03   0.01   0.04
     3   6    -0.01  -0.03   0.00    -0.02  -0.02  -0.02     0.02  -0.00  -0.02
     4   6     0.01   0.01  -0.03    -0.02  -0.01   0.04     0.02   0.01  -0.03
     5   6    -0.00  -0.00   0.01     0.01   0.00  -0.01    -0.01  -0.01   0.02
     6   6    -0.01  -0.00   0.01     0.01   0.01  -0.03    -0.01  -0.00   0.02
     7   6     0.03   0.01  -0.07    -0.06  -0.02   0.00     0.01   0.00   0.02
     8   6    -0.04  -0.01   0.10     0.05   0.01   0.03     0.00  -0.01  -0.01
[...]
 .00015232,0.00019290,-0.00071368,0.00017129,0.00072293,-0.00007602,0.0
 0035116,0.01241258,-0.00025109,0.01880303,0.12777839,0.00002297,0.0008
 2615,-0.00001100,-0.00000905,-0.00231169,0.00010857,0.00316023,-0.0047
 1098,-0.00124085,0.00072650,0.00080593,0.00151637,0.00005464,0.0002009
 1,0.00008161,0.00031498,-0.00058164,-0.00018381,0.01504129,-0.00074084
 ,0.02562023,0.00126720,-0.04779291,0.00236382,-0.01372526,-0.00039008,
 -0.02485228,-0.00056908,0.00147661,-0.00106269,-0.00340517,-0.00460334
 ,0.00054793,-0.00038628,-0.00001346,-0.00034979,0.00008582,-0.00008980
 ,-0.00005297,-0.00002368,-0.00000229,-0.00006587,-0.00000751,-0.000056
 72,-0.00001285,-0.00003224,-0.00000303,0.00000923,0.00000509,0.0000233
 5,0.00000547,-0.00003267,0.00001235,0.00001325,0.00010658,-0.00005214,
 0.00023793,-0.00049477,0.00116683,-0.00050345,-0.00079593,0.00084291,0
 .00018129,-0.00007730,-0.00037406,-0.00003156,-0.00146258,0.05528364,-
 0.00015126,0.00006387,-0.00002284,0.00041341,-0.00012703,0.00012806,0.
 00017009,0.00080793,0.00114250,-0.00010086,-0.00042791,0.00006081,-0.0
 0005080,-0.00000982,-0.00003554,-0.00002838,0.00008219,0.00005981,0.00
 076923,-0.00017010,-0.00035462,-0.11307729,0.00211641,-0.23714107,-0.0
 0002634,0.00037701,-0.00163891,0.00010139,0.00039086,-0.00005603,-0.00
 021383,-0.00090284,0.00136500,0.00007814,-0.00008131,0.00048898,-0.000
 08259,0.00011417,-0.00001658,0.00000265,-0.00001903,0.00000566,-0.0000
 0442,0.00003858,-0.00000589,0.00001890,-0.00000744,-0.00000559,0.00001
 052,-0.00000920,0.00000628,0.00001019,-0.00001288,-0.00001255,-0.00001
 617,0.00001770,-0.00003610,-0.00024212,0.00031490,0.00079262,0.0000709
 2,0.00051843,0.00004520,-0.01271366,0.00021407,-0.02145149,0.12501060,
 -0.00245794,0.25480169,0.00012447,-0.00040514,0.00031216,0.00139873,-0
 .00030438,-0.00041086,0.00005160,-0.00005301,-0.00017522,0.00003839,0.
 00003869,0.00003731,-0.00000785,0.00000161,0.00001209,0.00000833,-0.00
 002699,0.00000053,0.00036654,0.00118571,-0.00007513,-0.01420089,-0.002
 18244,0.01635210,-0.14114272,-0.00163467,0.11929137,-0.01250686,0.0012
 8963,0.01498159,0.01051247,0.00060761,-0.01703605,-0.00012877,0.000004
 50,-0.00005310,0.00001582,0.00000481,0.00000566,-0.00000232,0.00000644
 ,0.00000747,0.00000802,-0.00000446,0.00000418,0.00000180,0.00000462,-0
 .00000948,0.00000549,0.00000021,-0.00000851,-0.00000450,-0.00000598,-0
 .00000048,0.00000378,-0.00000277,0.00001316,0.00072933,-0.00052566,-0.
 00025044,0.00009081,0.00007450,-0.00033963,-0.00174213,-0.00356721,-0.
 00041964,0.00030350,0.00060912,-0.00021611,0.15694941,0.00004090,0.000
 06167,-0.00016269,-0.00053904,-0.00009509,0.00078317,0.00022083,-0.000
 14657,-0.00003848,0.00001944,0.00001929,0.00002753,-0.00000081,0.00000
 287,0.00001837,0.00000803,-0.00001904,-0.00000857,-0.00061948,0.001704
 91,0.00090587,-0.01862197,-0.00283626,0.02245160,-0.00147298,-0.050042
 36,0.00256644,0.01930743,-0.00180083,-0.02306033,-0.00068021,-0.000012
 37,0.00090537,-0.00002192,0.00009527,-0.00020859,0.00003205,-0.0000252
 2,-0.00000359,-0.00000284,-0.00000791,-0.00000668,-0.00000189,-0.00000
 271,-0.00000400,0.00000243,0.00000682,-0.00000764,0.00000407,-0.000002
 03,0.00001310,0.00000198,0.00000597,-0.00000679,0.00000358,0.00000190,
 0.00000466,0.00049935,-0.00040670,-0.00050429,0.00008641,0.00031741,-0
 .00035418,-0.00336086,-0.00458702,-0.00005361,0.00071893,0.00106954,-0
 .00036813,0.00152899,0.05837717,-0.00165297,0.00029481,0.00067542,0.00
 296512,-0.00184972,-0.00088836,-0.00004505,0.00037909,-0.00028690,0.00
 013171,0.00002024,-0.00001471,-0.00005021,0.00002260,-0.00000854,-0.00
 000724,0.00000155,0.00000694,-0.00010319,-0.00005872,-0.00010752,-0.00
 103891,-0.00022728,0.00149038,0.11919869,0.00217817,-0.20227724,-0.000
 45735,-0.00001045,0.00081611,0.01352990,0.00204438,-0.02476131,-0.0000
 7750,-0.00007025,0.00014871,-0.00005417,0.00003680,0.00001158,0.000012
 38,0.00000991,0.00001037,0.00000627,0.00002313,0.00000270,-0.00000461,
 -0.00000899,0.00000416,0.00001991,-0.00000771,0.00000210,-0.00000838,-
 0.00001553,0.00001483,-0.00000790,0.00002012,-0.00000035,-0.00022332,0
 .00053367,0.00018377,-0.00021968,0.00013013,0.00023054,-0.00056979,-0.
 00059550,0.00146298,0.00018814,0.00048778,0.00086217,-0.12756250,-0.00
 280252,0.22327279,0.00026161,-0.00014821,0.00003352,0.00007751,0.00020
 432,-0.00023711,-0.00003695,-0.00006854,0.00016609,-0.00001255,-0.0000
 1023,-0.00001881,-0.00000091,0.00000111,0.00000516,-0.00000695,0.00000
 932,0.00001011,0.00016081,0.00002481,-0.00022891,0.00037492,-0.0011992
 1,-0.00043816,-0.01343813,0.00084926,0.01519497,-0.15016523,0.00286030
 ,0.12530053,0.00051528,-0.00095958,0.00117851,0.00002044,0.00001130,-0
 .00003765,0.00001350,-0.00000773,-0.00000399,-0.00000098,-0.00000858,-
 0.00001018,-0.00000502,0.00000200,-0.00000418,0.00000395,0.00000037,0.
 00000128,-0.00000547,-0.00000284,0.00000027,0.00000609,0.00000528,-0.0
 0000650,-0.00000155,-0.00000002,-0.00000713,0.00006338,-0.00020036,-0.
 00004605,0.00001075,0.00005610,-0.00005547,0.00070138,0.00051537,-0.00
 020248,0.00004978,0.00003132,-0.00007340,-0.00133287,0.00370103,-0.000
 58590,0.16171181,-0.00022946,0.00008278,0.00003980,-0.00010446,-0.0000
 3934,-0.00018796,-0.00001444,0.00005532,-0.00005398,-0.00000048,-0.000
 01094,-0.00000725,0.00000006,0.00000186,0.00000088,-0.00000019,0.00000
 802,0.00000200,0.00004541,-0.00009623,0.00017406,0.00102286,0.00198200
 ,-0.00124446,0.01867534,-0.00166610,-0.02329679,0.00267931,-0.04930256
 ,-0.00399455,-0.00092756,0.00103560,-0.00107173,0.00000155,-0.00002560
 ,0.00004182,-0.00001123,0.00001104,0.00000250,-0.00000030,-0.00000182,
 -0.00000437,-0.00000225,0.00000159,-0.00000165,-0.00000152,-0.00000348
 ,0.00000247,-0.00000285,-0.00000058,-0.00000397,-0.00000112,-0.0000023
 3,0.00000320,-0.00000305,0.00000079,-0.00000288,-0.00021046,0.00011424
 ,0.00013971,-0.00006865,-0.00000775,0.00008354,-0.00058665,-0.00027685
 ,0.00063705,-0.00005418,-0.00010326,0.00000538,0.00339334,-0.00467429,
 0.00018642,-0.00653537,0.05207892,0.00006902,-0.00006071,-0.00011096,-
 0.00018006,0.00022481,0.00031639,0.00002306,-0.00003784,-0.00007204,-0
 .00002745,0.00000033,-0.00000007,0.00001972,-0.00000673,-0.00000258,0.
 00000751,-0.00000084,-0.00000840,-0.00030631,-0.00017248,0.00028541,0.
 00003716,0.00033624,-0.00001948,-0.00064400,-0.00043720,-0.00035599,0.
 12554721,-0.00439983,-0.20707790,-0.00060126,-0.00008614,0.00134899,0.
 00000785,-0.00000397,0.00002395,-0.00000210,0.00000613,0.00000421,-0.0
 0000105,0.00000206,0.00000213,-0.00000019,-0.00000831,0.00000122,-0.00
 000636,-0.00000085,0.00000359,-0.00000454,0.00000322,-0.00000695,-0.00
 000493,-0.00000101,0.00000475,0.00000258,-0.00000541,0.00000294,-0.000
 07755,0.00017089,-0.00002973,0.00003723,-0.00009201,-0.00001583,-0.000
 26057,-0.00064602,0.00026759,0.00010422,0.00001169,-0.00003511,-0.0004
 3836,-0.00002576,0.00139268,-0.13972578,0.00482178,0.22265047,0.000140
 36,-0.00015150,-0.00002565,0.00004171,0.00024273,0.00024968,0.00013822
 ,-0.00010689,0.00006942,-0.00001771,0.00000193,-0.00000018,-0.00000582
 ,0.00002229,0.00001382,-0.00000120,-0.00000208,0.00000052,0.00084011,0
 .00103396,-0.00004196,-0.00231691,0.00247028,-0.00035265,0.01220388,0.
 01677044,0.00031232,-0.14019628,-0.12572367,-0.00568586,0.00115182,0.0
 0011677,0.00053392,0.00000832,0.00001153,-0.00001518,0.00000071,0.0000
 0663,0.00000300,-0.00000195,-0.00000946,-0.00001856,-0.00000621,-0.000
 00375,-0.00001086,-0.00000250,-0.00000364,0.00000391,-0.00000594,0.000
 00277,-0.00001095,-0.00000215,-0.00000030,0.00000104,0.00000260,-0.000
 00652,0.00000147,0.00003650,-0.00009411,0.00002619,-0.00020867,0.00032
 646,-0.00003132,0.00009403,0.00018297,-0.00028574,-0.00005549,0.000081
 54,0.00020725,0.00091280,-0.00083774,-0.00001248,-0.01201241,-0.016012
 18,-0.00206706,0.14985422,0.00010257,0.00021024,-0.00004292,0.00017726
 ,-0.00030065,-0.00020455,-0.00016593,0.00026353,-0.00011611,0.00006611
 ,0.00010754,0.00011854,0.00000351,-0.00001303,-0.00004289,0.00002918,-
 0.00006093,-0.00002597,-0.00184952,-0.00082981,-0.00021213,0.00577959,
 -0.00337064,0.00027357,-0.01753663,-0.02252174,-0.00077579,-0.12476931
 ,-0.22045726,-0.00785110,-0.00148789,0.00097884,-0.00054615,-0.0000217
 6,0.00000668,0.00001272,0.00000426,-0.00002044,-0.00000802,-0.00000237
 ,0.00004100,0.00005832,0.00003245,-0.00000845,0.00003157,-0.00000091,0
 .00001415,-0.00001508,0.00000743,0.00001033,0.00001194,-0.00000381,0.0
 0000159,0.00000229,0.00001732,-0.00001241,0.00002978,0.00007658,-0.000
 00179,-0.00005005,0.00039963,-0.00063491,0.00007150,0.00007346,0.00029
 280,0.00016317,0.00008249,0.00027169,-0.00013002,0.00000733,0.00103455
 ,-0.00043826,0.00107767,0.00160383,0.00064027,0.13554061,0.24107238,0.
 00012419,-0.00006763,-0.00003983,-0.00015836,0.00004825,-0.00003642,0.
 00012012,-0.00014137,0.00002552,-0.00003611,0.00000042,0.00002814,0.00
 001608,0.00000045,0.00000283,0.00000978,-0.00000547,-0.00000552,-0.000
 09089,0.00003707,0.00057942,0.00006319,0.00011488,0.00013449,0.0002857
 4,0.00013881,-0.00160600,-0.00584913,-0.00803978,-0.05019721,0.0006878
 4,0.00054095,0.00021872,0.00000213,-0.00001047,0.00000623,0.00000506,0
 .00000449,-0.00000020,-0.00000466,-0.00000134,-0.00000389,-0.00000114,
 -0.00000833,-0.00000148,-0.00000211,-0.00000014,0.00000033,-0.00000595
 ,0.00000261,-0.00000600,-0.00000188,0.00000028,0.00000091,0.00000323,-
 0.00000671,0.00000523,-0.00004440,0.00009326,-0.00002793,0.00000418,-0
 .00002192,-0.00000806,-0.00035855,-0.00029386,0.00022074,0.00029457,0.
 00032093,0.00027171,-0.00035942,-0.00023731,0.00001439,0.01518364,0.02
 237884,0.00176108,0.00663556,0.00892561,0.04859525,-0.00083913,0.00055
 262,0.00030513,0.00064787,-0.00148861,-0.00139516,-0.00005641,0.000049
 94,0.00020785,0.00012809,0.00003512,0.00006428,-0.00005486,0.00002127,
 -0.00002657,-0.00000605,-0.00001541,0.00000826,-0.00003481,0.00007210,
 0.00016428,0.00044953,-0.00096079,0.00015110,-0.01073877,-0.00003766,-
 0.01570738,-0.12519287,0.00481335,-0.11827845,-0.00187182,0.00454827,0
 .00058750,-0.00001453,-0.00000680,-0.00000596,-0.00000880,-0.00002792,
 -0.00001454,0.00000938,0.00000135,0.00001249,0.00000469,0.00003228,0.0
 0000378,0.00000993,0.00000203,-0.00000167,0.00002083,-0.00000973,0.000
 03453,0.00000929,0.00000281,-0.00000576,-0.00000515,0.00002380,-0.0000
 0202,-0.00003957,0.00001326,0.00001669,0.00005539,0.00000722,0.0000704
 6,0.00006151,0.00003925,0.00009765,0.00057660,0.00038636,0.00025446,0.
 00015361,-0.00062583,0.00020115,0.01309256,-0.00086369,0.01810549,-0.0
 1041486,0.00138922,-0.01634698,0.13345134,0.00087854,-0.00077754,-0.00
 037126,0.00033189,0.00190566,0.00157647,-0.00017957,0.00007280,-0.0002
 6010,-0.00006970,-0.00002608,-0.00009033,0.00002592,-0.00000438,0.0000
 2319,-0.00000451,0.00003224,0.00000395,0.00012818,-0.00010616,-0.00012
 645,0.00039624,0.00153191,0.00113358,0.01439417,-0.00121761,0.02494623
 ,0.00458101,-0.04945620,0.00777168,0.00273809,-0.00562504,-0.00019515,
 0.00002281,-0.00000209,0.00001687,0.00000397,0.00003071,0.00001860,-0.
 00000492,-0.00001088,-0.00002037,-0.00000959,-0.00001368,-0.00000890,-
 0.00000780,-0.00000585,0.00000547,-0.00001679,0.00000389,-0.00003103,-
 0.00000680,-0.00000377,0.00000361,-0.00000268,-0.00001230,-0.00000893,
 -0.00000963,0.00001365,0.00000140,-0.00008607,0.00004329,-0.00009328,-
 0.00007339,-0.00008094,-0.00001064,-0.00040501,-0.00039232,-0.00058370
 ,-0.00061663,0.00110745,-0.00040857,-0.00051786,-0.00094212,-0.0001616
 1,-0.01354044,0.00207729,-0.02387240,-0.00789696,0.05180428,-0.0004028
 6,0.00036974,-0.00008619,0.00021881,-0.00094287,0.00021946,-0.00000983
 ,-0.00002147,-0.00010335,0.00007825,0.00003004,0.00005956,-0.00003411,
 0.00001670,-0.00001440,0.00000441,-0.00001668,-0.00000105,0.00021376,0
 .00019174,0.00026298,0.00008119,-0.00039939,0.00000213,0.00090075,-0.0
 0016754,0.00000937,-0.11837953,0.00833214,-0.23527294,-0.00018876,0.00
 084016,0.00116317,-0.00001206,-0.00000373,0.00001155,-0.00000660,-0.00
 001044,-0.00000742,0.00000470,0.00000083,0.00000838,0.00000208,0.00001
 887,0.00000225,0.00000548,-0.00000003,-0.00000277,0.00001481,-0.000003
 46,0.00002135,0.00000369,-0.00000132,-0.00000212,-0.00000382,0.0000146
 5,0.00000349,0.00001053,-0.00002526,-0.00000947,-0.00001570,0.00007724
 ,-0.00000086,-0.00008006,0.00003168,-0.00007449,0.00023036,0.00051706,
 0.00036068,-0.00021583,0.00045019,0.00072888,-0.01439460,0.00045585,-0
 .02070432,0.00056140,-0.00056297,-0.00004693,0.13128878,-0.00889843,0.
 25303345,-0.00153063,0.00486326,-0.00236662,-0.01333617,-0.00195831,0.
 01443577,-0.00006383,-0.00035881,-0.00067597,0.00008393,0.00002670,-0.
 00039316,0.00002768,0.00001151,-0.00002022,-0.00004189,-0.00000237,-0.
 00004538,-0.00006372,-0.00029604,-0.00005454,0.00133330,0.00020444,-0.
 00009672,0.01045615,-0.00119251,-0.01700386,0.00148278,-0.00029133,-0.
 00027561,-0.13556452,0.00459721,0.12515005,0.00087696,0.00016116,-0.00
 040131,0.00005063,-0.00018292,-0.00005580,-0.00000201,-0.00000251,-0.0
 0000905,-0.00001533,0.00000861,0.00000264,0.00000492,0.00002062,0.0000
 0695,-0.00001369,-0.00000497,0.00016321,0.00005298,0.00007691,-0.00002
 925,0.00001559,0.00001337,-0.00003075,-0.00010430,0.00002002,-0.000072
 67,-0.00002196,-0.00001850,-0.00004213,-0.00008586,0.00017265,0.000283
 96,0.00019953,0.00033039,0.00016346,-0.00158437,0.00021079,-0.00364654
 ,-0.00001232,-0.00017084,0.00043814,-0.00012534,0.00007900,0.00008510,
 0.00028171,-0.00032232,0.00010528,0.14900511,0.00361059,-0.00371578,0.
 00340676,0.01598186,0.00391546,-0.02568736,-0.00145429,-0.00035115,0.0
 0229071,0.00003607,0.00017783,0.00044579,-0.00008129,0.00005433,-0.000
 00632,0.00003472,0.00004504,0.00005031,0.00043150,0.00018284,0.0002674
 1,0.00062471,0.00009560,-0.00099685,-0.00172545,0.00025644,0.00171516,
 -0.00088505,0.00023782,0.00079846,0.00570361,-0.05340475,-0.01370738,-
 0.00037206,-0.00163781,-0.00002132,-0.00001008,0.00014083,0.00005664,-
 0.00000196,-0.00001838,-0.00001135,0.00002143,0.00002177,-0.00000832,0
 .00000181,-0.00001739,-0.00000197,-0.00000141,0.00002749,-0.00018178,-
 0.00005589,-0.00006757,0.00002303,-0.00001294,-0.00002344,0.00000808,-
 0.00000489,0.00008315,0.00007857,0.00002895,-0.00001081,0.00002615,-0.
 00019724,0.00010884,-0.00005997,-0.00003120,-0.00002316,0.00011311,0.0
 0060699,0.00070508,0.00054667,0.00026820,0.00019206,-0.00006259,-0.000
 08725,-0.00003236,0.00007817,-0.00003376,-0.00007165,-0.00018357,-0.00
 831126,0.05053878,-0.00054881,-0.00008961,-0.00111383,-0.00125271,0.00
 099263,0.00223621,0.00082017,0.00007629,-0.00060753,-0.00016230,-0.000
 19444,0.00014990,0.00002034,-0.00002412,-0.00000670,0.00007068,0.00003
 213,0.00001720,-0.00044418,-0.00014286,-0.00019345,0.00167016,0.000617
 90,0.00099187,0.01600928,-0.00103245,-0.02781885,0.00169375,-0.0007940
 7,0.00147788,0.12210796,-0.01063496,-0.20233146,-0.00040264,0.00012402
 ,0.00056960,-0.00007816,0.00011258,0.00001800,-0.00000067,0.00000154,0
 .00000312,-0.00000322,-0.00000796,-0.00000007,-0.00000577,-0.00001235,
 0.00000417,-0.00003956,-0.00002234,-0.00000751,-0.00000565,-0.00000952
 ,0.00001520,-0.00002013,-0.00000806,-0.00000623,-0.00004568,0.00018974
 ,0.00014336,0.00000316,-0.00005234,-0.00000045,-0.00095138,-0.00066586
 ,0.00044684,-0.00018511,0.00024950,0.00046519,-0.00431155,0.00004562,-
 0.00406734,-0.00099110,0.00072253,0.00040327,-0.00008594,0.00005876,-0
 .00003541,-0.00012978,-0.00031236,0.00048474,-0.13160217,0.01003963,0.
 22728585,0.00199325,-0.00113442,-0.00011264,0.01117421,0.01574523,0.00
 058552,-0.00204176,0.00239093,-0.00006113,0.00072381,0.00069263,0.0000
 5956,-0.00021798,0.00020058,-0.00009239,0.00003337,-0.00002766,0.00007
 658,-0.00022629,0.00021911,-0.00004133,-0.00114021,0.00151469,-0.00392
 310,-0.01117693,-0.01325333,0.00093073,0.00025832,-0.00110941,0.000681
 18,-0.16011738,-0.13393401,-0.00263055,0.00002530,0.00004070,-0.000114
 81,0.00003670,-0.00006034,0.00002384,0.00000232,0.00000906,0.00003168,
 0.00005946,0.00009530,0.00003131,0.00001235,0.00000586,-0.00001607,0.0
 0000226,-0.00001414,-0.00001674,-0.00000096,0.00000607,-0.00001281,-0.
 00000057,-0.00000376,-0.00000527,0.00005604,-0.00005278,0.00001821,0.0
 0004888,-0.00006830,0.00004353,0.00036174,0.00036753,0.00006202,-0.000
 51638,-0.00120251,-0.00028398,0.00097840,0.00039932,0.00007441,-0.0000
 3242,-0.00001696,-0.00005160,-0.00005186,0.00089246,-0.00026083,0.0003
 2530,0.00026986,0.00001946,-0.01130536,-0.01408442,-0.00112900,0.17073
 637,-0.00002675,0.00606345,-0.00001114,-0.02288030,-0.02650106,-0.0003
 3147,0.00519732,-0.00329804,0.00030520,-0.00172239,-0.00073952,-0.0003
 8785,0.00060276,-0.00036445,0.00014921,-0.00006287,-0.00002682,-0.0001
 9252,0.00032458,0.00025368,0.00044295,0.00085850,0.00081725,0.00034693
 ,0.00207444,0.00184433,-0.00089892,0.00048959,0.00087854,0.00011348,-0
 .12908193,-0.20492291,-0.00508811,0.00012664,0.00043414,0.00013852,0.0
 0007521,-0.00006074,-0.00007036,-0.00001955,0.00001726,-0.00002968,-0.
 00010135,-0.00024344,-0.00005308,-0.00002858,0.00003199,0.00001902,0.0
 0001682,0.00003665,0.00007328,0.00000080,0.00001597,0.00002018,0.00004
 994,-0.00002930,0.00006349,-0.00003048,-0.00000382,-0.00012640,-0.0000
 5515,-0.00002326,-0.00008756,-0.00002641,-0.00004098,0.00006718,0.0000
 3893,0.00026181,0.00013274,-0.00003480,0.00014850,-0.00042200,0.000040
 76,-0.00001480,-0.00000811,-0.00023136,0.00027800,0.00002170,-0.000023
 09,0.00012543,-0.00010975,0.00231603,0.00259089,0.00074042,0.14211270,
 0.22247127,0.00002219,0.00007222,-0.00127891,0.00097540,0.00025995,-0.
 00048080,-0.00005809,0.00079457,0.00115155,0.00004711,0.00004543,0.000
 40844,-0.00006592,0.00002450,-0.00005159,0.00004939,-0.00000874,0.0000
 0194,-0.00011197,0.00067646,-0.00012681,-0.00255319,0.00160016,-0.0047
 8905,-0.01804295,-0.02209534,-0.00050196,0.00071951,-0.00095402,0.0008
 2319,-0.00253339,-0.00522370,-0.05049688,-0.00048410,-0.00028254,0.000
 21739,-0.00004984,0.00005187,0.00000231,0.00000048,0.00000869,0.000023
 98,0.00002502,0.00002685,0.00000878,0.00001104,0.00000315,-0.00000633,
 0.00000064,-0.00000248,0.00001066,0.00000065,-0.00001071,-0.00000024,-
 0.00000576,0.00000275,0.00000910,0.00005193,-0.00003727,-0.00000518,0.
 00012157,-0.00004746,0.00009888,-0.00030583,-0.00005301,0.00018881,-0.
 00113858,-0.00144757,-0.00004402,0.00086470,-0.00031876,0.00108077,-0.
 00000668,0.00017176,-0.00002931,0.00002489,0.00062397,0.00014988,0.000
 34035,-0.00004755,-0.00004510,0.01598720,0.02098414,0.00147641,0.00611
 422,0.00518266,0.05220411\\0.00006827,0.00001671,0.00000793,-0.0000366
 8,-0.00001495,-0.00000176,-0.00001593,0.00000354,-0.00001299,0.0000070
 7,-0.00000546,-0.00000566,0.00001055,-0.00000315,-0.00000103,-0.000004
 28,0.00001222,0.00000016,0.00001838,-0.00001521,0.00002071,-0.00000103
 ,0.00001333,0.00000996,0.00000914,-0.00001097,0.00000011,0.00000700,0.
 00000023,-0.00000132,-0.00001749,0.00001367,-0.00004277,-0.00001230,0.
 00000191,0.00001443,0.00000024,-0.00000321,0.00000490,-0.00000560,0.00
 000530,-0.00000353,0.00000130,0.00000114,-0.00000306,-0.00000127,0.000
 00543,-0.00000096,-0.00000520,-0.00000612,0.00000078,-0.00001049,-0.00
 000480,-0.00000130,-0.00000340,-0.00000149,-0.00000381,-0.00000934,0.0
 0000353,-0.00000693,0.00001433,-0.00000287,0.00000729,-0.00000778,-0.0
 0000055,0.00000642,0.00000193,0.00000135,0.00000335,-0.00000325,0.0000
 0187,-0.00000635,0.00000360,-0.00000060,-0.00000030,-0.00000258,-0.000
 00554,-0.00000047,-0.00000054,-0.00000467,0.00000125,0.00000197,-0.000
 00279,0.00001040,-0.00000663,0.00000216,0.00000453\\\@


 WE ARE REACHING THE STAGE WHERE THE PROBLEMS WE MUST SOLVE ARE 
 GOING TO BECOME INSOLUBLE WITHOUT COMPUTERS.
 I DO NOT FEAR COMPUTERS.  I FEAR THE LACK OF THEM.

                                   -- ISSAC ASIMOV
 Job cpu time:       0 days  0 hours  2 minutes 41.3 seconds.
 Elapsed time:       0 days  0 hours  2 minutes 43.3 seconds.
 File lengths (MBytes):  RWF=    140 Int=      0 D2E=      0 Chk=      5 Scr=      1
 Normal termination of Gaussian 16 at Thu Feb 22 10:40:32 2024.
