 Entering Gaussian System, Link 0=g16
 Input=/Volumes/SSD-PMU3/b3lyp_6-31gd_freq/NFLGAXVYCFJBMK-BDAKNGLRSA-N_calculating/gaussianinput1.gjf
 Output=/Volumes/SSD-PMU3/b3lyp_6-31gd_freq/NFLGAXVYCFJBMK-BDAKNGLRSA-N_calculating/gaussianinput1.log
 Initial command:
 /Applications/g16/l1.exe "/Users/macmini_m1_2022/PycharmProjects/sphere_model/sphere_model_lib/Gau-60765.inp" -scrdir="/Users/macmini_m1_2022/PycharmProjects/sphere_model/sphere_model_lib/"
 Entering Link 1 = /Applications/g16/l1.exe PID=     60766.
  
 Copyright (c) 1988,1990,1992,1993,1995,1998,2003,2009,2016,
            Gaussian, Inc.  All Rights Reserved.
  
 This is part of the Gaussian(R) 16 program.  It is based on
 the Gaussian(R) 09 system (copyright 2009, Gaussian, Inc.),
 the Gaussian(R) 03 system (copyright 2003, Gaussian, Inc.),
 the Gaussian(R) 98 system (copyright 1998, Gaussian, Inc.),
 the Gaussian(R) 94 system (copyright 1995, Gaussian, Inc.),
 the Gaussian 92(TM) system (copyright 1992, Gaussian, Inc.),
 the Gaussian 90(TM) system (copyright 1990, Gaussian, Inc.),
 the Gaussian 88(TM) system (copyright 1988, Gaussian, Inc.),
 the Gaussian 86(TM) system (copyright 1986, Carnegie Mellon
 University), and the Gaussian 82(TM) system (copyright 1983,
 Carnegie Mellon University). Gaussian is a federally registered
 trademark of Gaussian, Inc.
  
 This software contains proprietary and confidential information,
 including trade secrets, belonging to Gaussian, Inc.
  
 This software is provided under written license and may be
 used, copied, transmitted, or stored only in accord with that
 written license.
  
 The following legend is applicable only to US Government
 contracts under FAR:
  
                    RESTRICTED RIGHTS LEGEND
  
 Use, reproduction and disclosure by the US Government is
 subject to restrictions as set forth in subparagraphs (a)
 and (c) of the Commercial Computer Software - Restricted
 Rights clause in FAR 52.227-19.
  
 Gaussian, Inc.
 340 Quinnipiac St., Bldg. 40, Wallingford CT 06492
  
  
 ---------------------------------------------------------------
 Warning -- This program may not be used in any manner that
 competes with the business of Gaussian, Inc. or will provide
 assistance to any competitor of Gaussian, Inc.  The licensee
 of this program is prohibited from giving any competitor of
 Gaussian, Inc. access to this program.  By using this program,
 the user acknowledges that Gaussian, Inc. is engaged in the
 business of creating and licensing software in the field of
 computational chemistry and represents and warrants to the
 licensee that it is not a competitor of Gaussian, Inc. and that
 it will not use this program in any manner prohibited above.
 ---------------------------------------------------------------
  

 Cite this work as:
 Gaussian 16, Revision A.03,
 M. J. Frisch, G. W. Trucks, H. B. Schlegel, G. E. Scuseria, 
 M. A. Robb, J. R. Cheeseman, G. Scalmani, V. Barone, 
 G. A. Petersson, H. Nakatsuji, X. Li, M. Caricato, A. V. Marenich, 
 J. Bloino, B. G. Janesko, R. Gomperts, B. Mennucci, H. P. Hratchian, 
 J. V. Ortiz, A. F. Izmaylov, J. L. Sonnenberg, D. Williams-Young, 
 F. Ding, F. Lipparini, F. Egidi, J. Goings, B. Peng, A. Petrone, 
 T. Henderson, D. Ranasinghe, V. G. Zakrzewski, J. Gao, N. Rega, 
 G. Zheng, W. Liang, M. Hada, M. Ehara, K. Toyota, R. Fukuda, 
 J. Hasegawa, M. Ishida, T. Nakajima, Y. Honda, O. Kitao, H. Nakai, 
 T. Vreven, K. Throssell, J. A. Montgomery, Jr., J. E. Peralta, 
 F. Ogliaro, M. J. Bearpark, J. J. Heyd, E. N. Brothers, K. N. Kudin, 
 V. N. Staroverov, T. A. Keith, R. Kobayashi, J. Normand, 
 K. Raghavachari, A. P. Rendell, J. C. Burant, S. S. Iyengar, 
 J. Tomasi, M. Cossi, J. M. Millam, M. Klene, C. Adamo, R. Cammi, 
 J. W. Ochterski, R. L. Martin, K. Morokuma, O. Farkas, 
 J. B. Foresman, and D. J. Fox, Gaussian, Inc., Wallingford CT, 2016.
 
 ******************************************
 Gaussian 16:  EM64M-G16RevA.03 25-Dec-2016
                22-Feb-2024 
 ******************************************
 %nprocshared=8
 Will use up to    8 processors via shared memory.
 %mem=8GB
 %chk= 1.chk
 ---------------------
 # freq b3lyp/6-31g(d)
 ---------------------
 1/10=4,30=1,38=1/1,3;
 2/12=2,17=6,18=5,40=1/2;
 3/5=1,6=6,7=1,11=2,25=1,30=1,71=2,74=-5,140=1/1,2,3;
 4//1;
 5/5=2,38=5,98=1/2;
 8/6=4,10=90,11=11/1;
 11/6=1,8=1,9=11,15=111,16=1/1,2,10;
 10/6=1/2;
 6/7=2,8=2,9=2,10=2,28=1/1;
 7/8=1,10=1,25=1/1,2,3,16;
 1/10=4,30=1/3;
 99//99;
 ---------
 good luck
 ---------
 Symbolic Z-matrix:
 Charge =  0 Multiplicity = 1
 O                     1.21806   0.        0. 
 C                     0.        0.        0. 
 C                    -0.83596  -1.28521   0.01437 
 C                     0.03087  -2.56733  -0.00657 
 C                     0.68511  -2.84421  -1.36999 
 C                    -0.76127  -3.79071   0.48059 
 C                    -1.93346  -1.20391  -1.07606 
 C                    -2.77253   0.07673  -0.96485 
 C                    -1.90452   1.34173  -1.06009 
 C                    -2.73342   2.62654  -0.95498 
 C                    -0.79532   1.30105   0.01437 
 H                    -1.3643   -1.25912   0.98416 
 H                     0.84448  -2.3881    0.70736 
 H                     1.36434  -3.70163  -1.2945 
 H                    -0.05905  -3.08706  -2.13869 
 H                     1.27043  -1.98497  -1.7101 
 H                    -1.19522  -3.62169   1.47397 
 H                    -0.10952  -4.66955   0.54814 
 H                    -1.58056  -4.04654  -0.20282 
 H                    -1.46648  -1.23923  -2.069 
 H                    -2.58235  -2.08486  -1.0063 
 H                    -3.31601   0.08244  -0.00734 
 H                    -3.53498   0.09084  -1.75466 
 H                    -1.41217   1.33351  -2.04498 
 H                    -3.49298   2.67216  -1.7444 
 H                    -2.10112   3.51747  -1.04518 
 H                    -3.25141   2.68119   0.01125 
 H                    -0.09186   2.13255  -0.09523 
 H                    -1.26597   1.39463   1.0064 
 

 GradGradGradGradGradGradGradGradGradGradGradGradGradGradGradGradGradGrad
 Berny optimization.
 Initialization pass.
 Trust Radius=3.00D-01 FncErr=1.00D-07 GrdErr=1.00D-07 EigMax=2.50D+02 EigMin=1.00D-04
 Number of steps in this run=      2 maximum allowed number of steps=      2.
 GradGradGradGradGradGradGradGradGradGradGradGradGradGradGradGradGradGrad

                          Input orientation:                          
 ---------------------------------------------------------------------
 Center     Atomic      Atomic             Coordinates (Angstroms)
 Number     Number       Type             X           Y           Z
 ---------------------------------------------------------------------
      1          8           0        1.218056    0.000000    0.000000
      2          6           0        0.000000    0.000000    0.000000
      3          6           0       -0.835963   -1.285207    0.014367
      4          6           0        0.030870   -2.567327   -0.006565
      5          6           0        0.685111   -2.844208   -1.369989
      6          6           0       -0.761272   -3.790714    0.480589
      7          6           0       -1.933462   -1.203909   -1.076064
      8          6           0       -2.772529    0.076731   -0.964853
      9          6           0       -1.904520    1.341727   -1.060088
     10          6           0       -2.733422    2.626536   -0.954984
     11          6           0       -0.795323    1.301048    0.014367
     12          1           0       -1.364300   -1.259119    0.984156
     13          1           0        0.844482   -2.388100    0.707363
     14          1           0        1.364343   -3.701627   -1.294499
     15          1           0       -0.059053   -3.087065   -2.138686
     16          1           0        1.270428   -1.984969   -1.710099
     17          1           0       -1.195219   -3.621690    1.473973
     18          1           0       -0.109518   -4.669549    0.548143
     19          1           0       -1.580564   -4.046537   -0.202820
     20          1           0       -1.466484   -1.239233   -2.069002
     21          1           0       -2.582353   -2.084863   -1.006300
     22          1           0       -3.316012    0.082437   -0.007342
     23          1           0       -3.534977    0.090836   -1.754663
     24          1           0       -1.412174    1.333513   -2.044980
     25          1           0       -3.492977    2.672159   -1.744404
     26          1           0       -2.101119    3.517471   -1.045184
     27          1           0       -3.251407    2.681194    0.011249
     28          1           0       -0.091860    2.132553   -0.095234
     29          1           0       -1.265968    1.394630    1.006399
 ---------------------------------------------------------------------
                    Distance matrix (angstroms):
                    1          2          3          4          5
     1  O    0.000000
     2  C    1.218056   0.000000
     3  C    2.423006   1.533231   0.000000
     4  C    2.828537   2.567521   1.547795   0.000000
     5  C    3.201628   3.230444   2.580812   1.537407   0.000000
     6  C    4.303280   3.896154   2.549609   1.536712   2.532299
     7  C    3.541098   2.519045   1.549243   2.619415   3.103852
     8  C    4.106288   2.936622   2.562037   3.970945   4.544370
     9  C    3.560126   2.559534   3.032664   4.487354   4.931965
    10  C    4.839924   3.909256   4.454405   5.959616   6.464336
    11  C    2.397212   1.524950   2.586574   3.955674   4.614247
    12  H    3.036858   2.101252   1.104677   2.153935   3.500656
    13  H    2.518520   2.629930   2.126150   1.097169   2.132797
    14  H    3.924178   4.152012   3.520449   2.173375   1.096459
    15  H    3.966731   3.755987   2.913060   2.196396   1.097112
    16  H    2.620550   2.911791   2.810753   2.185789   1.093875
    17  H    4.594903   4.088739   2.778249   2.192480   3.496890
    18  H    4.885448   4.702887   3.502343   2.178703   2.764514
    19  H    4.924213   4.348998   2.868195   2.196201   2.818007
    20  H    3.608770   2.822595   2.177176   2.873943   2.773793
    21  H    4.449989   3.468118   2.175107   2.839221   3.374196
    22  H    4.534823   3.317045   2.832237   4.268825   5.141113
    23  H    5.067388   3.947551   3.508224   4.778801   5.154765
    24  H    3.588636   2.820361   3.380921   4.631853   4.723089
    25  H    5.690098   4.731201   5.080723   6.549030   6.930145
    26  H    4.947922   4.228441   5.078286   6.530610   6.952664
    27  H    5.212008   4.214330   4.643998   6.190366   6.923443
    28  H    2.504542   2.136654   3.499541   4.702318   5.195848
    29  H    3.021292   2.135534   2.889733   4.290104   5.236571
                    6          7          8          9         10
     6  C    0.000000
     7  C    3.238635   0.000000
     8  C    4.592558   1.535070   0.000000
     9  C    5.479293   2.545851   1.537116   0.000000
    10  C    6.865227   3.914959   2.550124   1.532599   0.000000
    11  C    5.113175   2.959596   2.523325   1.544806   2.540234
    12  H    2.650697   2.138107   2.750680   3.351891   4.553359
    13  H    2.144108   3.507120   4.685559   4.959083   6.380546
    14  H    2.770760   4.142684   5.612340   6.014635   7.546694
    15  H    2.801577   2.861617   4.330178   4.917654   6.418616
    16  H    3.491079   3.358119   4.599076   4.644321   6.153616
    17  H    1.097128   3.590732   4.702563   5.617836   6.877952
    18  H    1.096220   4.239750   5.648713   6.476409   7.897919
    19  H    1.097148   2.994599   4.359222   5.465642   6.813570
    20  H    3.675295   1.097835   2.157930   2.805555   4.217859
    21  H    2.904669   1.096361   2.170339   3.493404   4.714100
    22  H    4.665412   2.169861   1.101015   2.164808   2.776666
    23  H    5.268417   2.168343   1.097873   2.169229   2.777004
    24  H    5.749772   2.765692   2.144001   1.101129   2.146089
    25  H    7.360811   4.231155   2.804103   2.182094   1.096444
    26  H    7.585034   4.724457   3.506556   2.184659   1.096225
    27  H    6.950298   4.244202   2.822291   2.180835   1.097680
    28  H    5.988721   3.935163   3.488356   2.200474   2.821531
    29  H    5.236314   3.396263   2.809345   2.163542   2.741904
                   11         12         13         14         15
    11  C    0.000000
    12  H    2.796190   0.000000
    13  H    4.096220   2.495983   0.000000
    14  H    5.603931   4.313190   2.450114   0.000000
    15  H    4.943002   3.846713   3.066745   1.765331   0.000000
    16  H    4.247237   3.837663   2.487583   1.768745   1.779276
    17  H    5.150118   2.418729   2.503960   3.771231   3.824657
    18  H    6.033513   3.660002   2.477998   2.550386   3.118630
    19  H    5.409292   3.037331   3.075662   3.159621   2.642567
    20  H    3.353194   3.054932   3.790602   3.831034   2.323833
    21  H    3.962276   2.475363   3.843409   4.274739   2.941726
    22  H    2.799885   2.567493   4.891223   6.154806   5.019577
    23  H    3.478474   3.746378   5.602353   6.212718   4.725312
    24  H    2.149993   3.987442   5.149591   5.798698   4.623984
    25  H    3.500080   5.237485   7.101474   8.026277   6.716841
    26  H    2.782136   5.241845   6.828159   8.011677   6.998977
    27  H    2.817297   4.475912   6.554283   7.984393   6.934418
    28  H    1.094657   3.779898   4.685851   6.131592   5.605460
    29  H    1.101994   2.655663   4.341943   6.179361   5.606585
                   16         17         18         19         20
    16  H    0.000000
    17  H    4.347020   0.000000
    18  H    3.769732   1.770287   0.000000
    19  H    3.827546   1.772180   1.765238   0.000000
    20  H    2.859304   4.278126   4.523038   3.372922   0.000000
    21  H    3.917810   3.230748   3.900232   2.344638   1.757723
    22  H    5.311213   4.518032   5.759474   4.483126   3.068877
    23  H    5.234775   5.448065   6.300631   4.831749   2.479225
    24  H    4.280283   6.081458   6.667680   5.689187   2.573431
    25  H    6.661835   7.433046   8.402633   7.153648   4.417129
    26  H    6.487394   7.624594   8.575107   7.628550   4.906852
    27  H    6.721838   6.789243   8.012062   6.935410   4.783633
    28  H    4.627916   6.065569   6.832484   6.356805   4.141774
    29  H    5.023381   5.038561   6.190448   5.582784   4.054076
                   21         22         23         24         25
    21  H    0.000000
    22  H    2.496670   0.000000
    23  H    2.490222   1.761007   0.000000
    24  H    3.759451   3.056429   2.476857   0.000000
    25  H    4.899315   3.123357   2.581685   2.492400   0.000000
    26  H    5.623099   3.788475   3.781684   2.498782   1.772210
    27  H    4.919181   2.599626   3.147827   3.070358   1.772218
    28  H    4.981887   3.821761   4.333286   2.486605   3.818185
    29  H    4.229740   2.636703   3.804175   3.055491   3.762787
                   26         27         28         29
    26  H    0.000000
    27  H    1.771602   0.000000
    28  H    2.618688   3.208595   0.000000
    29  H    3.068049   2.566620   1.771060   0.000000
 Stoichiometry    C10H18O
 Framework group  C1[X(C10H18O)]
 Deg. of freedom    81
 Full point group                 C1      NOp   1
 Largest Abelian subgroup         C1      NOp   1
 Largest concise Abelian subgroup C1      NOp   1
                         Standard orientation:                         
 ---------------------------------------------------------------------
 Center     Atomic      Atomic             Coordinates (Angstroms)
 Number     Number       Type             X           Y           Z
 ---------------------------------------------------------------------
      1          8           0       -0.387603    2.243994   -0.013923
      2          6           0        0.116842    1.165180   -0.269571
      3          6           0       -0.700510   -0.121147   -0.437191
      4          6           0       -2.216572    0.095535   -0.212969
      5          6           0       -2.595173    0.307683    1.261912
      6          6           0       -3.045657   -1.039206   -0.834631
      7          6           0       -0.058361   -1.257729    0.397062
      8          6           0        1.435415   -1.433955    0.090438
      9          6           0        2.229685   -0.142648    0.344182
     10          6           0        3.723660   -0.309207    0.045591
     11          6           0        1.621090    1.018713   -0.472689
     12          1           0       -0.559614   -0.400752   -1.496568
     13          1           0       -2.466187    1.023086   -0.743179
     14          1           0       -3.659629    0.557098    1.345269
     15          1           0       -2.426119   -0.595525    1.861321
     16          1           0       -2.025077    1.130685    1.702616
     17          1           0       -2.817082   -1.169893   -1.899697
     18          1           0       -4.117266   -0.824719   -0.748918
     19          1           0       -2.866140   -1.998904   -0.334144
     20          1           0       -0.179774   -1.040641    1.466348
     21          1           0       -0.593469   -2.195704    0.207668
     22          1           0        1.565440   -1.737918   -0.959769
     23          1           0        1.846589   -2.247538    0.702275
     24          1           0        2.121436    0.109950    1.410466
     25          1           0        4.162093   -1.106704    0.657117
     26          1           0        4.276801    0.614601    0.251311
     27          1           0        3.886473   -0.568099   -1.008624
     28          1           0        2.093056    1.976636   -0.232056
     29          1           0        1.796792    0.823077   -1.542851
 ---------------------------------------------------------------------
 Rotational constants (GHZ):           1.9398863           0.6855687           0.5787898
 Standard basis: 6-31G(d) (6D, 7F)
 There are   201 symmetry adapted cartesian basis functions of A   symmetry.
 There are   201 symmetry adapted basis functions of A   symmetry.
   201 basis functions,   380 primitive gaussians,   201 cartesian basis functions
    43 alpha electrons       43 beta electrons
       nuclear repulsion energy       659.1077537164 Hartrees.
 NAtoms=   29 NActive=   29 NUniq=   29 SFac= 1.00D+00 NAtFMM=   60 NAOKFM=F Big=F
 Integral buffers will be    131072 words long.
 Raffenetti 2 integral format.
 Two-electron integral symmetry is turned on.
 One-electron integrals computed using PRISM.
 NBasis=   201 RedAO= T EigKep=  2.52D-03  NBF=   201
 NBsUse=   201 1.00D-06 EigRej= -1.00D+00 NBFU=   201
 ExpMin= 1.61D-01 ExpMax= 5.48D+03 ExpMxC= 8.25D+02 IAcc=3 IRadAn=         5 AccDes= 0.00D+00
 Harris functional with IExCor=  402 and IRadAn=       5 diagonalized for initial guess.
 HarFok:  IExCor=  402 AccDes= 0.00D+00 IRadAn=         5 IDoV= 1 UseB2=F ITyADJ=14
 ICtDFT=  3500011 ScaDFX=  1.000000  1.000000  1.000000  1.000000
 FoFCou: FMM=F IPFlag=           0 FMFlag=      100000 FMFlg1=           0
         NFxFlg=           0 DoJE=T BraDBF=F KetDBF=T FulRan=T
         wScrn=  0.000000 ICntrl=       500 IOpCl=  0 I1Cent=   200000004 NGrid=           0
         NMat0=    1 NMatS0=      1 NMatT0=    0 NMatD0=    1 NMtDS0=    0 NMtDT0=    0
 Petite list used in FoFCou.
 Requested convergence on RMS density matrix=1.00D-08 within 128 cycles.
 Requested convergence on MAX density matrix=1.00D-06.
 Requested convergence on             energy=1.00D-06.
 No special actions if energy rises.
 Integral accuracy reduced to 1.0D-05 until final iterations.
 Initial convergence to 1.0D-05 achieved.  Increase integral accuracy.
 SCF Done:  E(RB3LYP) =  -467.146715337     A.U. after   13 cycles
            NFock= 13  Conv=0.58D-08     -V/T= 2.0099
 DoSCS=F DFT=T ScalE2(SS,OS)=  1.000000  1.000000
 Range of M.O.s used for correlation:     1   201
 NBasis=   201 NAE=    43 NBE=    43 NFC=     0 NFV=     0
 NROrb=    201 NOA=    43 NOB=    43 NVA=   158 NVB=   158
 Symmetrizing basis deriv contribution to polar:
 IMax=3 JMax=2 DiffMx= 0.00D+00
 G2DrvN: will do    30 centers at a time, making    1 passes.
 Calling FoFCou, ICntrl=  3107 FMM=F I1Cent=   0 AccDes= 0.00D+00.
 End of G2Drv F.D. properties file   721 does not exist.
 End of G2Drv F.D. properties file   722 does not exist.
 End of G2Drv F.D. properties file   788 does not exist.
          IDoAtm=11111111111111111111111111111
          Differentiating once with respect to electric field.
                with respect to dipole field.
          Differentiating once with respect to nuclear coordinates.
 Keep R1 ints in memory in canonical form, NReq=214321554.
          There are    90 degrees of freedom in the 1st order CPHF.  IDoFFX=6 NUNeed=     3.
     87 vectors produced by pass  0 Test12= 7.55D-15 1.11D-09 XBig12= 7.32D+01 1.83D+00.
 AX will form    87 AO Fock derivatives at one time.
     87 vectors produced by pass  1 Test12= 7.55D-15 1.11D-09 XBig12= 5.29D+00 4.45D-01.
     87 vectors produced by pass  2 Test12= 7.55D-15 1.11D-09 XBig12= 2.41D-02 1.59D-02.
     87 vectors produced by pass  3 Test12= 7.55D-15 1.11D-09 XBig12= 5.87D-05 1.01D-03.
     87 vectors produced by pass  4 Test12= 7.55D-15 1.11D-09 XBig12= 5.37D-08 3.61D-05.
     39 vectors produced by pass  5 Test12= 7.55D-15 1.11D-09 XBig12= 3.25D-11 7.05D-07.
      3 vectors produced by pass  6 Test12= 7.55D-15 1.11D-09 XBig12= 1.89D-14 1.29D-08.
 InvSVY:  IOpt=1 It=  1 EMax= 1.07D-14
 Solved reduced A of dimension   477 with    90 vectors.
 Isotropic polarizability for W=    0.000000      104.16 Bohr**3.
 End of Minotr F.D. properties file   721 does not exist.
 End of Minotr F.D. properties file   722 does not exist.
 End of Minotr F.D. properties file   788 does not exist.

 **********************************************************************

            Population analysis using the SCF density.

 **********************************************************************

 Orbital symmetries:
       Occupied  (A) (A) (A) (A) (A) (A) (A) (A) (A) (A) (A) (A)
                 (A) (A) (A) (A) (A) (A) (A) (A) (A) (A) (A) (A)
                 (A) (A) (A) (A) (A) (A) (A) (A) (A) (A) (A) (A)
                 (A) (A) (A) (A) (A) (A) (A)
       Virtual   (A) (A) (A) (A) (A) (A) (A) (A) (A) (A) (A) (A)
                 (A) (A) (A) (A) (A) (A) (A) (A) (A) (A) (A) (A)
                 (A) (A) (A) (A) (A) (A) (A) (A) (A) (A) (A) (A)
                 (A) (A) (A) (A) (A) (A) (A) (A) (A) (A) (A) (A)
                 (A) (A) (A) (A) (A) (A) (A) (A) (A) (A) (A) (A)
                 (A) (A) (A) (A) (A) (A) (A) (A) (A) (A) (A) (A)
                 (A) (A) (A) (A) (A) (A) (A) (A) (A) (A) (A) (A)
                 (A) (A) (A) (A) (A) (A) (A) (A) (A) (A) (A) (A)
                 (A) (A) (A) (A) (A) (A) (A) (A) (A) (A) (A) (A)
                 (A) (A) (A) (A) (A) (A) (A) (A) (A) (A) (A) (A)
                 (A) (A) (A) (A) (A) (A) (A) (A) (A) (A) (A) (A)
                 (A) (A) (A) (A) (A) (A) (A) (A) (A) (A) (A) (A)
                 (A) (A) (A) (A) (A) (A) (A) (A) (A) (A) (A) (A)
                 (A) (A)
 The electronic state is 1-A.
 Alpha  occ. eigenvalues --  -19.13368 -10.26701 -10.19935 -10.19303 -10.19002
 Alpha  occ. eigenvalues --  -10.18798 -10.18782 -10.18447 -10.18060 -10.17164
 Alpha  occ. eigenvalues --  -10.16452  -1.03219  -0.83986  -0.80113  -0.74822
 Alpha  occ. eigenvalues --   -0.72541  -0.68194  -0.67663  -0.61963  -0.57808
 Alpha  occ. eigenvalues --   -0.56339  -0.51935  -0.47581  -0.46196  -0.45545
 Alpha  occ. eigenvalues --   -0.44136  -0.43832  -0.42271  -0.40989  -0.40381
 Alpha  occ. eigenvalues --   -0.39383  -0.38471  -0.37595  -0.37117  -0.36028
 Alpha  occ. eigenvalues --   -0.34910  -0.34427  -0.32940  -0.32539  -0.32092
 Alpha  occ. eigenvalues --   -0.31255  -0.30465  -0.23385
 Alpha virt. eigenvalues --   -0.01184   0.08485   0.08913   0.10037   0.12314
 Alpha virt. eigenvalues --    0.13475   0.13951   0.14453   0.14936   0.15509
 Alpha virt. eigenvalues --    0.16497   0.16867   0.17752   0.17817   0.18431
 Alpha virt. eigenvalues --    0.19320   0.19771   0.20340   0.20919   0.21300
 Alpha virt. eigenvalues --    0.22136   0.23748   0.25694   0.26299   0.26888
 Alpha virt. eigenvalues --    0.27955   0.28178   0.29488   0.34256   0.37619
 Alpha virt. eigenvalues --    0.48596   0.50024   0.51499   0.52822   0.53502
 Alpha virt. eigenvalues --    0.53931   0.54408   0.56480   0.57463   0.61254
 Alpha virt. eigenvalues --    0.62218   0.63719   0.65649   0.67239   0.67943
 Alpha virt. eigenvalues --    0.68508   0.69645   0.71146   0.72369   0.73959
 Alpha virt. eigenvalues --    0.76184   0.77321   0.80014   0.81598   0.82693
 Alpha virt. eigenvalues --    0.83194   0.84509   0.86111   0.87066   0.87540
 Alpha virt. eigenvalues --    0.88815   0.89952   0.90618   0.91705   0.91884
 Alpha virt. eigenvalues --    0.92245   0.92453   0.93646   0.94205   0.94344
 Alpha virt. eigenvalues --    0.95657   0.96790   0.98021   0.98307   1.00918
 Alpha virt. eigenvalues --    1.01724   1.03498   1.08718   1.11644   1.12495
 Alpha virt. eigenvalues --    1.16250   1.17580   1.20683   1.24155   1.36373
 Alpha virt. eigenvalues --    1.39086   1.41772   1.44508   1.45741   1.48370
 Alpha virt. eigenvalues --    1.51612   1.55913   1.61649   1.64950   1.69843
 Alpha virt. eigenvalues --    1.71420   1.73278   1.74016   1.75528   1.77961
 Alpha virt. eigenvalues --    1.78197   1.80240   1.82719   1.84060   1.87091
 Alpha virt. eigenvalues --    1.89099   1.90816   1.92778   1.94554   1.97470
 Alpha virt. eigenvalues --    1.99266   2.00917   2.01244   2.01898   2.05651
 Alpha virt. eigenvalues --    2.06160   2.07982   2.09376   2.11783   2.13184
 Alpha virt. eigenvalues --    2.13730   2.16095   2.22792   2.22854   2.26596
 Alpha virt. eigenvalues --    2.27121   2.29607   2.34993   2.35854   2.40329
 Alpha virt. eigenvalues --    2.43058   2.43951   2.46883   2.50030   2.52109
 Alpha virt. eigenvalues --    2.56111   2.56896   2.61687   2.65350   2.67918
 Alpha virt. eigenvalues --    2.72761   2.73754   2.75678   2.81958   2.86777
 Alpha virt. eigenvalues --    2.99771   3.05190   4.01925   4.11173   4.19023
 Alpha virt. eigenvalues --    4.26076   4.28689   4.30851   4.36532   4.54851
 Alpha virt. eigenvalues --    4.57632   4.63008   4.67052
          Condensed to atoms (all electrons):
               1          2          3          4          5          6
     1  O    8.023568   0.567253  -0.091349   0.003145  -0.005337   0.000463
     2  C    0.567253   4.531186   0.294258  -0.025179  -0.004646   0.004169
     3  C   -0.091349   0.294258   5.295361   0.351947  -0.040162  -0.039489
     4  C    0.003145  -0.025179   0.351947   4.871670   0.379895   0.359154
     5  C   -0.005337  -0.004646  -0.040162   0.379895   5.119901  -0.055781
     6  C    0.000463   0.004169  -0.039489   0.359154  -0.055781   5.134561
     7  C    0.000888  -0.025766   0.348420  -0.036729  -0.008356  -0.004592
     8  C    0.000150  -0.011506  -0.035159   0.003810   0.000239   0.000034
     9  C    0.000685  -0.023049  -0.005075   0.000095  -0.000013  -0.000008
    10  C   -0.000047   0.002809   0.000036   0.000004  -0.000000   0.000000
    11  C   -0.072292   0.339034  -0.126081   0.005551  -0.000114  -0.000125
    12  H    0.001205  -0.037317   0.350716  -0.039450   0.005316  -0.005712
    13  H    0.010577  -0.004505  -0.050229   0.380031  -0.042374  -0.045302
    14  H    0.000073   0.000026   0.004920  -0.030157   0.370144  -0.003252
    15  H    0.000105   0.000057  -0.008110  -0.034207   0.369565  -0.005398
    16  H    0.008990   0.003627  -0.006345  -0.028573   0.369068   0.005156
    17  H    0.000006   0.000039  -0.004680  -0.030617   0.005232   0.368419
    18  H    0.000003  -0.000077   0.004423  -0.030097  -0.002916   0.371862
    19  H   -0.000008  -0.000049  -0.007015  -0.029490  -0.005364   0.367540
    20  H    0.000367  -0.004632  -0.040927  -0.005994   0.003688   0.000053
    21  H   -0.000068   0.003323  -0.033187  -0.003157  -0.000699   0.001943
    22  H   -0.000009  -0.001476  -0.004797  -0.000016   0.000002  -0.000007
    23  H    0.000002   0.000282   0.004120  -0.000128   0.000004  -0.000000
    24  H    0.000416  -0.001486  -0.000327  -0.000034  -0.000006  -0.000000
    25  H    0.000001  -0.000092   0.000013  -0.000000   0.000000  -0.000000
    26  H   -0.000000   0.000037  -0.000007  -0.000000  -0.000000   0.000000
    27  H   -0.000000   0.000011  -0.000010  -0.000000  -0.000000   0.000000
    28  H    0.005380  -0.022142   0.006495  -0.000138   0.000006   0.000002
    29  H    0.001120  -0.028873   0.002405  -0.000079  -0.000002  -0.000003
               7          8          9         10         11         12
     1  O    0.000888   0.000150   0.000685  -0.000047  -0.072292   0.001205
     2  C   -0.025766  -0.011506  -0.023049   0.002809   0.339034  -0.037317
     3  C    0.348420  -0.035159  -0.005075   0.000036  -0.126081   0.350716
     4  C   -0.036729   0.003810   0.000095   0.000004   0.005551  -0.039450
     5  C   -0.008356   0.000239  -0.000013  -0.000000  -0.000114   0.005316
     6  C   -0.004592   0.000034  -0.000008   0.000000  -0.000125  -0.005712
     7  C    5.055262   0.360499  -0.036627   0.004346  -0.005503  -0.046484
     8  C    0.360499   5.048550   0.386029  -0.044325  -0.049331  -0.001911
     9  C   -0.036627   0.386029   4.891503   0.371438   0.350605  -0.002149
    10  C    0.004346  -0.044325   0.371438   5.107829  -0.043206  -0.000029
    11  C   -0.005503  -0.049331   0.350605  -0.043206   5.311481   0.002303
    12  H   -0.046484  -0.001911  -0.002149  -0.000029   0.002303   0.625680
    13  H    0.005161  -0.000141  -0.000014   0.000000   0.000615  -0.001600
    14  H    0.000152  -0.000003   0.000000   0.000000   0.000003  -0.000137
    15  H    0.003103  -0.000020  -0.000000   0.000000   0.000014  -0.000031
    16  H   -0.000704  -0.000025  -0.000025   0.000000   0.000112   0.000082
    17  H   -0.000149  -0.000017  -0.000000  -0.000000   0.000001   0.005828
    18  H    0.000040   0.000001   0.000000  -0.000000   0.000002   0.000028
    19  H    0.001605  -0.000090   0.000000  -0.000000   0.000000  -0.000187
    20  H    0.372908  -0.038165  -0.006487   0.000029   0.000045   0.006294
    21  H    0.368080  -0.029579   0.004448  -0.000162  -0.000286  -0.006532
    22  H   -0.039952   0.367404  -0.042616  -0.004477  -0.005336   0.005655
    23  H   -0.030314   0.363232  -0.033000  -0.003628   0.005296   0.000004
    24  H   -0.003606  -0.049085   0.379090  -0.045160  -0.051261   0.000128
    25  H    0.000020  -0.003957  -0.028302   0.368650   0.004553  -0.000000
    26  H   -0.000158   0.004751  -0.028013   0.369166  -0.003266   0.000001
    27  H    0.000066  -0.006350  -0.033435   0.372413  -0.006192  -0.000008
    28  H   -0.000200   0.004803  -0.026276  -0.003729   0.339096  -0.000114
    29  H   -0.000778  -0.005422  -0.036337  -0.007124   0.344710   0.001583
              13         14         15         16         17         18
     1  O    0.010577   0.000073   0.000105   0.008990   0.000006   0.000003
     2  C   -0.004505   0.000026   0.000057   0.003627   0.000039  -0.000077
     3  C   -0.050229   0.004920  -0.008110  -0.006345  -0.004680   0.004423
     4  C    0.380031  -0.030157  -0.034207  -0.028573  -0.030617  -0.030097
     5  C   -0.042374   0.370144   0.369565   0.369068   0.005232  -0.002916
     6  C   -0.045302  -0.003252  -0.005398   0.005156   0.368419   0.371862
     7  C    0.005161   0.000152   0.003103  -0.000704  -0.000149   0.000040
     8  C   -0.000141  -0.000003  -0.000020  -0.000025  -0.000017   0.000001
     9  C   -0.000014   0.000000  -0.000000  -0.000025  -0.000000   0.000000
    10  C    0.000000   0.000000   0.000000   0.000000  -0.000000  -0.000000
    11  C    0.000615   0.000003   0.000014   0.000112   0.000001   0.000002
    12  H   -0.001600  -0.000137  -0.000031   0.000082   0.005828   0.000028
    13  H    0.607151  -0.004298   0.005611  -0.003092  -0.002967  -0.003705
    14  H   -0.004298   0.578629  -0.032547  -0.026895  -0.000035   0.003982
    15  H    0.005611  -0.032547   0.592239  -0.031068  -0.000014  -0.000218
    16  H   -0.003092  -0.026895  -0.031068   0.544922  -0.000179  -0.000011
    17  H   -0.002967  -0.000035  -0.000014  -0.000179   0.584683  -0.029627
    18  H   -0.003705   0.003982  -0.000218  -0.000011  -0.029627   0.573593
    19  H    0.005287  -0.000260   0.004670  -0.000067  -0.032622  -0.031705
    20  H    0.000049  -0.000072   0.001783   0.000946   0.000014  -0.000012
    21  H   -0.000053  -0.000035   0.000321   0.000052   0.000112  -0.000129
    22  H   -0.000003   0.000000  -0.000001   0.000000  -0.000001  -0.000000
    23  H    0.000002  -0.000000   0.000006  -0.000001   0.000000  -0.000000
    24  H   -0.000002   0.000000  -0.000006   0.000012  -0.000000  -0.000000
    25  H   -0.000000  -0.000000  -0.000000  -0.000000   0.000000  -0.000000
    26  H    0.000000  -0.000000   0.000000   0.000000   0.000000  -0.000000
    27  H    0.000000   0.000000  -0.000000   0.000000  -0.000000  -0.000000
    28  H   -0.000014  -0.000000  -0.000000   0.000003   0.000000  -0.000000
    29  H   -0.000042   0.000000  -0.000000  -0.000000  -0.000002  -0.000000
              19         20         21         22         23         24
     1  O   -0.000008   0.000367  -0.000068  -0.000009   0.000002   0.000416
     2  C   -0.000049  -0.004632   0.003323  -0.001476   0.000282  -0.001486
     3  C   -0.007015  -0.040927  -0.033187  -0.004797   0.004120  -0.000327
     4  C   -0.029490  -0.005994  -0.003157  -0.000016  -0.000128  -0.000034
     5  C   -0.005364   0.003688  -0.000699   0.000002   0.000004  -0.000006
     6  C    0.367540   0.000053   0.001943  -0.000007  -0.000000  -0.000000
     7  C    0.001605   0.372908   0.368080  -0.039952  -0.030314  -0.003606
     8  C   -0.000090  -0.038165  -0.029579   0.367404   0.363232  -0.049085
     9  C    0.000000  -0.006487   0.004448  -0.042616  -0.033000   0.379090
    10  C   -0.000000   0.000029  -0.000162  -0.004477  -0.003628  -0.045160
    11  C    0.000000   0.000045  -0.000286  -0.005336   0.005296  -0.051261
    12  H   -0.000187   0.006294  -0.006532   0.005655   0.000004   0.000128
    13  H    0.005287   0.000049  -0.000053  -0.000003   0.000002  -0.000002
    14  H   -0.000260  -0.000072  -0.000035   0.000000  -0.000000   0.000000
    15  H    0.004670   0.001783   0.000321  -0.000001   0.000006  -0.000006
    16  H   -0.000067   0.000946   0.000052   0.000000  -0.000001   0.000012
    17  H   -0.032622   0.000014   0.000112  -0.000001   0.000000  -0.000000
    18  H   -0.031705  -0.000012  -0.000129  -0.000000  -0.000000  -0.000000
    19  H    0.584306   0.000066   0.004046   0.000003   0.000006   0.000000
    20  H    0.000066   0.594245  -0.037119   0.005724  -0.003533   0.005224
    21  H    0.004046  -0.037119   0.591413  -0.003865  -0.002446  -0.000010
    22  H    0.000003   0.005724  -0.003865   0.616035  -0.036609   0.006523
    23  H    0.000006  -0.003533  -0.002446  -0.036609   0.601538  -0.004642
    24  H    0.000000   0.005224  -0.000010   0.006523  -0.004642   0.630109
    25  H    0.000000  -0.000006   0.000002  -0.000221   0.004300  -0.002981
    26  H    0.000000   0.000001   0.000002  -0.000048  -0.000060  -0.003230
    27  H    0.000000   0.000006   0.000002   0.005068  -0.000283   0.005623
    28  H    0.000000  -0.000036   0.000018  -0.000047  -0.000154  -0.004024
    29  H    0.000001   0.000100  -0.000012   0.005061  -0.000041   0.006463
              25         26         27         28         29
     1  O    0.000001  -0.000000  -0.000000   0.005380   0.001120
     2  C   -0.000092   0.000037   0.000011  -0.022142  -0.028873
     3  C    0.000013  -0.000007  -0.000010   0.006495   0.002405
     4  C   -0.000000  -0.000000  -0.000000  -0.000138  -0.000079
     5  C    0.000000  -0.000000  -0.000000   0.000006  -0.000002
     6  C   -0.000000   0.000000   0.000000   0.000002  -0.000003
     7  C    0.000020  -0.000158   0.000066  -0.000200  -0.000778
     8  C   -0.003957   0.004751  -0.006350   0.004803  -0.005422
     9  C   -0.028302  -0.028013  -0.033435  -0.026276  -0.036337
    10  C    0.368650   0.369166   0.372413  -0.003729  -0.007124
    11  C    0.004553  -0.003266  -0.006192   0.339096   0.344710
    12  H   -0.000000   0.000001  -0.000008  -0.000114   0.001583
    13  H   -0.000000   0.000000   0.000000  -0.000014  -0.000042
    14  H   -0.000000  -0.000000   0.000000  -0.000000   0.000000
    15  H   -0.000000   0.000000  -0.000000  -0.000000  -0.000000
    16  H   -0.000000   0.000000   0.000000   0.000003  -0.000000
    17  H    0.000000   0.000000  -0.000000   0.000000  -0.000002
    18  H   -0.000000  -0.000000  -0.000000  -0.000000  -0.000000
    19  H    0.000000   0.000000   0.000000   0.000000   0.000001
    20  H   -0.000006   0.000001   0.000006  -0.000036   0.000100
    21  H    0.000002   0.000002   0.000002   0.000018  -0.000012
    22  H   -0.000221  -0.000048   0.005068  -0.000047   0.005061
    23  H    0.004300  -0.000060  -0.000283  -0.000154  -0.000041
    24  H   -0.002981  -0.003230   0.005623  -0.004024   0.006463
    25  H    0.573481  -0.029685  -0.030631  -0.000020   0.000034
    26  H   -0.029685   0.570890  -0.031163   0.003679  -0.000282
    27  H   -0.030631  -0.031163   0.578486  -0.000222   0.005528
    28  H   -0.000020   0.003679  -0.000222   0.565944  -0.027780
    29  H    0.000034  -0.000282   0.005528  -0.027780   0.591214
 Mulliken charges:
               1
     1  O   -0.455286
     2  C    0.444684
     3  C   -0.170164
     4  C   -0.061257
     5  C   -0.457288
     6  C   -0.453687
     7  C   -0.280630
     8  C   -0.264415
     9  C   -0.082471
    10  C   -0.444833
    11  C   -0.340426
    12  H    0.136839
    13  H    0.143858
    14  H    0.139764
    15  H    0.134146
    16  H    0.164015
    17  H    0.136578
    18  H    0.144564
    19  H    0.139327
    20  H    0.145441
    21  H    0.143578
    22  H    0.128005
    23  H    0.136045
    24  H    0.132271
    25  H    0.144839
    26  H    0.147385
    27  H    0.141091
    28  H    0.159470
    29  H    0.148559
 Sum of Mulliken charges =  -0.00000
 Mulliken charges with hydrogens summed into heavy atoms:
               1
     1  O   -0.455286
     2  C    0.444684
     3  C   -0.033325
     4  C    0.082601
     5  C   -0.019364
     6  C   -0.033218
     7  C    0.008388
     8  C   -0.000365
     9  C    0.049801
    10  C   -0.011518
    11  C   -0.032397
 APT charges:
               1
     1  O   -0.651314
     2  C    0.718632
     3  C   -0.060836
     4  C    0.138390
     5  C    0.039542
     6  C    0.066103
     7  C    0.102868
     8  C    0.103219
     9  C    0.143787
    10  C    0.084544
    11  C   -0.084604
    12  H   -0.041920
    13  H   -0.047076
    14  H   -0.031228
    15  H   -0.023607
    16  H    0.004749
    17  H   -0.032382
    18  H   -0.035338
    19  H   -0.021297
    20  H   -0.030085
    21  H   -0.044940
    22  H   -0.046996
    23  H   -0.056495
    24  H   -0.065396
    25  H   -0.033920
    26  H   -0.029198
    27  H   -0.025667
    28  H   -0.030005
    29  H   -0.009527
 Sum of APT charges =   0.00000
 APT charges with hydrogens summed into heavy atoms:
               1
     1  O   -0.651314
     2  C    0.718632
     3  C   -0.102756
     4  C    0.091314
     5  C   -0.010544
     6  C   -0.022914
     7  C    0.027843
     8  C   -0.000273
     9  C    0.078391
    10  C   -0.004242
    11  C   -0.124136
 Electronic spatial extent (au):  <R**2>=           2159.3773
 Charge=              0.0000 electrons
 Dipole moment (field-independent basis, Debye):
    X=              1.2612    Y=             -2.4223    Z=             -0.4404  Tot=              2.7663
 Quadrupole moment (field-independent basis, Debye-Ang):
   XX=            -67.8888   YY=            -76.5983   ZZ=            -68.2250
   XY=              1.7311   XZ=              0.3483   YZ=             -0.7060
 Traceless Quadrupole moment (field-independent basis, Debye-Ang):
   XX=              3.0152   YY=             -5.6943   ZZ=              2.6790
   XY=              1.7311   XZ=              0.3483   YZ=             -0.7060
 Octapole moment (field-independent basis, Debye-Ang**2):
  XXX=             -1.5833  YYY=            -10.8089  ZZZ=             -2.4525  XYY=              5.9664
  XXY=              6.3611  XXZ=              0.6929  XZZ=              2.0129  YZZ=              3.4914
  YYZ=              0.7163  XYZ=              0.1365
 Hexadecapole moment (field-independent basis, Debye-Ang**3):
 XXXX=          -2048.9477 YYYY=           -637.3118 ZZZZ=           -276.4262 XXXY=             -8.5986
 XXXZ=              4.6978 YYYX=              7.0582 YYYZ=             -4.2858 ZZZX=              1.6856
 ZZZY=             -0.4216 XXYY=           -440.2889 XXZZ=           -392.2969 YYZZ=           -143.2533
 XXYZ=             -3.4855 YYXZ=              1.2945 ZZXY=             -3.8071
 N-N= 6.591077537164D+02 E-N=-2.401084746975D+03  KE= 4.625877828486D+02
  Exact polarizability: 122.880  -1.598 100.951  -0.548   1.246  88.641
 Approx polarizability: 145.266  -6.834 153.615  -1.995   3.996 136.612
 Calling FoFJK, ICntrl=    100127 FMM=F ISym2X=0 I1Cent= 0 IOpClX= 0 NMat=1 NMatS=1 NMatT=0.
 Full mass-weighted force constant matrix:
 Low frequencies ---   -6.5920   -0.0010   -0.0008   -0.0002    3.3853    5.9232
 Low frequencies ---   58.6238   81.7524  106.5657
 Diagonal vibrational polarizability:
        7.0861957       3.7801622       9.4302464
 Harmonic frequencies (cm**-1), IR intensities (KM/Mole), Raman scattering
 activities (A**4/AMU), depolarization ratios for plane and unpolarized
 incident light, reduced masses (AMU), force constants (mDyne/A),
 and normal coordinates:
                      1                      2                      3
                      A                      A                      A
 Frequencies --     58.6209                81.7517               106.5656
 Red. masses --      3.1553                 2.5368                 3.5764
 Frc consts  --      0.0064                 0.0100                 0.0239
 IR Inten    --      0.2501                 0.3778                 2.1041
  Atom  AN      X      Y      Z        X      Y      Z        X      Y      Z
     1   8    -0.03   0.01  -0.15    -0.01  -0.00   0.11     0.08  -0.08   0.25
     2   6    -0.01  -0.00  -0.05    -0.00   0.01   0.07     0.01  -0.04  -0.05
     3   6    -0.01  -0.00  -0.06     0.01   0.02  -0.01    -0.02  -0.02  -0.07
     4   6     0.00   0.01   0.05    -0.00  -0.02  -0.07    -0.01   0.01  -0.02
     5   6     0.12   0.04   0.07    -0.05   0.20  -0.11     0.03   0.05  -0.02
     6   6    -0.06   0.00   0.14     0.06  -0.16   0.11    -0.05   0.00   0.04
     7   6     0.00  -0.08  -0.18    -0.00  -0.01  -0.05    -0.01  -0.02  -0.07
     8   6     0.02  -0.02  -0.14    -0.01  -0.01  -0.06     0.02   0.01   0.02
     9   6    -0.04  -0.02   0.05     0.01  -0.03  -0.01    -0.04   0.06  -0.04
    10   6    -0.00   0.04   0.20    -0.00  -0.03  -0.06    -0.00   0.09   0.15
    11   6     0.01   0.01   0.07     0.00   0.03   0.08    -0.02  -0.07  -0.25
    12   1    -0.08   0.08  -0.09     0.04   0.06  -0.02    -0.05  -0.02  -0.07
    13   1    -0.03  -0.00   0.05    -0.04  -0.11  -0.22    -0.01  -0.00  -0.04
    14   1     0.13   0.05   0.15    -0.08   0.09  -0.17     0.04   0.08  -0.00
    15   1     0.15   0.05   0.08     0.04   0.32   0.05     0.02   0.06  -0.00
    16   1     0.16   0.04   0.01    -0.15   0.34  -0.25     0.06   0.05  -0.05
    17   1    -0.12  -0.05   0.13     0.15  -0.39   0.15    -0.08  -0.04   0.04
    18   1    -0.05   0.03   0.19     0.05  -0.15  -0.03    -0.04   0.03   0.06
    19   1    -0.05   0.02   0.16     0.03  -0.05   0.33    -0.06   0.02   0.07
    20   1    -0.04  -0.22  -0.16    -0.01  -0.05  -0.04    -0.07  -0.04  -0.07
    21   1     0.03  -0.07  -0.31    -0.00  -0.01  -0.08     0.02  -0.03  -0.11
    22   1     0.07   0.11  -0.17    -0.02   0.04  -0.08     0.09  -0.07   0.05
    23   1     0.00  -0.08  -0.22    -0.01  -0.04  -0.10     0.00   0.07   0.11
    24   1    -0.16  -0.11   0.06     0.04  -0.09   0.01    -0.17   0.20  -0.09
    25   1    -0.05   0.01   0.18     0.01  -0.07  -0.12    -0.04   0.20   0.31
    26   1    -0.05   0.04   0.33     0.01  -0.04  -0.01    -0.07   0.15   0.10
    27   1     0.13   0.13   0.20    -0.03   0.04  -0.08     0.14  -0.04   0.21
    28   1    -0.02   0.01   0.15    -0.01   0.01   0.15     0.02  -0.04  -0.46
    29   1     0.09   0.07   0.07     0.01   0.11   0.06    -0.11  -0.30  -0.22
                      4                      5                      6
                      A                      A                      A
 Frequencies --    176.9393               209.2500               232.8731
 Red. masses --      3.0962                 2.0164                 1.1435
 Frc consts  --      0.0571                 0.0520                 0.0365
 IR Inten    --      1.9984                 0.2435                 0.0561
  Atom  AN      X      Y      Z        X      Y      Z        X      Y      Z
     1   8     0.10   0.13  -0.01    -0.04  -0.00   0.05     0.00  -0.02   0.01
     2   6     0.03   0.10  -0.02    -0.01   0.02  -0.02    -0.00  -0.02  -0.01
     3   6    -0.02   0.12   0.01     0.00   0.02  -0.11    -0.00  -0.02   0.01
     4   6    -0.03  -0.01   0.04     0.02  -0.01  -0.06    -0.01  -0.00  -0.01
     5   6    -0.05  -0.12   0.05     0.17  -0.02  -0.02    -0.02   0.04  -0.02
     6   6     0.15  -0.15   0.03     0.00  -0.06   0.03     0.01  -0.01  -0.00
     7   6    -0.05   0.09  -0.02    -0.05   0.05  -0.04     0.01   0.02   0.06
     8   6    -0.08   0.02  -0.06    -0.03   0.03   0.10    -0.01  -0.01  -0.04
     9   6    -0.05  -0.01  -0.04    -0.02   0.03   0.05     0.00  -0.02  -0.02
    10   6    -0.04  -0.12   0.09    -0.05  -0.07  -0.04     0.01   0.03   0.03
    11   6     0.02  -0.00  -0.09    -0.00   0.04   0.05    -0.00  -0.01  -0.02
    12   1    -0.03   0.13   0.01     0.03   0.02  -0.11     0.00  -0.06   0.02
    13   1    -0.16  -0.04   0.06    -0.06  -0.02  -0.05     0.00  -0.01  -0.02
    14   1    -0.10  -0.33   0.08     0.23   0.20   0.07     0.01   0.16  -0.05
    15   1     0.13  -0.10   0.03     0.02  -0.09  -0.09    -0.14   0.02  -0.01
    16   1    -0.20  -0.03   0.07     0.37  -0.17  -0.01     0.06  -0.02  -0.00
    17   1     0.17  -0.09   0.02    -0.27   0.10  -0.05    -0.23   0.22  -0.08
    18   1     0.11  -0.34   0.04    -0.00  -0.22   0.36    -0.00  -0.19   0.30
    19   1     0.33  -0.12   0.01     0.28  -0.09  -0.13     0.27  -0.08  -0.23
    20   1     0.01   0.10  -0.01    -0.14   0.09  -0.06     0.09   0.10   0.05
    21   1    -0.10   0.13   0.01    -0.03   0.04  -0.05    -0.02   0.02   0.16
    22   1    -0.12   0.05  -0.08     0.05  -0.06   0.13    -0.07   0.02  -0.06
    23   1    -0.10  -0.01  -0.09    -0.09   0.07   0.20     0.01  -0.03  -0.09
    24   1    -0.11   0.01  -0.05     0.04   0.05   0.05    -0.03  -0.04  -0.02
    25   1    -0.16  -0.13   0.16    -0.05  -0.04  -0.00    -0.07  -0.22  -0.24
    26   1     0.02  -0.15   0.11     0.03  -0.09  -0.18     0.03  -0.07   0.43
    27   1     0.04  -0.17   0.12    -0.15  -0.19  -0.03     0.09   0.43  -0.06
    28   1     0.09  -0.02  -0.14    -0.02   0.04   0.10    -0.00  -0.01  -0.01
    29   1    -0.03  -0.07  -0.08     0.05   0.07   0.05    -0.00  -0.01  -0.02
                      7                      8                      9
                      A                      A                      A
 Frequencies --    242.4553               257.2199               259.0763
 Red. masses --      1.1701                 1.4185                 1.3674
 Frc consts  --      0.0405                 0.0553                 0.0541
 IR Inten    --      0.0492                 0.2891                 1.1766
  Atom  AN      X      Y      Z        X      Y      Z        X      Y      Z
     1   8     0.00   0.01   0.01    -0.04  -0.03   0.02    -0.05  -0.05   0.03
     2   6    -0.00   0.01  -0.02    -0.01  -0.00  -0.02    -0.01  -0.02  -0.03
     3   6     0.00   0.01  -0.04     0.01  -0.02   0.00     0.00  -0.02  -0.03
     4   6     0.01  -0.01  -0.02     0.01  -0.01  -0.02     0.01  -0.01  -0.02
     5   6     0.06  -0.05   0.00     0.03  -0.01  -0.02     0.08   0.00  -0.01
     6   6    -0.02  -0.00   0.01    -0.01  -0.01   0.01    -0.04   0.03  -0.03
     7   6    -0.02   0.03  -0.00     0.02   0.06   0.08     0.02   0.05   0.06
     8   6    -0.01   0.01   0.05    -0.03   0.02  -0.10    -0.01   0.02  -0.04
     9   6    -0.01   0.01   0.01    -0.01  -0.00  -0.05    -0.00   0.00  -0.02
    10   6    -0.02  -0.01  -0.01     0.01  -0.04   0.05     0.00  -0.04   0.03
    11   6    -0.00   0.00  -0.01     0.01   0.04  -0.01     0.00   0.03   0.01
    12   1     0.01   0.00  -0.03     0.03  -0.08   0.02     0.02  -0.09  -0.01
    13   1    -0.01   0.00   0.00     0.03  -0.01  -0.03     0.00   0.00  -0.01
    14   1     0.06  -0.09   0.06     0.11   0.35  -0.03    -0.02  -0.47   0.10
    15   1     0.12  -0.06  -0.03    -0.30  -0.14  -0.11     0.56   0.16   0.09
    16   1     0.06  -0.04  -0.00     0.29  -0.26   0.09    -0.22   0.31  -0.19
    17   1     0.20  -0.25   0.08     0.13  -0.20   0.06    -0.09   0.08  -0.04
    18   1    -0.00   0.18  -0.28    -0.00   0.12  -0.18    -0.03   0.05   0.04
    19   1    -0.28   0.07   0.24    -0.19   0.05   0.18    -0.03  -0.00  -0.08
    20   1    -0.05   0.05  -0.01     0.16   0.20   0.07     0.12   0.19   0.05
    21   1    -0.02   0.03   0.00    -0.03   0.06   0.25    -0.02   0.05   0.23
    22   1     0.02  -0.06   0.08    -0.15   0.12  -0.14    -0.08   0.05  -0.06
    23   1    -0.04   0.04   0.12     0.03  -0.04  -0.21     0.01  -0.01  -0.09
    24   1     0.00   0.03   0.01    -0.05  -0.04  -0.04    -0.02  -0.02  -0.01
    25   1    -0.11  -0.30  -0.32    -0.05   0.03   0.19    -0.04  -0.02   0.09
    26   1     0.07  -0.14   0.37     0.01  -0.03  -0.02     0.02  -0.04   0.01
    27   1    -0.02   0.40  -0.11     0.08  -0.18   0.10     0.04  -0.10   0.05
    28   1     0.01   0.00  -0.04    -0.02   0.04   0.07    -0.03   0.03   0.08
    29   1    -0.00  -0.03  -0.01     0.04   0.12  -0.02     0.04   0.09   0.01
                     10                     11                     12
                      A                      A                      A
 Frequencies --    277.9303               297.3581               378.2858
 Red. masses --      3.2531                 2.5576                 3.3610
 Frc consts  --      0.1481                 0.1332                 0.2834
 IR Inten    --      0.7115                 1.9842                 1.1809
  Atom  AN      X      Y      Z        X      Y      Z        X      Y      Z
     1   8    -0.07  -0.00  -0.01     0.14   0.06   0.00     0.06   0.19  -0.02
     2   6    -0.03   0.00   0.04     0.02   0.01  -0.00    -0.02   0.10   0.15
     3   6     0.05  -0.01   0.08    -0.03   0.03  -0.05     0.04  -0.01   0.14
     4   6     0.10   0.03   0.03    -0.04  -0.01  -0.06    -0.00  -0.14  -0.07
     5   6     0.17   0.08   0.03     0.05  -0.06  -0.03     0.10   0.00  -0.08
     6   6     0.22   0.03  -0.09    -0.07  -0.04   0.02    -0.17  -0.06  -0.06
     7   6    -0.04  -0.08   0.05    -0.04   0.08   0.04     0.06  -0.09   0.06
     8   6    -0.07  -0.09  -0.02    -0.06  -0.09  -0.02     0.04   0.00  -0.02
     9   6    -0.13  -0.05  -0.03    -0.01  -0.12   0.03    -0.03   0.03  -0.02
    10   6    -0.13   0.09  -0.01     0.01   0.19  -0.04    -0.04  -0.04   0.01
    11   6    -0.08  -0.03  -0.04     0.00  -0.09   0.08    -0.06   0.01  -0.03
    12   1     0.08  -0.01   0.08     0.01  -0.00  -0.04     0.20   0.08   0.14
    13   1     0.12   0.04   0.02    -0.08  -0.02  -0.05     0.04  -0.15  -0.11
    14   1     0.18   0.13   0.10     0.05  -0.07   0.05     0.13   0.07   0.03
    15   1     0.18   0.11   0.06     0.10  -0.08  -0.08     0.14   0.06  -0.01
    16   1     0.23   0.09  -0.05     0.07  -0.07  -0.04     0.20   0.02  -0.24
    17   1     0.41   0.09  -0.06    -0.10  -0.12   0.02    -0.32  -0.01  -0.10
    18   1     0.20  -0.05  -0.26    -0.06  -0.01   0.04    -0.13   0.10   0.08
    19   1     0.21   0.02  -0.11    -0.08  -0.01   0.09    -0.26  -0.12  -0.15
    20   1    -0.01  -0.12   0.06     0.07   0.24   0.02     0.07  -0.25   0.10
    21   1    -0.10  -0.04   0.01    -0.14   0.10   0.22     0.07  -0.08  -0.07
    22   1    -0.11  -0.09  -0.02    -0.11  -0.07  -0.03     0.00   0.07  -0.05
    23   1    -0.01  -0.07  -0.03    -0.12  -0.14  -0.04     0.14  -0.00  -0.09
    24   1    -0.17  -0.05  -0.03    -0.01  -0.18   0.04    -0.04   0.05  -0.02
    25   1    -0.04   0.15  -0.00     0.30   0.38  -0.00    -0.13  -0.08   0.03
    26   1    -0.24   0.15  -0.03    -0.26   0.38  -0.15     0.04  -0.09   0.02
    27   1    -0.10   0.10  -0.01     0.02   0.17  -0.03    -0.03  -0.07   0.02
    28   1     0.00  -0.06  -0.07     0.04  -0.12   0.13     0.05  -0.00  -0.21
    29   1    -0.14  -0.06  -0.04     0.05  -0.06   0.08    -0.26  -0.12  -0.04
                     13                     14                     15
                      A                      A                      A
 Frequencies --    397.7951               401.5135               441.6891
 Red. masses --      3.0097                 2.4472                 1.9632
 Frc consts  --      0.2806                 0.2324                 0.2257
 IR Inten    --      0.0925                 1.8150                 1.8341
  Atom  AN      X      Y      Z        X      Y      Z        X      Y      Z
     1   8    -0.13   0.05   0.00     0.11  -0.04  -0.01     0.09   0.01   0.01
     2   6    -0.11   0.04   0.06     0.00  -0.08  -0.03     0.04  -0.00  -0.05
     3   6    -0.08   0.07  -0.03    -0.09  -0.03   0.00    -0.01  -0.03   0.01
     4   6    -0.10  -0.02   0.03    -0.10  -0.05   0.04    -0.04  -0.08   0.05
     5   6     0.04   0.07   0.06     0.04   0.07   0.08    -0.01   0.04   0.06
     6   6     0.00  -0.04  -0.09     0.00  -0.06  -0.12    -0.04  -0.05  -0.07
     7   6     0.03   0.09  -0.06    -0.03   0.02   0.00    -0.04  -0.04   0.01
     8   6     0.06  -0.07   0.03    -0.02   0.15  -0.04    -0.03  -0.04   0.04
     9   6     0.12  -0.09  -0.06     0.03   0.07   0.13    -0.03   0.01  -0.13
    10   6     0.19  -0.03   0.03    -0.01  -0.00  -0.03     0.00   0.02   0.01
    11   6    -0.07  -0.08   0.01     0.01  -0.05   0.03     0.06   0.13  -0.00
    12   1    -0.09   0.15  -0.05    -0.13  -0.06   0.01    -0.05  -0.06   0.01
    13   1    -0.14  -0.02   0.04    -0.12  -0.05   0.05    -0.05  -0.08   0.05
    14   1     0.08   0.20   0.18     0.08   0.19   0.21     0.01   0.12   0.07
    15   1     0.03   0.10   0.11     0.05   0.12   0.16    -0.03   0.11   0.17
    16   1     0.18   0.04  -0.07     0.19   0.06  -0.10     0.06   0.07  -0.06
    17   1     0.18   0.04  -0.06     0.21   0.05  -0.09     0.05   0.06  -0.06
    18   1    -0.02  -0.10  -0.25    -0.03  -0.13  -0.30    -0.04  -0.03  -0.14
    19   1    -0.02  -0.06  -0.13    -0.03  -0.10  -0.18    -0.10  -0.11  -0.15
    20   1     0.05   0.15  -0.07    -0.04  -0.01   0.00    -0.09  -0.06   0.01
    21   1    -0.00   0.09   0.02     0.06  -0.03  -0.01    -0.04  -0.04  -0.03
    22   1     0.12  -0.26   0.09    -0.06   0.42  -0.13    -0.02  -0.29   0.12
    23   1    -0.09  -0.02   0.21     0.01  -0.02  -0.28    -0.02   0.11   0.24
    24   1     0.15  -0.09  -0.05     0.06   0.06   0.13    -0.04   0.02  -0.13
    25   1     0.15   0.01   0.12     0.03  -0.04  -0.11    -0.05   0.04   0.08
    26   1     0.12  -0.00   0.10     0.08  -0.04  -0.10    -0.05   0.03   0.08
    27   1     0.35  -0.05   0.06    -0.19   0.00  -0.06     0.15   0.02   0.03
    28   1     0.00  -0.09  -0.11    -0.08   0.02  -0.09    -0.07   0.09   0.40
    29   1    -0.24  -0.12  -0.02     0.07  -0.20   0.07     0.25   0.51  -0.04
                     16                     17                     18
                      A                      A                      A
 Frequencies --    481.0023               555.4610               620.6793
 Red. masses --      2.8424                 2.6228                 3.2193
 Frc consts  --      0.3875                 0.4768                 0.7307
 IR Inten    --      0.2243                 5.8863                 5.5697
  Atom  AN      X      Y      Z        X      Y      Z        X      Y      Z
     1   8     0.00   0.04   0.04     0.12   0.02  -0.01    -0.13  -0.00   0.05
     2   6    -0.02   0.06  -0.09    -0.08  -0.08  -0.00     0.06   0.12  -0.14
     3   6     0.06   0.00  -0.10    -0.10  -0.04   0.01    -0.01   0.06   0.08
     4   6     0.06  -0.11   0.09    -0.11   0.14  -0.06    -0.16   0.11  -0.05
     5   6    -0.06   0.04   0.07     0.01  -0.01  -0.03    -0.01   0.01   0.01
     6   6    -0.02  -0.00  -0.03     0.04   0.03   0.02    -0.06  -0.05  -0.04
     7   6     0.17   0.08  -0.06     0.11  -0.04   0.01     0.06  -0.08   0.06
     8   6     0.12  -0.08  -0.02     0.13  -0.03  -0.01     0.07  -0.09   0.00
     9   6    -0.09  -0.03   0.07    -0.03   0.04  -0.04    -0.01  -0.05   0.09
    10   6    -0.16  -0.02  -0.00    -0.06  -0.02   0.01    -0.04   0.00   0.00
    11   6    -0.03  -0.03   0.02    -0.13  -0.01   0.05     0.18   0.03  -0.08
    12   1    -0.05   0.01  -0.11    -0.11  -0.05   0.01    -0.03  -0.08   0.12
    13   1     0.04  -0.10   0.10    -0.04   0.16  -0.07    -0.16   0.09  -0.08
    14   1    -0.06   0.13  -0.14     0.02  -0.06   0.18     0.02   0.01   0.33
    15   1    -0.20   0.13   0.24     0.14  -0.12  -0.25     0.15  -0.07  -0.16
    16   1    -0.09   0.09   0.01     0.07  -0.09   0.04     0.13  -0.07  -0.01
    17   1     0.01   0.11  -0.03     0.12  -0.08   0.05     0.01  -0.11  -0.02
    18   1     0.00   0.12  -0.06    -0.01  -0.21  -0.04    -0.10  -0.24  -0.10
    19   1    -0.17  -0.09  -0.15     0.26   0.15   0.16     0.10   0.03   0.05
    20   1     0.30   0.32  -0.09     0.24   0.03   0.01     0.12  -0.23   0.10
    21   1     0.04   0.11   0.21     0.14  -0.09   0.16     0.03  -0.03  -0.05
    22   1     0.25  -0.11   0.01     0.23  -0.16   0.04     0.08   0.00  -0.02
    23   1     0.07  -0.03   0.08     0.15   0.09   0.14     0.11  -0.12  -0.06
    24   1    -0.15  -0.07   0.08    -0.05   0.01  -0.04    -0.08  -0.04   0.07
    25   1    -0.13  -0.05  -0.06    -0.18  -0.06   0.05     0.11   0.00  -0.11
    26   1    -0.09  -0.05  -0.08     0.04  -0.09   0.02    -0.06   0.03  -0.08
    27   1    -0.31  -0.04  -0.02    -0.04  -0.08   0.03    -0.21   0.05  -0.04
    28   1     0.02  -0.06   0.02    -0.29   0.03   0.22     0.31  -0.04  -0.02
    29   1     0.05  -0.09   0.04    -0.05   0.20   0.02     0.37  -0.06  -0.03
                     19                     20                     21
                      A                      A                      A
 Frequencies --    658.6826               746.9090               815.1915
 Red. masses --      3.9132                 2.4131                 2.1485
 Frc consts  --      1.0003                 0.7932                 0.8412
 IR Inten    --      2.4823                 3.2300                 0.3281
  Atom  AN      X      Y      Z        X      Y      Z        X      Y      Z
     1   8    -0.02  -0.16  -0.10     0.00  -0.06   0.01     0.01  -0.01   0.00
     2   6     0.17  -0.12   0.27    -0.06  -0.05  -0.10    -0.03  -0.02  -0.01
     3   6     0.04   0.09   0.08     0.00   0.15   0.17    -0.10   0.01   0.13
     4   6    -0.07   0.04  -0.02     0.03  -0.04   0.01     0.01  -0.06   0.05
     5   6    -0.01   0.01   0.02     0.02  -0.02  -0.07     0.03  -0.03  -0.12
     6   6    -0.06  -0.05  -0.03     0.01  -0.00   0.01     0.05   0.04   0.04
     7   6     0.03   0.12  -0.09     0.07   0.14  -0.01    -0.06  -0.01  -0.07
     8   6     0.01   0.04  -0.04     0.02   0.06   0.02    -0.03  -0.08  -0.08
     9   6    -0.04   0.03  -0.07    -0.01  -0.06  -0.02     0.01   0.05   0.10
    10   6    -0.14   0.02   0.01    -0.03  -0.01   0.00     0.07   0.01   0.02
    11   6     0.12  -0.00   0.01    -0.05  -0.10  -0.02     0.03   0.08  -0.05
    12   1     0.10   0.34   0.01     0.04   0.05   0.19    -0.19   0.10   0.09
    13   1    -0.09   0.02  -0.04     0.00  -0.07  -0.03     0.02  -0.08  -0.00
    14   1     0.01   0.04   0.17     0.03   0.00  -0.05     0.04   0.02  -0.11
    15   1     0.06  -0.02  -0.04     0.03  -0.00  -0.05     0.03   0.00  -0.06
    16   1     0.08  -0.03  -0.02     0.05  -0.01  -0.11     0.07  -0.02  -0.20
    17   1    -0.07  -0.07  -0.03    -0.08   0.03  -0.02     0.04   0.14   0.03
    18   1    -0.07  -0.08  -0.03     0.04   0.15   0.07     0.07   0.15   0.05
    19   1    -0.03  -0.04  -0.01    -0.11  -0.05  -0.04    -0.06  -0.03  -0.04
    20   1     0.19   0.24  -0.09    -0.09  -0.33   0.07     0.28   0.15  -0.06
    21   1    -0.02   0.11   0.11     0.11   0.22  -0.51    -0.25   0.03   0.25
    22   1     0.19  -0.26   0.07    -0.02   0.06   0.01     0.24  -0.25   0.01
    23   1    -0.08   0.23   0.27    -0.09  -0.01   0.01    -0.20   0.03   0.18
    24   1    -0.12   0.02  -0.08    -0.02  -0.00  -0.03    -0.13   0.00   0.10
    25   1    -0.16   0.03   0.03    -0.00   0.01   0.00     0.17  -0.06  -0.13
    26   1    -0.14   0.03   0.00    -0.08   0.02   0.03     0.23  -0.04  -0.16
    27   1    -0.12   0.01   0.01     0.01   0.02   0.00    -0.24  -0.00  -0.03
    28   1     0.21  -0.02  -0.12    -0.24  -0.11   0.34    -0.12   0.16  -0.09
    29   1    -0.16  -0.04  -0.03     0.26   0.20  -0.03     0.15  -0.00  -0.02
                     22                     23                     24
                      A                      A                      A
 Frequencies --    841.5410               883.4912               912.6918
 Red. masses --      2.5715                 1.6242                 1.9710
 Frc consts  --      1.0730                 0.7469                 0.9673
 IR Inten    --      1.2081                 4.4325                 1.0246
  Atom  AN      X      Y      Z        X      Y      Z        X      Y      Z
     1   8    -0.04   0.06   0.02     0.02  -0.02   0.02    -0.01   0.05   0.00
     2   6    -0.02   0.05   0.00     0.02   0.02  -0.11    -0.06  -0.00   0.04
     3   6    -0.13  -0.11   0.01     0.04  -0.02   0.05     0.01  -0.11   0.04
     4   6    -0.03  -0.06   0.05     0.03   0.03  -0.02     0.07   0.03  -0.06
     5   6     0.02  -0.03  -0.10    -0.01   0.02   0.04    -0.00   0.04   0.09
     6   6     0.05   0.07   0.06    -0.02  -0.04  -0.03    -0.03  -0.03  -0.07
     7   6     0.03  -0.01  -0.02     0.01   0.02   0.00     0.03   0.02  -0.06
     8   6    -0.01   0.17  -0.01    -0.05   0.03  -0.09    -0.07   0.09  -0.02
     9   6    -0.00  -0.06  -0.08    -0.01   0.02  -0.01    -0.02  -0.06   0.04
    10   6    -0.08  -0.02  -0.01     0.02   0.01  -0.02     0.05  -0.05   0.04
    11   6     0.14  -0.08   0.05    -0.04   0.04   0.12     0.01  -0.03  -0.09
    12   1    -0.25  -0.14   0.00     0.01  -0.27   0.12     0.11  -0.03   0.03
    13   1     0.03  -0.05   0.04     0.09   0.02  -0.06     0.28   0.08  -0.06
    14   1     0.03   0.02  -0.11    -0.02  -0.03   0.08    -0.03  -0.05   0.05
    15   1     0.02   0.02  -0.03     0.02  -0.03  -0.05    -0.01  -0.03  -0.01
    16   1     0.05  -0.00  -0.20    -0.02  -0.02   0.13    -0.08   0.00   0.27
    17   1     0.16   0.18   0.07    -0.08  -0.09  -0.04    -0.14  -0.26  -0.06
    18   1     0.04   0.04  -0.03    -0.02  -0.03   0.01    -0.04  -0.12   0.04
    19   1     0.06   0.04  -0.01    -0.02  -0.02   0.01     0.09   0.08   0.11
    20   1     0.05  -0.01  -0.01     0.10  -0.18   0.06     0.13   0.07  -0.06
    21   1     0.29  -0.17   0.06    -0.01   0.06  -0.14     0.14  -0.07   0.07
    22   1     0.08  -0.08   0.07     0.07  -0.36   0.04     0.10  -0.04   0.04
    23   1    -0.06   0.31   0.21    -0.14   0.26   0.28    -0.27   0.12   0.15
    24   1     0.08  -0.12  -0.05     0.05  -0.29   0.07    -0.18   0.04   0.00
    25   1    -0.02   0.08   0.08    -0.09   0.01   0.07     0.40  -0.00  -0.16
    26   1    -0.31   0.09   0.11     0.05  -0.02   0.02    -0.11   0.08  -0.10
    27   1     0.15   0.05   0.01     0.12  -0.05   0.01    -0.18   0.11  -0.04
    28   1     0.34  -0.17   0.02     0.02   0.12  -0.31    -0.07  -0.05   0.18
    29   1     0.11  -0.14   0.05    -0.13  -0.39   0.17     0.14   0.22  -0.11
                     25                     26                     27
                      A                      A                      A
 Frequencies --    938.6385               945.2255               971.3120
 Red. masses --      1.2909                 1.8008                 1.3516
 Frc consts  --      0.6701                 0.9479                 0.7513
 IR Inten    --      1.5133                 0.6493                 2.0078
  Atom  AN      X      Y      Z        X      Y      Z        X      Y      Z
     1   8    -0.01   0.01   0.00     0.03  -0.02  -0.01    -0.01   0.01  -0.00
     2   6    -0.01   0.01  -0.01     0.02  -0.02   0.02    -0.00   0.00   0.04
     3   6    -0.02   0.01   0.01     0.03  -0.04  -0.02     0.00  -0.02  -0.05
     4   6     0.04   0.04   0.02    -0.05  -0.00   0.05    -0.01   0.01   0.03
     5   6     0.03   0.08   0.00     0.00   0.03  -0.06     0.05  -0.01  -0.03
     6   6    -0.01  -0.07   0.03    -0.02   0.00   0.07    -0.05   0.01   0.03
     7   6    -0.03  -0.04  -0.01     0.09   0.06  -0.01     0.00   0.05   0.06
     8   6     0.01   0.01  -0.00    -0.03  -0.01   0.04     0.01  -0.01  -0.05
     9   6    -0.00   0.02  -0.01     0.00  -0.08   0.03    -0.01   0.03  -0.03
    10   6    -0.00   0.01  -0.01    -0.01  -0.06   0.02     0.04   0.05   0.04
    11   6     0.01  -0.06   0.01    -0.05   0.15  -0.03     0.02  -0.05   0.01
    12   1    -0.05   0.05  -0.01    -0.03  -0.10  -0.01     0.09  -0.14  -0.00
    13   1    -0.04  -0.16  -0.29    -0.04  -0.10  -0.13    -0.03   0.05   0.10
    14   1    -0.04  -0.19  -0.01    -0.01  -0.08   0.05     0.02  -0.04  -0.28
    15   1     0.04  -0.18  -0.39     0.07  -0.10  -0.26    -0.10   0.00   0.02
    16   1    -0.12  -0.07   0.47     0.01  -0.06   0.09    -0.10   0.04   0.08
    17   1     0.08   0.26   0.01     0.25   0.31   0.08     0.20   0.12   0.07
    18   1     0.01   0.11  -0.11    -0.06  -0.07  -0.18    -0.12  -0.24  -0.18
    19   1    -0.24  -0.27  -0.27    -0.03  -0.12  -0.17     0.10  -0.00  -0.05
    20   1     0.05   0.07  -0.02    -0.07  -0.07  -0.00    -0.16  -0.17   0.08
    21   1    -0.08  -0.04   0.12     0.20   0.03  -0.18     0.09   0.05  -0.21
    22   1     0.07   0.04  -0.00    -0.15   0.05   0.01    -0.14  -0.21  -0.01
    23   1     0.05   0.03  -0.00    -0.11  -0.13  -0.05     0.01   0.07   0.06
    24   1     0.03   0.07  -0.02     0.00  -0.09   0.03    -0.32  -0.04  -0.04
    25   1    -0.10  -0.00   0.03     0.32   0.05  -0.07    -0.01  -0.11  -0.13
    26   1     0.05  -0.02   0.02    -0.28   0.11   0.01     0.36  -0.09  -0.19
    27   1     0.04  -0.03   0.01    -0.02   0.12  -0.02    -0.35  -0.05   0.01
    28   1     0.02  -0.09   0.11    -0.07   0.21  -0.23     0.08  -0.09   0.07
    29   1     0.10   0.02   0.01    -0.27   0.04  -0.05    -0.02   0.04  -0.01
                     28                     29                     30
                      A                      A                      A
 Frequencies --    979.0344               995.4085              1009.9976
 Red. masses --      1.5328                 1.7439                 2.6830
 Frc consts  --      0.8657                 1.0181                 1.6125
 IR Inten    --      0.6900                 0.6376                12.5060
  Atom  AN      X      Y      Z        X      Y      Z        X      Y      Z
     1   8    -0.00   0.01  -0.00     0.01  -0.03  -0.01    -0.01  -0.02   0.01
     2   6    -0.00  -0.00   0.02     0.00  -0.02  -0.01     0.07   0.04  -0.05
     3   6     0.02  -0.01  -0.06    -0.04   0.13  -0.05     0.18   0.04   0.01
     4   6    -0.05  -0.06  -0.08     0.02   0.03  -0.00    -0.07  -0.01   0.04
     5   6    -0.09   0.01   0.05     0.05  -0.02   0.01    -0.03  -0.03  -0.06
     6   6     0.11   0.04   0.04     0.01  -0.03  -0.01    -0.05   0.03   0.06
     7   6     0.01   0.00   0.04    -0.03  -0.09   0.09     0.06  -0.11  -0.04
     8   6    -0.00   0.02  -0.03     0.06   0.08  -0.04    -0.12   0.09   0.01
     9   6    -0.02   0.00  -0.02    -0.03  -0.05  -0.00    -0.14   0.02   0.02
    10   6     0.03   0.01   0.03     0.02  -0.08   0.03     0.12  -0.02  -0.04
    11   6     0.01  -0.02   0.00    -0.02   0.03   0.00    -0.09  -0.09   0.02
    12   1     0.11  -0.08  -0.03     0.02   0.15  -0.05     0.25   0.19  -0.03
    13   1    -0.17  -0.19  -0.26    -0.27   0.03   0.12    -0.10   0.01   0.08
    14   1    -0.05   0.06   0.48     0.03   0.01  -0.30     0.00   0.07   0.12
    15   1     0.14  -0.01  -0.05    -0.14   0.04   0.15     0.06   0.03  -0.00
    16   1     0.15  -0.08  -0.10    -0.10   0.07   0.04     0.11  -0.02  -0.24
    17   1    -0.09   0.12  -0.01    -0.08  -0.02  -0.03     0.25   0.20   0.10
    18   1     0.19   0.40   0.16     0.04   0.12   0.04    -0.13  -0.24  -0.19
    19   1    -0.17  -0.05  -0.04    -0.12  -0.07  -0.04     0.11   0.00  -0.06
    20   1    -0.06  -0.08   0.04     0.01  -0.06   0.09     0.28   0.13  -0.06
    21   1     0.08  -0.01  -0.08    -0.01  -0.10   0.10    -0.05  -0.10   0.25
    22   1    -0.08  -0.12   0.01     0.11  -0.10   0.02     0.07   0.09   0.04
    23   1     0.03   0.10   0.06     0.30   0.30   0.10    -0.06   0.17   0.08
    24   1    -0.22  -0.04  -0.02    -0.15  -0.16   0.01    -0.11   0.13  -0.00
    25   1     0.10  -0.05  -0.10     0.42   0.03  -0.11     0.10   0.01   0.00
    26   1     0.14  -0.02  -0.12    -0.27   0.11  -0.04     0.10  -0.01   0.01
    27   1    -0.21   0.00  -0.01    -0.07   0.13  -0.04     0.23  -0.02  -0.03
    28   1     0.04  -0.05   0.04    -0.11   0.08  -0.08    -0.05  -0.16   0.20
    29   1    -0.04   0.03  -0.01    -0.07  -0.03   0.00     0.05   0.02   0.03
                     31                     32                     33
                      A                      A                      A
 Frequencies --   1047.8757              1058.1266              1094.3649
 Red. masses --      1.7225                 1.7512                 1.1394
 Frc consts  --      1.1144                 1.1552                 0.8040
 IR Inten    --      2.0426                11.0037                 1.0589
  Atom  AN      X      Y      Z        X      Y      Z        X      Y      Z
     1   8     0.00   0.03   0.00     0.00   0.01  -0.01     0.00   0.01   0.00
     2   6    -0.07  -0.03   0.02    -0.07  -0.04   0.03    -0.05  -0.02  -0.01
     3   6     0.08  -0.03  -0.00    -0.02   0.06  -0.04     0.03  -0.00   0.02
     4   6    -0.04  -0.04  -0.06    -0.02   0.00  -0.05     0.03  -0.02   0.04
     5   6    -0.01  -0.01   0.03     0.03  -0.00   0.03    -0.03   0.02  -0.02
     6   6    -0.02   0.06   0.06     0.02   0.01   0.01    -0.03   0.01  -0.01
     7   6    -0.11   0.02   0.02     0.13  -0.06   0.03    -0.01  -0.00  -0.00
     8   6     0.06   0.01  -0.07    -0.13  -0.02  -0.00     0.03   0.01   0.01
     9   6     0.08   0.01   0.03     0.05   0.02   0.03    -0.01  -0.01  -0.02
    10   6    -0.06  -0.03  -0.00    -0.03   0.04  -0.02     0.00   0.00   0.01
    11   6     0.02  -0.02  -0.04     0.05   0.01  -0.04     0.02   0.01  -0.00
    12   1     0.50  -0.12   0.07     0.23   0.26  -0.07    -0.06   0.41  -0.10
    13   1    -0.06  -0.06  -0.08    -0.23  -0.03  -0.01     0.24   0.00  -0.02
    14   1    -0.01   0.01   0.02     0.01  -0.01  -0.18    -0.02  -0.02   0.19
    15   1    -0.03   0.02   0.08    -0.11   0.01   0.10     0.10  -0.03  -0.13
    16   1    -0.02   0.01   0.01    -0.09   0.05   0.09     0.08  -0.05  -0.03
    17   1     0.23   0.20   0.10     0.01   0.06   0.01     0.03  -0.04   0.01
    18   1    -0.08  -0.16  -0.14     0.03   0.09  -0.00    -0.05  -0.11  -0.02
    19   1     0.12   0.03  -0.04    -0.03  -0.02  -0.02     0.08   0.04   0.03
    20   1    -0.02  -0.03   0.03     0.17  -0.11   0.04    -0.31   0.22  -0.08
    21   1    -0.34   0.17  -0.06     0.30  -0.16   0.04     0.04  -0.03   0.03
    22   1     0.28  -0.06  -0.02    -0.26  -0.18   0.03    -0.30  -0.11   0.00
    23   1     0.07   0.11   0.07    -0.29  -0.06   0.06     0.31   0.13  -0.03
    24   1     0.21  -0.05   0.05     0.18  -0.11   0.08    -0.08  -0.31   0.04
    25   1     0.01   0.06   0.05    -0.21   0.01   0.08     0.01  -0.01  -0.02
    26   1    -0.24   0.06   0.08     0.05  -0.03   0.06     0.03  -0.01  -0.03
    27   1     0.07   0.05  -0.00     0.08  -0.06   0.02    -0.04  -0.01   0.00
    28   1    -0.18   0.08  -0.01    -0.18   0.13  -0.07    -0.13   0.10  -0.09
    29   1     0.23  -0.03   0.00     0.34  -0.12   0.04     0.29  -0.20   0.08
                     34                     35                     36
                      A                      A                      A
 Frequencies --   1114.6589              1143.9485              1159.4981
 Red. masses --      2.5779                 2.1413                 2.2465
 Frc consts  --      1.8871                 1.6510                 1.7795
 IR Inten    --     13.3363                14.6626                 1.0119
  Atom  AN      X      Y      Z        X      Y      Z        X      Y      Z
     1   8    -0.02   0.01   0.01     0.01   0.01   0.00    -0.01   0.04  -0.01
     2   6     0.06   0.04  -0.06    -0.12  -0.05  -0.01    -0.01  -0.02   0.11
     3   6     0.08   0.03  -0.01     0.02   0.04  -0.04     0.04  -0.04  -0.11
     4   6     0.03   0.04   0.07     0.02   0.00   0.05     0.03   0.12   0.14
     5   6    -0.04  -0.01  -0.05    -0.02   0.01  -0.03    -0.05  -0.01  -0.08
     6   6    -0.02  -0.03  -0.00    -0.01  -0.01  -0.02     0.01  -0.09  -0.02
     7   6    -0.04  -0.08   0.01     0.08  -0.02   0.00    -0.00   0.03   0.06
     8   6    -0.04   0.06  -0.03    -0.08  -0.07   0.00     0.01  -0.00  -0.06
     9   6     0.25  -0.04  -0.04     0.02   0.16  -0.07    -0.04   0.01   0.09
    10   6    -0.11   0.04   0.11    -0.01  -0.08   0.04     0.01  -0.00  -0.06
    11   6    -0.06  -0.06   0.00     0.09  -0.05   0.09     0.00  -0.01  -0.09
    12   1    -0.09   0.05  -0.04    -0.08  -0.06  -0.02    -0.09  -0.25  -0.06
    13   1     0.03   0.07   0.12     0.10   0.04   0.08    -0.00   0.22   0.32
    14   1    -0.01   0.06   0.17    -0.01   0.00   0.10    -0.00   0.08   0.18
    15   1     0.11   0.01  -0.06     0.08  -0.02  -0.11     0.15   0.01  -0.12
    16   1     0.11  -0.04  -0.18     0.06  -0.04  -0.03     0.14  -0.05  -0.25
    17   1    -0.02  -0.01  -0.01    -0.03  -0.07  -0.01    -0.17  -0.05  -0.07
    18   1    -0.02  -0.03  -0.03    -0.01  -0.05   0.02     0.06   0.12   0.04
    19   1    -0.05  -0.06  -0.04     0.01   0.01   0.02    -0.24  -0.17  -0.08
    20   1     0.03   0.07  -0.01     0.18  -0.13   0.03    -0.04  -0.16   0.09
    21   1     0.07  -0.17   0.17    -0.30   0.22  -0.13    -0.03   0.09  -0.15
    22   1    -0.08  -0.15   0.02    -0.15  -0.06  -0.01     0.13  -0.10  -0.01
    23   1    -0.23   0.03   0.07     0.11   0.01  -0.03    -0.04   0.08   0.09
    24   1     0.26  -0.00  -0.05     0.04   0.49  -0.14     0.03  -0.10   0.12
    25   1    -0.07  -0.07  -0.08     0.36   0.04  -0.07    -0.10   0.05   0.09
    26   1    -0.01   0.02  -0.10    -0.30   0.12  -0.04    -0.02  -0.02   0.10
    27   1    -0.52   0.03   0.04    -0.08   0.20  -0.04     0.26  -0.05  -0.01
    28   1    -0.26   0.03   0.03     0.07  -0.00  -0.06    -0.16   0.02   0.10
    29   1    -0.26   0.23  -0.09    -0.04  -0.11   0.07     0.28   0.03  -0.04
                     37                     38                     39
                      A                      A                      A
 Frequencies --   1187.0102              1218.6379              1230.7761
 Red. masses --      2.1916                 1.8981                 2.0216
 Frc consts  --      1.8193                 1.6608                 1.8043
 IR Inten    --     10.3694                 4.5344                23.5139
  Atom  AN      X      Y      Z        X      Y      Z        X      Y      Z
     1   8     0.01   0.02   0.01     0.00  -0.01  -0.00    -0.04   0.02   0.01
     2   6    -0.09  -0.03  -0.04    -0.01  -0.00  -0.00     0.16   0.08   0.01
     3   6     0.08  -0.10   0.09    -0.08   0.04  -0.00    -0.00  -0.07   0.05
     4   6    -0.07   0.17  -0.02     0.15   0.08  -0.12    -0.05   0.02  -0.04
     5   6     0.03  -0.06  -0.00    -0.06  -0.09   0.05     0.04  -0.02   0.02
     6   6     0.04  -0.09   0.03    -0.06  -0.05   0.09     0.02  -0.00   0.01
     7   6    -0.00   0.01  -0.10     0.00   0.00   0.03     0.01   0.04  -0.02
     8   6     0.02   0.01   0.06     0.01  -0.02  -0.01     0.01  -0.07  -0.05
     9   6    -0.00  -0.01  -0.07    -0.01   0.01   0.01     0.01   0.12   0.04
    10   6     0.00   0.01   0.03     0.00  -0.01  -0.01    -0.01  -0.07  -0.01
    11   6     0.02   0.02   0.04     0.01   0.01   0.01    -0.06  -0.09   0.00
    12   1     0.27  -0.07   0.10    -0.17   0.11  -0.04    -0.23  -0.08   0.02
    13   1    -0.24   0.19   0.12     0.37   0.09  -0.22    -0.07  -0.04  -0.14
    14   1     0.05   0.10  -0.17     0.02   0.20   0.18     0.03  -0.00  -0.13
    15   1    -0.09   0.08   0.23     0.06   0.14   0.35    -0.10   0.02   0.13
    16   1    -0.04   0.08  -0.17     0.09   0.00  -0.30    -0.08   0.05   0.02
    17   1    -0.11   0.15  -0.03     0.22   0.27   0.10    -0.02   0.04  -0.01
    18   1     0.10   0.24  -0.01    -0.10  -0.10  -0.26     0.03   0.08   0.01
    19   1    -0.29  -0.24  -0.15    -0.01  -0.21  -0.26    -0.03  -0.01  -0.00
    20   1    -0.12   0.28  -0.16     0.02  -0.08   0.04    -0.29   0.15  -0.08
    21   1    -0.04   0.00   0.06     0.11  -0.05   0.00     0.23  -0.09  -0.01
    22   1    -0.15   0.09   0.01     0.03  -0.01  -0.01    -0.34  -0.28  -0.03
    23   1     0.04  -0.08  -0.08    -0.06  -0.04   0.00     0.12   0.03  -0.00
    24   1    -0.06  -0.07  -0.06    -0.03   0.08  -0.01     0.00   0.18   0.02
    25   1     0.05  -0.04  -0.06     0.01   0.01   0.01     0.16   0.07   0.04
    26   1     0.04   0.01  -0.07    -0.02   0.00   0.01    -0.24   0.06   0.05
    27   1    -0.13   0.01   0.00     0.04   0.01  -0.01     0.11   0.11  -0.04
    28   1     0.17  -0.02  -0.07     0.04  -0.00  -0.01    -0.42   0.07   0.09
    29   1     0.07  -0.15   0.07    -0.04   0.01  -0.00     0.17  -0.02   0.04
                     40                     41                     42
                      A                      A                      A
 Frequencies --   1257.1947              1284.5716              1310.5194
 Red. masses --      1.3328                 1.3856                 1.3490
 Frc consts  --      1.2411                 1.3471                 1.3651
 IR Inten    --      0.5400                 5.0527                 1.0577
  Atom  AN      X      Y      Z        X      Y      Z        X      Y      Z
     1   8     0.02  -0.02   0.00    -0.02   0.01  -0.00     0.01  -0.01  -0.01
     2   6    -0.04  -0.01  -0.05     0.06   0.02   0.03     0.02   0.00   0.04
     3   6     0.01  -0.02   0.01    -0.04   0.02  -0.02     0.02  -0.03  -0.02
     4   6    -0.00  -0.01   0.03     0.03  -0.02   0.02    -0.01   0.01   0.00
     5   6    -0.01   0.02  -0.02    -0.02   0.02  -0.01     0.01  -0.01   0.01
     6   6     0.00  -0.01  -0.01    -0.01  -0.00  -0.00     0.00   0.01  -0.00
     7   6    -0.05   0.02   0.06    -0.05   0.02  -0.01     0.01   0.00   0.03
     8   6     0.06  -0.03  -0.07     0.03  -0.01   0.05     0.00   0.01  -0.01
[...]
 0001340,0.00001725,0.00007341,-0.00001608,0.00005360,0.00000539,0.0000
 2006,0.00018153,-0.00060034,0.00027638,0.00082374,0.00001636,0.0002019
 3,0.01216555,-0.00022482,0.01164013,0.18387158,0.00003311,0.00082861,-
 0.00001792,0.00002641,-0.00214671,0.00009801,0.00285084,-0.00480311,-0
 .00198957,0.00119675,0.00084757,0.00129983,-0.00005366,0.00000174,0.00
 018399,0.00011286,0.00014369,-0.00003594,0.01997199,-0.00082357,0.0220
 1259,0.00211887,-0.04766027,0.00241448,-0.01858340,-0.00039182,-0.0215
 4803,-0.00077692,0.00148214,-0.00099185,-0.00320539,-0.00469240,0.0014
 6250,-0.00043352,-0.00000355,-0.00028301,0.00041113,-0.00060546,0.0000
 6202,0.00002654,-0.00003438,-0.00006788,-0.00003929,0.00000155,-0.0000
 6590,0.00001141,0.00000768,-0.00003823,-0.00001788,0.00000229,0.000006
 80,-0.00001817,-0.00006135,0.00000234,-0.00006321,-0.00001790,-0.00002
 792,-0.00060223,0.00112228,-0.00036377,-0.00077033,0.00089687,0.000358
 88,-0.00007612,-0.00035628,-0.00001308,-0.00238081,0.05522095,-0.00006
 319,0.00003124,-0.00006508,0.00020855,-0.00008793,0.00000493,0.0004948
 0,0.00009904,0.00078235,0.00002935,-0.00034040,0.00024589,-0.00007849,
 0.00011831,-0.00003335,-0.00002848,0.,-0.00000977,0.00348148,-0.000262
 08,0.00237455,-0.12730465,0.00216326,-0.18662723,0.00261944,0.00043781
 ,0.00146513,0.00002505,0.00016078,-0.00007019,0.00032019,-0.00013568,0
 .00112861,0.00011167,-0.00010214,0.00051362,0.00000460,0.00002636,0.00
 000325,-0.00003124,0.00002506,0.00002916,0.00000372,-0.00002030,-0.000
 01090,0.00001321,-0.00000698,-0.00000253,0.00000676,-0.00001199,0.0000
 0625,-0.00000814,0.00002590,-0.00000138,0.00000817,-0.00000927,0.00000
 822,-0.00012791,0.00043589,0.00076770,-0.00008498,0.00053855,0.0000146
 8,-0.01980677,0.00028518,-0.02121242,0.13990828,-0.00250059,0.19880562
 ,-0.00017043,-0.00024447,0.00027223,0.00165203,-0.00070758,-0.00038970
 ,0.00001813,0.00001532,-0.00023263,0.00007381,0.00002636,0.00003243,0.
 00000448,0.00000724,0.00000466,-0.00000954,0.00001157,0.00000463,0.000
 33150,0.00130040,-0.00012081,-0.01078434,-0.00199803,0.01908099,-0.097
 80167,0.00069147,0.09794037,-0.00927950,0.00159220,0.01692697,0.008849
 13,0.00029299,-0.02370251,-0.00013552,-0.00000573,-0.00002069,0.000022
 42,-0.00002733,0.00000022,0.00000123,-0.00000310,0.00000022,-0.0000070
 5,-0.00000373,0.00000851,0.00000913,0.00000672,0.00000534,-0.00000522,
 -0.00000167,-0.00000853,0.00000711,0.00000127,-0.00000003,-0.00000090,
 0.00000903,0.00000630,0.00065029,-0.00040569,-0.00039194,-0.00000893,0
 .00011996,-0.00031982,-0.00185786,-0.00361854,0.00023414,0.00030991,0.
 00069532,-0.00012632,0.11055741,-0.00004371,0.00007289,-0.00008630,-0.
 00033244,-0.00006135,0.00056945,0.00024732,-0.00012312,-0.00012412,0.0
 0002965,0.00001859,0.00002851,0.00000229,-0.00000519,0.00002947,0.0000
 0112,0.00001005,0.00000662,-0.00062633,0.00162581,0.00119156,-0.013762
 84,-0.00270199,0.02545759,0.00094669,-0.04972092,-0.00086160,0.0145907
 6,-0.00234183,-0.02640703,-0.00049545,0.00011995,0.00080599,-0.0000655
 3,0.00010928,-0.00019940,0.00001217,-0.00002085,-0.00000095,-0.0000024
 6,0.00001086,-0.00002113,-0.00000885,-0.00002213,-0.00001105,0.0000272
 0,0.00000002,-0.00000309,-0.00000085,0.00000264,-0.00001446,-0.0000003
 7,-0.00000267,-0.00000317,-0.00000785,-0.00000508,0.00000296,0.0003736
 5,-0.00043513,-0.00062657,0.00001629,0.00033670,-0.00034648,-0.0032980
 7,-0.00454901,0.00065396,0.00062040,0.00104164,-0.00050577,-0.00091389
 ,0.05835832,-0.00138857,0.00044667,0.00044069,0.00204117,-0.00177390,-
 0.00079633,-0.00009220,0.00040623,-0.00025839,0.00010375,0.00000545,-0
 .00005755,0.00002896,0.00005151,-0.00004677,-0.00005400,0.00003102,0.0
 0001655,-0.00018676,-0.00045785,-0.00008053,0.00171214,0.00026331,-0.0
 0261155,0.09801081,-0.00121593,-0.24506665,0.00129885,-0.00027551,-0.0
 0200797,0.00729804,0.00125833,-0.02257677,-0.00000593,-0.00005725,0.00
 017003,0.00000144,-0.00001167,0.00002218,-0.00001429,-0.00001458,0.000
 04022,0.00001809,0.00003734,0.00002039,-0.00005636,-0.00001228,-0.0000
 1849,-0.00001178,-0.00001420,0.00001991,0.00000586,0.00003197,-0.00000
 640,0.00001439,0.00000446,0.00000270,-0.00033828,0.00063886,0.00039236
 ,-0.00019410,0.00010317,0.00038006,0.00019940,0.00021360,0.00149631,0.
 00029662,0.00035804,0.00082521,-0.10495323,0.00108525,0.26900189,-0.00
 092854,0.00067475,0.00028466,0.00045669,-0.00170227,-0.00124975,-0.000
 04908,0.00005007,0.00015475,0.00015749,0.00003569,0.00003248,-0.000022
 95,-0.00000163,-0.00001187,-0.00006002,0.00002513,0.00001476,0.0000403
 1,0.00007144,0.00021107,0.00047271,-0.00101721,0.00009859,-0.01302684,
 -0.00024555,-0.01309244,-0.17297522,0.00508457,-0.13033905,-0.00152868
 ,0.00468440,0.00110835,-0.00001791,-0.00000289,0.00000580,0.00001062,-
 0.00004342,0.00002527,-0.00000806,0.00002444,0.00001110,0.00001726,0.0
 0001617,0.00001431,0.00001808,-0.00001692,-0.00004636,0.00000224,-0.00
 000625,-0.00000117,0.00000394,0.00003633,-0.00000696,0.00001632,0.0000
 0708,0.00000610,-0.00003558,0.00000859,0.00002522,0.00005961,0.0000258
 2,0.00005242,0.00005973,0.00003126,0.00007285,0.00066731,0.00047364,0.
 00018366,0.00016313,-0.00052075,0.00032037,0.18635910,0.00091001,-0.00
 084618,-0.00033418,0.00060520,0.00188076,0.00133120,-0.00015746,0.0000
 8178,-0.00013584,-0.00010186,-0.00002524,-0.00006529,0.00002008,0.0000
 1394,0.00000416,0.00002674,-0.00000309,-0.00000091,0.00009732,-0.00003
 467,-0.00019125,0.00067102,0.00153826,0.00104776,0.01897344,-0.0009147
 5,0.02193916,0.00468014,-0.04934968,0.00540441,0.00243215,-0.00566298,
 -0.00077078,0.00002384,-0.00000837,0.00000332,-0.00001533,0.00005672,-
 0.00002605,-0.00000264,-0.00001145,-0.00000796,-0.00001208,-0.00002055
 ,-0.00001633,-0.00001291,0.00000994,0.00003952,-0.00000059,0.00000153,
 0.00000157,-0.00000718,-0.00001476,-0.00000051,-0.00001403,-0.00001631
 ,-0.00000849,-0.00000061,0.00000561,0.00000040,-0.00009770,0.00004619,
 -0.00006138,-0.00007159,-0.00008584,-0.00000398,-0.00054345,-0.0004101
 8,-0.00050014,-0.00068187,0.00112368,-0.00029530,-0.00803837,0.0517188
 6,-0.00024967,0.00025922,-0.00015220,0.00018883,-0.00070077,0.00052470
 ,-0.00000737,-0.00002645,-0.00013490,0.00006814,0.00002507,0.00002647,
 -0.00001141,0.00000168,-0.00000448,-0.00002586,0.00001158,0.00000039,0
 .00024071,0.00017604,0.00019141,-0.00001772,-0.00022115,-0.00006067,0.
 00320381,-0.00019442,0.00207011,-0.13046640,0.00600037,-0.18771905,0.0
 0025006,0.00006595,0.00094144,-0.00000560,0.00000231,0.00001392,0.0000
 1277,-0.00002485,0.00000963,-0.00000333,0.00000962,0.00000381,0.000004
 45,0.00000318,0.00000600,0.00000943,-0.00000293,-0.00001191,-0.0000002
 2,-0.00000371,-0.00000036,0.00000136,0.00001469,-0.00000215,0.00000596
 ,0.00000240,0.00000460,0.00001568,-0.00002642,-0.00001774,-0.00002459,
 0.00007495,-0.00000717,-0.00010400,0.00002505,-0.00006154,0.00019698,0
 .00045648,0.00028016,-0.00009311,0.00054704,0.00072140,0.14421862,-0.0
 0582873,0.20034221,0.00016382,-0.00016847,-0.00003635,0.00003758,0.000
 24517,0.00020721,0.00018199,-0.00012649,0.00005160,-0.00002410,-0.0000
 0115,0.00000796,0.00000579,0.00000283,0.00000735,0.00001012,0.00001119
 ,0.00000248,0.00077053,0.00101695,-0.00009361,-0.00223024,0.00243630,0
 .00004727,0.01187832,0.01621838,-0.00249072,-0.14023526,-0.12497700,0.
 01319120,0.00130383,0.00025738,0.00027646,0.00000632,0.00000899,-0.000
 01674,-0.00000268,0.00000846,-0.00000471,0.00000132,-0.00000795,-0.000
 00380,-0.00000227,-0.00000464,-0.00000820,-0.00000637,0.00000491,0.000
 00995,-0.00000124,0.00000110,-0.00000219,-0.00000691,-0.00000992,-0.00
 000583,-0.00001101,-0.00001504,-0.00000454,0.00003226,-0.00007750,0.00
 001141,-0.00020615,0.00031916,0.00001471,-0.00001937,0.00012484,-0.000
 22614,0.00005611,0.00014262,0.00025463,0.00081105,-0.00087223,-0.00014
 925,-0.01306201,-0.01768487,0.00330052,0.14991306,0.00009155,0.0002133
 3,-0.00005117,0.00018540,-0.00034614,-0.00019854,-0.00021678,0.0002592
 3,-0.00011324,0.00011199,0.00012575,0.00008211,-0.00002601,-0.00004666
 ,-0.00000771,-0.00002067,-0.00001049,-0.00003509,-0.00184525,-0.000886
 50,0.00021649,0.00573320,-0.00340351,-0.00083830,-0.01759147,-0.022452
 73,0.00290656,-0.12408431,-0.21868108,0.01813972,-0.00158758,0.0010187
 3,-0.00033303,-0.00001741,0.00000892,0.00001977,0.00005649,-0.00007123
 ,0.00002294,0.00002474,-0.00001307,0.00000809,0.00000486,0.00003319,0.
 00003313,0.00000036,0.00000470,-0.00001064,-0.00000315,0.00000733,0.00
 000185,0.00002742,-0.00000546,0.00001091,0.00001990,0.00004972,0.00001
 927,0.00004639,0.00002423,-0.00005931,0.00041782,-0.00065837,-0.000022
 91,0.00008313,0.00027300,0.00016024,0.00007612,0.00028952,-0.00013889,
 -0.00008264,0.00102927,-0.00045275,0.00112391,0.00184058,-0.00081822,0
 .13492704,0.23914674,0.00007647,-0.00004331,-0.00002751,-0.00015589,-0
 .00001200,-0.00007687,0.00009819,-0.00011950,0.00000002,-0.00002265,0.
 00000317,0.00003251,-0.00000338,0.00000015,0.00000577,0.00001597,-0.00
 000948,-0.00000829,-0.00008243,-0.00014680,0.00060108,0.00038704,-0.00
 030113,0.00012812,-0.00204249,-0.00270746,-0.00120767,0.01299924,0.018
 14100,-0.05174521,0.00047301,0.00049457,0.00003278,0.00000218,-0.00001
 421,0.00000687,0.00000475,-0.00000090,-0.00000248,0.00000137,-0.000002
 55,-0.00000393,-0.00000535,-0.00000331,-0.00000436,0.00000161,0.000003
 45,0.00000614,0.00000129,0.00000188,0.00000110,-0.00000154,-0.00000803
 ,0.00000290,-0.00000293,0.00000116,-0.00000080,-0.00005749,0.00010579,
 -0.00001876,0.00003181,-0.00007085,-0.00001115,-0.00029528,-0.00034233
 ,0.00033611,0.00034969,0.00028366,0.00016026,-0.00051718,-0.00007489,0
 .00012150,-0.01397732,-0.02080837,0.00282313,-0.01455822,-0.01941104,0
 .05024437,0.00022122,-0.00015075,0.00006149,0.00004335,0.00025639,-0.0
 0028901,-0.00000495,-0.00007719,0.00016585,-0.00001926,-0.00001232,-0.
 00000576,-0.00000372,-0.00000618,0.00000669,0.00000752,0.00000011,0.00
 000601,0.00005141,-0.00000515,-0.00018005,0.00030361,-0.00109392,-0.00
 047082,-0.01013696,0.00095934,0.01688862,-0.10570339,0.00384684,0.1057
 3875,0.00067902,-0.00091320,0.00134420,0.00001298,0.00000314,-0.000036
 19,-0.00001109,0.00001368,-0.00000761,-0.00000129,0.00000647,-0.000008
 00,-0.00000268,-0.00001097,-0.00000705,0.00001291,0.00000034,0.0000030
 3,0.00000485,0.00000196,-0.00000557,-0.00000442,-0.00000221,-0.0000018
 2,-0.00000490,-0.00000850,-0.00000494,0.00003980,-0.00016681,-0.000068
 17,0.00000989,0.00004020,-0.00006403,0.00057206,0.00039446,-0.00025590
 ,0.00005213,0.00004391,-0.00009170,-0.00141726,0.00359837,-0.00009068,
 0.01257195,-0.00090760,-0.02077924,-0.00915657,0.00146395,0.01739168,0
 .11202402,-0.00020311,0.00008301,-0.00002249,-0.00015975,-0.00006263,-
 0.00005018,-0.00001643,0.00006059,-0.00004955,-0.00001030,-0.00001227,
 -0.00000739,0.00000583,0.00001476,-0.00000632,0.00000103,-0.00000246,0
 .00000055,0.00009805,-0.00010708,0.00012716,0.00070363,0.00199894,-0.0
 0139626,0.01403050,-0.00210848,-0.02651334,0.00372770,-0.04946479,-0.0
 0789955,-0.00114724,0.00100131,-0.00091504,0.00001010,-0.00002438,0.00
 004079,-0.00000655,0.00000738,-0.00000074,-0.00000416,-0.00000374,0.00
 000529,0.00000084,0.00000247,-0.00000220,-0.00001302,0.00000048,0.0000
 0226,-0.00000077,-0.00000211,0.00000537,-0.00000202,0.00000221,0.00000
 088,0.00000029,-0.00000288,-0.00000152,-0.00018334,0.00010264,0.000199
 84,-0.00005968,-0.00000623,0.00010308,-0.00041625,-0.00029933,0.000715
 82,-0.00006257,-0.00010924,0.00001174,0.00340093,-0.00471629,-0.000366
 32,-0.00065513,-0.00092217,0.00042873,-0.01147193,0.00201240,0.0248723
 6,-0.00753789,0.05232334,0.00005038,-0.00005605,-0.00010969,-0.0001137
 9,0.00016437,0.00036910,0.00002120,-0.00002370,-0.00009572,-0.00002264
 ,0.00000467,0.00000600,0.00000222,0.00000517,-0.00000256,0.00001211,-0
 .00000725,-0.00000926,-0.00025369,-0.00016357,0.00036723,-0.00003605,0
 .00052844,0.00009673,0.00108518,-0.00067330,-0.00314667,0.10594197,-0.
 00828249,-0.25121701,-0.00054549,0.00014737,0.00121680,0.00000976,-0.0
 0000376,0.00002782,0.00000564,0.00000004,0.00000075,0.00000203,-0.0000
 0819,0.00000147,0.00000033,0.00000389,-0.00000118,-0.00001226,0.000000
 97,0.00000607,-0.00000270,0.00000081,0.00000895,0.00000031,-0.00000748
 ,0.00000317,-0.00000003,0.00000307,-0.00000118,-0.00009051,0.00020733,
 0.00000003,0.00003384,-0.00010286,-0.00000929,-0.00030465,-0.00071302,
 0.00036132,0.00008506,-0.00000147,-0.00004892,0.00004882,-0.00065129,0
 .00149727,0.01171779,-0.00039805,-0.02019121,0.00019814,0.00037287,-0.
 00153457,-0.11832902,0.00978142,0.27193756,0.00187219,-0.00094920,0.00
 006474,0.01101739,0.01520240,-0.00230279,-0.00204760,0.00241420,0.0003
 2505,0.00070331,0.00069278,0.00001318,0.00000874,-0.00002543,-0.000079
 19,-0.00021438,0.00018691,0.00003473,-0.00020674,0.00030988,0.00001766
 ,-0.00248221,0.00180316,-0.00432770,-0.01374225,-0.01668100,0.00411234
 ,0.00048161,-0.00127579,0.00068302,-0.15962627,-0.13220466,0.01978276,
 -0.00008377,-0.00004439,-0.00003886,0.00008039,-0.00004931,-0.00000176
 ,-0.00000503,0.00000034,0.00002274,0.00000362,0.00002031,0.00002911,-0
 .00000175,-0.00001920,0.00001497,-0.00000007,-0.00000737,-0.00001172,0
 .00005671,0.00008766,-0.00002987,0.00002215,0.00002968,0.00001751,0.00
 006091,-0.00004986,0.00000732,0.00008347,-0.00009566,0.00003781,0.0003
 1302,0.00035596,0.00003166,-0.00075865,-0.00145187,-0.00013014,0.00115
 261,0.00031560,0.00001196,0.00035837,0.00027821,-0.00006573,-0.0000920
 9,0.00099688,-0.00023275,-0.00004171,0.00001439,-0.00004692,0.17150161
 ,-0.00008034,0.00604394,-0.00066249,-0.02265876,-0.02688295,0.00405898
 ,0.00524599,-0.00315547,-0.00070071,-0.00169789,-0.00067335,-0.0000452
 6,0.00000305,-0.00012996,0.00019348,0.00053959,-0.00035662,-0.00009474
 ,0.00029716,0.00016925,0.00035846,0.00088969,0.00083855,0.00009979,0.0
 0165694,0.00141698,-0.00127562,0.00050366,0.00087821,0.00000332,-0.127
 73157,-0.20093747,0.02330412,0.00014907,0.00051645,0.00015660,0.000043
 02,0.00001435,0.00007242,0.00006493,-0.00004138,-0.00008138,-0.0000024
 2,0.00001265,-0.00003132,0.00001392,0.00002879,-0.00007032,-0.00000423
 ,0.00003443,0.00000893,-0.00009215,-0.00022677,0.00006610,-0.00003418,
 0.00000976,-0.00002148,-0.00004996,-0.00000507,-0.00011842,-0.00008588
 ,-0.00000737,-0.00008424,-0.00000648,-0.00003687,0.00007588,0.00006532
 ,0.00023500,0.00012052,-0.00008551,0.00013951,-0.00040376,-0.00004716,
 0.00011346,-0.00010206,-0.00022804,0.00029025,0.00006265,0.00004506,-0
 .00001341,-0.00001438,0.14034110,0.21840077,-0.00073027,0.00033057,-0.
 00122290,0.00023545,-0.00288042,-0.00045383,0.00028047,0.00039560,0.00
 102356,0.00006720,-0.00002989,0.00041681,-0.00006968,0.00005190,-0.000
 04173,-0.00001288,-0.00004563,-0.00002736,-0.00010426,0.00058902,-0.00
 007780,-0.00305847,0.00130890,-0.00350795,-0.01544730,-0.01911883,0.00
 302536,0.00073981,-0.00076835,0.00049473,0.01931384,0.02355959,-0.0537
 2974,-0.00043570,-0.00028048,0.00030921,0.00002812,-0.00005294,0.00000
 084,-0.00000939,0.00001368,0.00003456,0.00001018,0.00001194,0.00001695
 ,0.00001204,-0.00000720,-0.00000554,0.00001086,-0.00000147,0.00000025,
 0.00000224,-0.00000085,0.00000162,0.00001021,0.00001590,0.00000980,0.0
 0003785,-0.00002154,-0.00001469,0.00011997,-0.00004370,0.00006087,-0.0
 0031242,-0.00011128,0.00025007,-0.00100876,-0.00122217,0.00022108,0.00
 089060,-0.00038503,0.00089504,0.00024198,-0.00008482,-0.00009582,0.000
 08212,0.00044007,0.00018842,0.00000398,0.00016883,-0.00001688,-0.01912
 517,-0.02496185,0.05492006,-0.00112035,0.00380912,-0.00314795,-0.01073
 432,-0.00012319,0.01682649,0.00006465,-0.00028650,-0.00076237,-0.00004
 589,0.00010444,-0.00039797,0.00002544,-0.00011885,0.00002081,-0.000023
 41,0.00002888,0.00003506,-0.00015585,-0.00031636,-0.00007978,0.0016182
 0,0.00036893,-0.00025320,0.00876997,-0.00216190,-0.02395922,0.00173775
 ,-0.00045868,-0.00045711,-0.09169077,0.00691872,0.10297400,0.00067685,
 0.00021774,-0.00037756,-0.00001220,-0.00005274,0.00006922,0.00001294,0
 .00000376,-0.00003636,0.00000915,0.00000831,-0.00000329,0.00001712,-0.
 00000366,-0.00003668,0.00001335,0.00000766,-0.00001306,-0.00000091,0.0
 0002023,-0.00000042,0.00000794,0.00000522,-0.00001200,-0.00010598,0.00
 005046,-0.00000299,-0.00002128,-0.00001893,-0.00002283,-0.00017009,0.0
 0004412,0.00043069,0.00020277,0.00035739,0.00020843,-0.00313517,0.0001
 7007,-0.00382641,0.00028004,-0.00036801,0.00013694,-0.00011582,0.00008
 410,0.00012062,-0.00009850,-0.00004313,0.00054298,-0.00841356,0.002946
 06,0.01822739,0.10240794,0.00262640,-0.00284932,0.00347124,0.01227028,
 0.00139712,-0.02870022,-0.00129299,-0.00022392,0.00313017,0.00015703,0
 .00007413,0.00046086,-0.00004114,0.00009706,-0.00002733,0.00003144,-0.
 00002408,-0.00001911,0.00052696,0.00021218,0.00017601,0.00050223,0.000
 06029,-0.00110156,-0.00112722,0.00030891,0.00135593,-0.00063708,0.0002
 8715,0.00107724,0.00847548,-0.05292631,-0.02386914,-0.00044213,-0.0017
 3915,0.00003034,-0.00002463,0.00008816,-0.00008091,-0.00003021,-0.0000
 0027,0.00002760,-0.00000863,-0.00002449,-0.00001718,-0.00002067,0.0000
 1003,0.00005819,-0.00000116,0.00000176,0.00000443,-0.00000306,-0.00001
 897,-0.00001309,-0.00001097,-0.00001752,0.00000411,-0.00000073,0.00008
 809,0.00005508,0.00004066,-0.00001473,0.00000675,-0.00024502,0.0001045
 1,0.00001825,-0.00002751,-0.00000527,0.00014253,0.00060901,0.00070635,
 0.00041612,-0.00007572,-0.00010506,-0.00015466,-0.00008010,-0.00005163
 ,0.00010630,0.00021848,0.00024794,-0.00011361,-0.01019574,0.00332434,0
 .02313044,-0.01119326,0.05099269,-0.00053325,-0.00068980,-0.00072634,0
 .00080417,0.00034244,0.00041693,0.00086173,0.00007720,-0.00074696,-0.0
 0013276,-0.00019894,0.00026435,-0.00003711,0.00011383,-0.00004390,0.00
 001560,-0.00004267,-0.00002825,-0.00042393,-0.00005053,-0.00010170,0.0
 0151941,0.00060139,0.00070036,0.00890467,-0.00159365,-0.02653435,0.001
 67553,-0.00074353,0.00122310,0.09931390,-0.01865367,-0.24196725,-0.000
 36761,0.00014953,0.00065287,0.00001115,0.00003701,-0.00002664,-0.00001
 311,0.00000112,0.00004103,0.00000203,0.00000494,0.00000716,-0.00002323
 ,0.00000405,0.00002127,-0.00000399,-0.00001451,0.00002406,-0.00000659,
 -0.00000646,0.00001255,0.00000204,-0.00000016,0.00000406,-0.00000802,0
 .00017581,0.00015308,0.00001376,-0.00005050,0.00001902,-0.00079325,-0.
 00067703,0.00057052,-0.00013115,0.00016771,0.00044511,-0.00457995,-0.0
 0005604,-0.00253633,-0.00007521,-0.00023314,0.00049983,-0.00006271,0.0
 0005684,-0.00004946,-0.00091473,0.00076678,0.00048387,0.00118605,0.000
 08675,-0.00267502,-0.10620343,0.02042523,0.26989703\\0.00002305,0.0000
 2144,0.00002706,0.00001208,0.00002234,0.00014884,-0.00005255,-0.000090
 01,-0.00011491,0.00002402,-0.00000537,0.00007590,-0.00007440,0.0000485
 7,0.00001749,-0.00000573,-0.00002510,0.00004447,0.00005509,-0.00008537
 ,0.00005749,-0.00003075,0.00002503,-0.00004730,-0.00001416,0.00002884,
 0.00011238,-0.00002600,0.00005850,-0.00002852,0.00002046,-0.00002934,-
 0.00015497,0.00000074,0.00000173,0.00001312,-0.00003335,0.00002155,-0.
 00002928,0.00003248,-0.00006074,-0.00000605,-0.00012036,0.00005001,-0.
 00008417,0.00014884,0.00001670,-0.00004541,0.00000509,-0.00001634,-0.0
 0004563,-0.00003443,0.00003580,0.00001484,0.00005224,-0.00000132,0.000
 03352,0.00001953,-0.00004156,-0.00000161,0.00000417,-0.00001037,-0.000
 00424,-0.00000256,0.00001718,-0.00000388,-0.00000554,0.00000676,0.0000
 0074,-0.00002257,-0.00000900,0.00001939,-0.00001070,0.00001455,0.00000
 151,-0.00001337,0.00001517,-0.00000015,0.00001344,-0.00000868,-0.00001
 753,0.00001395,0.00000428,0.00002016,0.00002129,-0.00000523,-0.0000032
 8\\\@


 WE THE UNWILLING
 LED BY THE UNQUALIFIED
 HAVE BEEN DOING THE UNBELIEVABLE SO LONG WITH SO LITTLE
 THAT WE NOW ATTEMPT THE IMPOSSIBLE WITH NOTHING.

                                    -- ANONYMOUS
 Job cpu time:       0 days  0 hours  2 minutes 42.5 seconds.
 Elapsed time:       0 days  0 hours  2 minutes 46.4 seconds.
 File lengths (MBytes):  RWF=    140 Int=      0 D2E=      0 Chk=      5 Scr=      1
 Normal termination of Gaussian 16 at Thu Feb 22 10:43:23 2024.
