 Entering Gaussian System, Link 0=g16
 Input=/Volumes/SSD-PMU3/b3lyp_6-31gd_freq/IDLGIHBIYUUVMY-QEYWKRMJSA-N_calculating/gaussianinput0.gjf
 Output=/Volumes/SSD-PMU3/b3lyp_6-31gd_freq/IDLGIHBIYUUVMY-QEYWKRMJSA-N_calculating/gaussianinput0.log
 Initial command:
 /Applications/g16/l1.exe "/Users/macmini_m1_2022/PycharmProjects/sphere_model/sphere_model_lib/Gau-62129.inp" -scrdir="/Users/macmini_m1_2022/PycharmProjects/sphere_model/sphere_model_lib/"
 Entering Link 1 = /Applications/g16/l1.exe PID=     62130.
  
 Copyright (c) 1988,1990,1992,1993,1995,1998,2003,2009,2016,
            Gaussian, Inc.  All Rights Reserved.
  
 This is part of the Gaussian(R) 16 program.  It is based on
 the Gaussian(R) 09 system (copyright 2009, Gaussian, Inc.),
 the Gaussian(R) 03 system (copyright 2003, Gaussian, Inc.),
 the Gaussian(R) 98 system (copyright 1998, Gaussian, Inc.),
 the Gaussian(R) 94 system (copyright 1995, Gaussian, Inc.),
 the Gaussian 92(TM) system (copyright 1992, Gaussian, Inc.),
 the Gaussian 90(TM) system (copyright 1990, Gaussian, Inc.),
 the Gaussian 88(TM) system (copyright 1988, Gaussian, Inc.),
 the Gaussian 86(TM) system (copyright 1986, Carnegie Mellon
 University), and the Gaussian 82(TM) system (copyright 1983,
 Carnegie Mellon University). Gaussian is a federally registered
 trademark of Gaussian, Inc.
  
 This software contains proprietary and confidential information,
 including trade secrets, belonging to Gaussian, Inc.
  
 This software is provided under written license and may be
 used, copied, transmitted, or stored only in accord with that
 written license.
  
 The following legend is applicable only to US Government
 contracts under FAR:
  
                    RESTRICTED RIGHTS LEGEND
  
 Use, reproduction and disclosure by the US Government is
 subject to restrictions as set forth in subparagraphs (a)
 and (c) of the Commercial Computer Software - Restricted
 Rights clause in FAR 52.227-19.
  
 Gaussian, Inc.
 340 Quinnipiac St., Bldg. 40, Wallingford CT 06492
  
  
 ---------------------------------------------------------------
 Warning -- This program may not be used in any manner that
 competes with the business of Gaussian, Inc. or will provide
 assistance to any competitor of Gaussian, Inc.  The licensee
 of this program is prohibited from giving any competitor of
 Gaussian, Inc. access to this program.  By using this program,
 the user acknowledges that Gaussian, Inc. is engaged in the
 business of creating and licensing software in the field of
 computational chemistry and represents and warrants to the
 licensee that it is not a competitor of Gaussian, Inc. and that
 it will not use this program in any manner prohibited above.
 ---------------------------------------------------------------
  

 Cite this work as:
 Gaussian 16, Revision A.03,
 M. J. Frisch, G. W. Trucks, H. B. Schlegel, G. E. Scuseria, 
 M. A. Robb, J. R. Cheeseman, G. Scalmani, V. Barone, 
 G. A. Petersson, H. Nakatsuji, X. Li, M. Caricato, A. V. Marenich, 
 J. Bloino, B. G. Janesko, R. Gomperts, B. Mennucci, H. P. Hratchian, 
 J. V. Ortiz, A. F. Izmaylov, J. L. Sonnenberg, D. Williams-Young, 
 F. Ding, F. Lipparini, F. Egidi, J. Goings, B. Peng, A. Petrone, 
 T. Henderson, D. Ranasinghe, V. G. Zakrzewski, J. Gao, N. Rega, 
 G. Zheng, W. Liang, M. Hada, M. Ehara, K. Toyota, R. Fukuda, 
 J. Hasegawa, M. Ishida, T. Nakajima, Y. Honda, O. Kitao, H. Nakai, 
 T. Vreven, K. Throssell, J. A. Montgomery, Jr., J. E. Peralta, 
 F. Ogliaro, M. J. Bearpark, J. J. Heyd, E. N. Brothers, K. N. Kudin, 
 V. N. Staroverov, T. A. Keith, R. Kobayashi, J. Normand, 
 K. Raghavachari, A. P. Rendell, J. C. Burant, S. S. Iyengar, 
 J. Tomasi, M. Cossi, J. M. Millam, M. Klene, C. Adamo, R. Cammi, 
 J. W. Ochterski, R. L. Martin, K. Morokuma, O. Farkas, 
 J. B. Foresman, and D. J. Fox, Gaussian, Inc., Wallingford CT, 2016.
 
 ******************************************
 Gaussian 16:  EM64M-G16RevA.03 25-Dec-2016
                22-Feb-2024 
 ******************************************
 %nprocshared=8
 Will use up to    8 processors via shared memory.
 %mem=8GB
 %chk= 0.chk
 ---------------------
 # freq b3lyp/6-31g(d)
 ---------------------
 1/10=4,30=1,38=1/1,3;
 2/12=2,17=6,18=5,40=1/2;
 3/5=1,6=6,7=1,11=2,25=1,30=1,71=2,74=-5,140=1/1,2,3;
 4//1;
 5/5=2,38=5,98=1/2;
 8/6=4,10=90,11=11/1;
 11/6=1,8=1,9=11,15=111,16=1/1,2,10;
 10/6=1/2;
 6/7=2,8=2,9=2,10=2,28=1/1;
 7/8=1,10=1,25=1/1,2,3,16;
 1/10=4,30=1/3;
 99//99;
 ---------
 good luck
 ---------
 Symbolic Z-matrix:
 Charge =  0 Multiplicity = 1
 O                     1.21553   0.        0. 
 C                     0.        0.        0. 
 C                    -0.83001  -1.28891  -0.02477 
 C                    -2.25322  -1.06393   0.53381 
 C                    -2.15761  -0.80297   2.05386 
 C                    -1.29855   0.42941   2.41155 
 C                    -3.00501   0.0736   -0.27159 
 C                    -1.99424   0.96476  -1.02057 
 C                    -0.85283   1.26522  -0.02477 
 C                    -1.43462   1.60012   1.41191 
 C                    -2.9002    2.07794   1.30393 
 C                    -3.82726   1.03385   0.61618 
 H                    -0.87149  -1.63177  -1.06848 
 H                    -0.29043  -2.06379   0.53074 
 H                    -2.82065  -1.99371   0.40293 
 H                    -3.16303  -0.69532   2.47315 
 H                    -1.73169  -1.69343   2.53449 
 H                    -0.2413    0.14358   2.47872 
 H                    -1.5726    0.78673   3.41251 
 H                    -3.67804  -0.41071  -0.98914 
 H                    -2.47908   1.88762  -1.35982 
 H                    -1.59769   0.48118  -1.92127 
 H                    -0.22007   2.09067  -0.36489 
 H                    -0.83514   2.42649   1.81151 
 H                    -2.91959   3.0157    0.735 
 H                    -3.2755    2.32562   2.30448 
 H                    -4.42087   0.48302   1.35263 
 H                    -4.5508    1.55789  -0.02082 
 

 GradGradGradGradGradGradGradGradGradGradGradGradGradGradGradGradGradGrad
 Berny optimization.
 Initialization pass.
 Trust Radius=3.00D-01 FncErr=1.00D-07 GrdErr=1.00D-07 EigMax=2.50D+02 EigMin=1.00D-04
 Number of steps in this run=      2 maximum allowed number of steps=      2.
 GradGradGradGradGradGradGradGradGradGradGradGradGradGradGradGradGradGrad

                          Input orientation:                          
 ---------------------------------------------------------------------
 Center     Atomic      Atomic             Coordinates (Angstroms)
 Number     Number       Type             X           Y           Z
 ---------------------------------------------------------------------
      1          8           0        1.215527    0.000000    0.000000
      2          6           0        0.000000    0.000000    0.000000
      3          6           0       -0.830008   -1.288910   -0.024765
      4          6           0       -2.253222   -1.063934    0.533810
      5          6           0       -2.157614   -0.802971    2.053862
      6          6           0       -1.298548    0.429408    2.411550
      7          6           0       -3.005011    0.073599   -0.271585
      8          6           0       -1.994243    0.964762   -1.020573
      9          6           0       -0.852826    1.265221   -0.024765
     10          6           0       -1.434621    1.600120    1.411906
     11          6           0       -2.900200    2.077941    1.303933
     12          6           0       -3.827256    1.033854    0.616179
     13          1           0       -0.871490   -1.631772   -1.068482
     14          1           0       -0.290428   -2.063786    0.530739
     15          1           0       -2.820651   -1.993714    0.402927
     16          1           0       -3.163025   -0.695315    2.473145
     17          1           0       -1.731694   -1.693428    2.534490
     18          1           0       -0.241299    0.143576    2.478723
     19          1           0       -1.572599    0.786728    3.412513
     20          1           0       -3.678035   -0.410710   -0.989144
     21          1           0       -2.479075    1.887624   -1.359820
     22          1           0       -1.597686    0.481184   -1.921270
     23          1           0       -0.220072    2.090674   -0.364888
     24          1           0       -0.835142    2.426487    1.811509
     25          1           0       -2.919585    3.015702    0.734997
     26          1           0       -3.275503    2.325623    2.304480
     27          1           0       -4.420871    0.483023    1.352634
     28          1           0       -4.550799    1.557888   -0.020818
 ---------------------------------------------------------------------
                    Distance matrix (angstroms):
                    1          2          3          4          5
     1  O    0.000000
     2  C    1.215527   0.000000
     3  C    2.417874   1.533237   0.000000
     4  C    3.667305   2.548317   1.545367   0.000000
     5  C    4.030036   3.085192   2.513835   1.545251   0.000000
     6  C    3.510062   2.772398   3.017909   2.582127   1.544245
     7  C    4.229907   3.018156   2.578369   1.583613   2.625673
     8  C    3.503564   2.439127   2.725090   2.568810   3.550172
     9  C    2.424764   1.526011   2.554233   2.774541   3.209452
    10  C    3.402521   2.571381   3.282693   2.922044   2.590304
    11  C    4.791377   3.798584   4.169750   3.298947   3.068140
    12  C    5.184418   4.012034   3.845717   2.623944   2.868547
    13  H    2.856567   2.136312   1.099373   2.190654   3.477076
    14  H    2.609367   2.150638   1.095520   2.202788   2.719548
    15  H    4.519732   3.477545   2.154606   1.097086   2.140811
    16  H    5.076576   4.074879   3.469132   2.173624   1.094641
    17  H    4.239982   3.505724   2.743439   2.161244   1.097873
    18  H    2.878719   2.494576   2.943815   3.047721   2.179156
    19  H    4.476364   3.838913   4.083454   3.489288   2.171478
    20  H    5.009395   3.830800   3.132494   2.185448   3.424242
    21  H    4.366042   3.399713   3.819969   3.514049   4.358424
    22  H    3.440492   2.544684   2.705419   2.973976   4.214765
    23  H    2.562227   2.133657   3.450984   3.859133   4.240000
    24  H    3.657136   3.141157   4.144406   3.978254   3.498152
    25  H    5.170477   4.261297   4.844921   4.138592   4.111237
    26  H    5.557742   4.631206   4.946784   3.958463   3.331754
    27  H    5.816521   4.648336   4.234533   2.786082   2.695892
    28  H    5.973103   4.810116   4.684929   3.529932   3.950353
                    6          7          8          9         10
     6  C    0.000000
     7  C    3.199661   0.000000
     8  C    3.542607   1.541689   0.000000
     9  C    2.613978   2.472404   1.544261   0.000000
    10  C    1.545435   2.762342   2.575618   1.585770   0.000000
    11  C    2.551424   2.551593   2.731896   2.572488   1.545281
    12  C    3.159601   1.544766   2.458387   3.051487   2.584287
    13  H    4.067120   2.845215   2.829286   3.079328   4.112732
    14  H    3.281733   3.546985   3.805477   3.421573   3.938253
    15  H    3.496124   2.182370   3.385540   3.830915   3.981804
    16  H    2.178318   2.854775   4.040789   3.926866   3.063108
    17  H    2.170060   3.552151   4.446727   4.009464   3.492264
    18  H    1.097264   3.899640   3.999029   2.810606   2.164171
    19  H    1.097592   4.016583   4.456650   3.544278   2.164041
    20  H    4.234675   1.096543   2.174412   3.423533   3.852452
    21  H    4.212276   2.179805   1.096278   2.194184   2.975905
    22  H    4.343443   2.206388   1.096522   2.183177   3.519754
    23  H    3.410502   3.439939   2.201200   1.094273   2.207435
    24  H    2.136146   3.818860   3.391289   2.172730   1.096330
    25  H    3.482457   3.110703   2.853881   2.812990   2.160369
    26  H    2.741431   3.432330   3.814387   3.524088   2.170689
    27  H    3.297435   2.193257   3.428222   3.903845   3.188904
    28  H    4.215094   2.157651   2.808431   3.709538   3.430021
                   11         12         13         14         15
    11  C    0.000000
    12  C    1.556456   0.000000
    13  H    4.848297   4.322059   0.000000
    14  H    4.956071   4.702321   1.755499   0.000000
    15  H    4.170913   3.197639   2.468861   2.534418   0.000000
    16  H    3.021106   2.622890   4.321019   3.727931   2.467562
    17  H    4.135565   3.938193   3.704748   2.495883   2.412376
    18  H    3.491655   4.137723   4.016424   2.944402   3.940811
    19  H    2.806397   3.600560   5.140040   4.251354   4.283235
    20  H    3.472263   2.164739   3.061696   4.064306   2.275713
    21  H    2.703543   2.539899   3.880123   4.896737   4.276533
    22  H    3.827285   3.422729   2.391483   3.768042   3.608692
    23  H    3.157247   3.884731   3.843956   4.250487   4.902528
    24  H    2.154897   3.510126   4.976458   4.701025   5.046239
    25  H    1.097023   2.183050   5.389457   5.723232   5.021385
    26  H    1.096947   2.196237   5.728623   5.596762   4.741252
    27  H    2.204218   1.094605   4.788765   4.921616   3.097882
    28  H    2.179426   1.097220   4.980848   5.618852   3.973267
                   16         17         18         19         20
    16  H    0.000000
    17  H    1.746053   0.000000
    18  H    3.039778   2.366214   0.000000
    19  H    2.368189   2.635794   1.748705   0.000000
    20  H    3.511934   4.224879   4.913704   5.024072   0.000000
    21  H    4.672364   5.343048   4.773233   4.980847   2.618634
    22  H    4.810958   4.959909   4.616677   5.342586   2.447894
    23  H    4.947438   5.001082   3.446413   4.218811   4.313250
    24  H    3.949994   4.277874   2.451430   2.407461   4.896467
    25  H    4.105127   5.179302   4.296848   3.735209   3.910014
    26  H    3.027733   4.311499   3.741401   2.548689   4.300873
    27  H    2.055773   3.655871   4.341903   3.528171   2.614285
    28  H    3.636302   5.004798   5.178781   4.610003   2.361091
                   21         22         23         24         25
    21  H    0.000000
    22  H    1.752183   0.000000
    23  H    2.476734   2.628803   0.000000
    24  H    3.612508   4.277770   2.286435   0.000000
    25  H    2.419683   3.902173   3.058234   2.418875   0.000000
    26  H    3.775346   4.906525   4.064036   2.491697   1.751046
    27  H    3.619514   4.323057   4.814679   4.104275   3.008288
    28  H    2.488713   3.673130   4.376921   4.232965   2.314592
                   26         27         28
    26  H    0.000000
    27  H    2.369188   0.000000
    28  H    2.760943   1.748881   0.000000
 Stoichiometry    C11H16O
 Framework group  C1[X(C11H16O)]
 Deg. of freedom    78
 Full point group                 C1      NOp   1
 Largest Abelian subgroup         C1      NOp   1
 Largest concise Abelian subgroup C1      NOp   1
                         Standard orientation:                         
 ---------------------------------------------------------------------
 Center     Atomic      Atomic             Coordinates (Angstroms)
 Number     Number       Type             X           Y           Z
 ---------------------------------------------------------------------
      1          8           0       -2.839748   -0.553042    0.565286
      2          6           0       -1.751689   -0.368292    0.055874
      3          6           0       -1.505151    0.708296   -1.007608
      4          6           0       -0.015971    1.115661   -1.075093
      5          6           0        0.350382    1.884395    0.214338
      6          6           0        0.133536    1.060181    1.502105
      7          6           0        0.903221   -0.141640   -1.361641
      8          6           0        0.163980   -1.445788   -1.001743
      9          6           0       -0.512372   -1.203239    0.365173
     10          6           0        0.469154   -0.440678    1.349944
     11          6           0        1.937904   -0.645712    0.915632
     12          6           0        2.210731   -0.164905   -0.539341
     13          1           0       -1.840644    0.299504   -1.971431
     14          1           0       -2.154289    1.565011   -0.795889
     15          1           0        0.107629    1.814734   -1.911524
     16          1           0        1.388599    2.226514    0.156908
     17          1           0       -0.258384    2.796823    0.261284
     18          1           0       -0.906078    1.157055    1.839456
     19          1           0        0.747060    1.478557    2.310349
     20          1           0        1.154849   -0.138342   -2.428918
     21          1           0        0.870611   -2.282508   -0.952772
     22          1           0       -0.584012   -1.723548   -1.753885
     23          1           0       -0.843416   -2.137353    0.829152
     24          1           0        0.339828   -0.894029    2.339736
     25          1           0        2.180292   -1.712268    1.000285
     26          1           0        2.600226   -0.130012    1.621801
     27          1           0        2.703221    0.812598   -0.549358
     28          1           0        2.910142   -0.858068   -1.023325
 ---------------------------------------------------------------------
 Rotational constants (GHZ):           1.4757966           0.9636060           0.9520234
 Standard basis: 6-31G(d) (6D, 7F)
 There are   212 symmetry adapted cartesian basis functions of A   symmetry.
 There are   212 symmetry adapted basis functions of A   symmetry.
   212 basis functions,   400 primitive gaussians,   212 cartesian basis functions
    45 alpha electrons       45 beta electrons
       nuclear repulsion energy       779.5449231730 Hartrees.
 NAtoms=   28 NActive=   28 NUniq=   28 SFac= 1.00D+00 NAtFMM=   60 NAOKFM=F Big=F
 Integral buffers will be    131072 words long.
 Raffenetti 2 integral format.
 Two-electron integral symmetry is turned on.
 One-electron integrals computed using PRISM.
 NBasis=   212 RedAO= T EigKep=  1.46D-03  NBF=   212
 NBsUse=   212 1.00D-06 EigRej= -1.00D+00 NBFU=   212
 ExpMin= 1.61D-01 ExpMax= 5.48D+03 ExpMxC= 8.25D+02 IAcc=3 IRadAn=         5 AccDes= 0.00D+00
 Harris functional with IExCor=  402 and IRadAn=       5 diagonalized for initial guess.
 HarFok:  IExCor=  402 AccDes= 0.00D+00 IRadAn=         5 IDoV= 1 UseB2=F ITyADJ=14
 ICtDFT=  3500011 ScaDFX=  1.000000  1.000000  1.000000  1.000000
 FoFCou: FMM=F IPFlag=           0 FMFlag=      100000 FMFlg1=           0
         NFxFlg=           0 DoJE=T BraDBF=F KetDBF=T FulRan=T
         wScrn=  0.000000 ICntrl=       500 IOpCl=  0 I1Cent=   200000004 NGrid=           0
         NMat0=    1 NMatS0=      1 NMatT0=    0 NMatD0=    1 NMtDS0=    0 NMtDT0=    0
 Petite list used in FoFCou.
 Requested convergence on RMS density matrix=1.00D-08 within 128 cycles.
 Requested convergence on MAX density matrix=1.00D-06.
 Requested convergence on             energy=1.00D-06.
 No special actions if energy rises.
 Integral accuracy reduced to 1.0D-05 until final iterations.
 Initial convergence to 1.0D-05 achieved.  Increase integral accuracy.
 SCF Done:  E(RB3LYP) =  -504.025023090     A.U. after   13 cycles
            NFock= 13  Conv=0.90D-08     -V/T= 2.0097
 DoSCS=F DFT=T ScalE2(SS,OS)=  1.000000  1.000000
 Range of M.O.s used for correlation:     1   212
 NBasis=   212 NAE=    45 NBE=    45 NFC=     0 NFV=     0
 NROrb=    212 NOA=    45 NOB=    45 NVA=   167 NVB=   167
 Symmetrizing basis deriv contribution to polar:
 IMax=3 JMax=2 DiffMx= 0.00D+00
 G2DrvN: will do    29 centers at a time, making    1 passes.
 Calling FoFCou, ICntrl=  3107 FMM=F I1Cent=   0 AccDes= 0.00D+00.
 End of G2Drv F.D. properties file   721 does not exist.
 End of G2Drv F.D. properties file   722 does not exist.
 End of G2Drv F.D. properties file   788 does not exist.
          IDoAtm=1111111111111111111111111111
          Differentiating once with respect to electric field.
                with respect to dipole field.
          Differentiating once with respect to nuclear coordinates.
 Keep R1 ints in memory in canonical form, NReq=263237184.
          There are    87 degrees of freedom in the 1st order CPHF.  IDoFFX=6 NUNeed=     3.
     84 vectors produced by pass  0 Test12= 8.64D-15 1.15D-09 XBig12= 7.85D+01 2.59D+00.
 AX will form    84 AO Fock derivatives at one time.
     84 vectors produced by pass  1 Test12= 8.64D-15 1.15D-09 XBig12= 9.90D+00 1.03D+00.
     84 vectors produced by pass  2 Test12= 8.64D-15 1.15D-09 XBig12= 1.04D-01 4.95D-02.
     84 vectors produced by pass  3 Test12= 8.64D-15 1.15D-09 XBig12= 3.61D-04 1.98D-03.
     84 vectors produced by pass  4 Test12= 8.64D-15 1.15D-09 XBig12= 4.17D-07 5.51D-05.
     41 vectors produced by pass  5 Test12= 8.64D-15 1.15D-09 XBig12= 2.76D-10 1.87D-06.
      4 vectors produced by pass  6 Test12= 8.64D-15 1.15D-09 XBig12= 1.79D-13 3.73D-08.
      1 vectors produced by pass  7 Test12= 8.64D-15 1.15D-09 XBig12= 1.30D-16 1.42D-09.
 InvSVY:  IOpt=1 It=  1 EMax= 1.78D-15
 Solved reduced A of dimension   466 with    87 vectors.
 Isotropic polarizability for W=    0.000000      104.42 Bohr**3.
 End of Minotr F.D. properties file   721 does not exist.
 End of Minotr F.D. properties file   722 does not exist.
 End of Minotr F.D. properties file   788 does not exist.

 **********************************************************************

            Population analysis using the SCF density.

 **********************************************************************

 Orbital symmetries:
       Occupied  (A) (A) (A) (A) (A) (A) (A) (A) (A) (A) (A) (A)
                 (A) (A) (A) (A) (A) (A) (A) (A) (A) (A) (A) (A)
                 (A) (A) (A) (A) (A) (A) (A) (A) (A) (A) (A) (A)
                 (A) (A) (A) (A) (A) (A) (A) (A) (A)
       Virtual   (A) (A) (A) (A) (A) (A) (A) (A) (A) (A) (A) (A)
                 (A) (A) (A) (A) (A) (A) (A) (A) (A) (A) (A) (A)
                 (A) (A) (A) (A) (A) (A) (A) (A) (A) (A) (A) (A)
                 (A) (A) (A) (A) (A) (A) (A) (A) (A) (A) (A) (A)
                 (A) (A) (A) (A) (A) (A) (A) (A) (A) (A) (A) (A)
                 (A) (A) (A) (A) (A) (A) (A) (A) (A) (A) (A) (A)
                 (A) (A) (A) (A) (A) (A) (A) (A) (A) (A) (A) (A)
                 (A) (A) (A) (A) (A) (A) (A) (A) (A) (A) (A) (A)
                 (A) (A) (A) (A) (A) (A) (A) (A) (A) (A) (A) (A)
                 (A) (A) (A) (A) (A) (A) (A) (A) (A) (A) (A) (A)
                 (A) (A) (A) (A) (A) (A) (A) (A) (A) (A) (A) (A)
                 (A) (A) (A) (A) (A) (A) (A) (A) (A) (A) (A) (A)
                 (A) (A) (A) (A) (A) (A) (A) (A) (A) (A) (A) (A)
                 (A) (A) (A) (A) (A) (A) (A) (A) (A) (A) (A)
 The electronic state is 1-A.
 Alpha  occ. eigenvalues --  -19.12770 -10.26331 -10.19567 -10.19455 -10.19208
 Alpha  occ. eigenvalues --  -10.18921 -10.18595 -10.18549 -10.18400 -10.18312
 Alpha  occ. eigenvalues --  -10.18197 -10.18161  -1.02741  -0.86439  -0.78373
 Alpha  occ. eigenvalues --   -0.77435  -0.75903  -0.70849  -0.64146  -0.63792
 Alpha  occ. eigenvalues --   -0.62543  -0.55023  -0.53548  -0.50934  -0.49596
 Alpha  occ. eigenvalues --   -0.48494  -0.44931  -0.43649  -0.42626  -0.41172
 Alpha  occ. eigenvalues --   -0.40906  -0.40468  -0.39620  -0.38968  -0.37977
 Alpha  occ. eigenvalues --   -0.37352  -0.36588  -0.33692  -0.31911  -0.31757
 Alpha  occ. eigenvalues --   -0.31502  -0.30171  -0.29714  -0.29389  -0.22808
 Alpha virt. eigenvalues --   -0.00577   0.06117   0.09548   0.11152   0.11826
 Alpha virt. eigenvalues --    0.12088   0.12609   0.14206   0.15158   0.15466
 Alpha virt. eigenvalues --    0.15832   0.18033   0.18125   0.18680   0.19266
 Alpha virt. eigenvalues --    0.19929   0.20543   0.20827   0.21690   0.22485
 Alpha virt. eigenvalues --    0.23218   0.24055   0.25301   0.26108   0.26652
 Alpha virt. eigenvalues --    0.28438   0.31683   0.32461   0.33444   0.36485
 Alpha virt. eigenvalues --    0.40431   0.51001   0.51664   0.53263   0.54358
 Alpha virt. eigenvalues --    0.55140   0.57100   0.58785   0.60018   0.61274
 Alpha virt. eigenvalues --    0.61592   0.63132   0.64245   0.64369   0.66477
 Alpha virt. eigenvalues --    0.67535   0.67726   0.69911   0.71010   0.72561
 Alpha virt. eigenvalues --    0.73764   0.74874   0.75352   0.77910   0.78571
 Alpha virt. eigenvalues --    0.81906   0.82868   0.83476   0.84222   0.85496
 Alpha virt. eigenvalues --    0.86179   0.86486   0.87156   0.87991   0.89405
 Alpha virt. eigenvalues --    0.90685   0.91118   0.91901   0.93486   0.94408
 Alpha virt. eigenvalues --    0.95108   0.95509   0.96589   0.97800   0.98413
 Alpha virt. eigenvalues --    0.99289   1.01042   1.05608   1.07169   1.10872
 Alpha virt. eigenvalues --    1.12320   1.13643   1.15111   1.22753   1.30006
 Alpha virt. eigenvalues --    1.33451   1.37364   1.42200   1.43277   1.46380
 Alpha virt. eigenvalues --    1.52500   1.54918   1.56281   1.60425   1.61143
 Alpha virt. eigenvalues --    1.66291   1.67368   1.71229   1.71931   1.74337
 Alpha virt. eigenvalues --    1.75460   1.76172   1.77913   1.80096   1.82201
 Alpha virt. eigenvalues --    1.85142   1.85191   1.88545   1.90202   1.92011
 Alpha virt. eigenvalues --    1.92716   1.94480   1.95947   1.98421   1.99287
 Alpha virt. eigenvalues --    2.00917   2.01313   2.03812   2.06553   2.07361
 Alpha virt. eigenvalues --    2.13487   2.15291   2.15933   2.17464   2.20507
 Alpha virt. eigenvalues --    2.21851   2.27749   2.30119   2.30874   2.32527
 Alpha virt. eigenvalues --    2.36086   2.38344   2.39351   2.40818   2.42479
 Alpha virt. eigenvalues --    2.45565   2.47650   2.48118   2.50256   2.54974
 Alpha virt. eigenvalues --    2.55965   2.58371   2.59029   2.64561   2.65323
 Alpha virt. eigenvalues --    2.68295   2.69879   2.72437   2.74560   2.76529
 Alpha virt. eigenvalues --    2.79139   2.80100   2.84165   3.01481   3.04865
 Alpha virt. eigenvalues --    4.08174   4.13002   4.24148   4.27253   4.34818
 Alpha virt. eigenvalues --    4.42472   4.53497   4.57628   4.64426   4.71912
 Alpha virt. eigenvalues --    4.85104   4.85571
          Condensed to atoms (all electrons):
               1          2          3          4          5          6
     1  O    8.044079   0.557338  -0.075426   0.002495   0.000525  -0.003441
     2  C    0.557338   4.503637   0.309925  -0.021830  -0.002956  -0.002405
     3  C   -0.075426   0.309925   5.381498   0.306056  -0.058418  -0.001858
     4  C    0.002495  -0.021830   0.306056   5.016585   0.384825  -0.042238
     5  C    0.000525  -0.002956  -0.058418   0.384825   5.060064   0.353597
     6  C   -0.003441  -0.002405  -0.001858  -0.042238   0.353597   5.080729
     7  C    0.000233  -0.022170  -0.036682   0.363187  -0.046892  -0.007784
     8  C    0.001610  -0.029980  -0.000527  -0.065524   0.002009   0.001569
     9  C   -0.070147   0.348954  -0.145414   0.021804  -0.009504  -0.049692
    10  C    0.001266  -0.030915  -0.003502  -0.007915  -0.041563   0.386142
    11  C   -0.000028   0.001870   0.000918  -0.007874  -0.003600  -0.052340
    12  C   -0.000010   0.001018   0.002522  -0.041171  -0.002906  -0.004896
    13  H   -0.000031  -0.021744   0.348053  -0.027703   0.005273  -0.000205
    14  H    0.002144  -0.024588   0.349859  -0.029349  -0.004047  -0.000563
    15  H   -0.000079   0.003504  -0.032956   0.362036  -0.041760   0.005706
    16  H   -0.000002  -0.000110   0.005830  -0.035638   0.368405  -0.033386
    17  H   -0.000026  -0.000737  -0.004126  -0.033717   0.364782  -0.034110
    18  H    0.001766   0.009360   0.001834  -0.003460  -0.034003   0.367819
    19  H    0.000028   0.000071   0.000012   0.004682  -0.033688   0.363703
    20  H    0.000004   0.000564   0.000976  -0.035143   0.004523  -0.000185
    21  H   -0.000079   0.003364  -0.000369   0.005545  -0.000111  -0.000085
    22  H    0.000376  -0.005026   0.003913  -0.004431  -0.000138  -0.000107
    23  H    0.002465  -0.030313   0.008266  -0.000302  -0.000231   0.004551
    24  H    0.000340   0.001096  -0.000291   0.000011   0.005865  -0.040752
    25  H   -0.000001   0.000045  -0.000003  -0.000034  -0.000183   0.005558
    26  H    0.000001  -0.000074   0.000004   0.000390  -0.000790  -0.004777
    27  H   -0.000000  -0.000006   0.000082  -0.006627  -0.002768   0.002025
    28  H   -0.000000  -0.000037  -0.000111   0.005005   0.000326  -0.000054
               7          8          9         10         11         12
     1  O    0.000233   0.001610  -0.070147   0.001266  -0.000028  -0.000010
     2  C   -0.022170  -0.029980   0.348954  -0.030915   0.001870   0.001018
     3  C   -0.036682  -0.000527  -0.145414  -0.003502   0.000918   0.002522
     4  C    0.363187  -0.065524   0.021804  -0.007915  -0.007874  -0.041171
     5  C   -0.046892   0.002009  -0.009504  -0.041563  -0.003600  -0.002906
     6  C   -0.007784   0.001569  -0.049692   0.386142  -0.052340  -0.004896
     7  C    4.967705   0.364774  -0.032879   0.001975  -0.046869   0.384611
     8  C    0.364774   5.145898   0.316023  -0.047252  -0.018105  -0.045172
     9  C   -0.032879   0.316023   5.255909   0.341256  -0.035744  -0.024276
    10  C    0.001975  -0.047252   0.341256   4.943924   0.378071  -0.038563
    11  C   -0.046869  -0.018105  -0.035744   0.378071   5.063030   0.353358
    12  C    0.384611  -0.045172  -0.024276  -0.038563   0.353358   5.056826
    13  H   -0.004003   0.000468   0.000569   0.000220  -0.000007  -0.000014
    14  H    0.004138   0.000271   0.006158  -0.000079   0.000001  -0.000099
    15  H   -0.034291   0.005438  -0.000604   0.000085  -0.000216   0.001657
    16  H   -0.007371  -0.000009   0.000008  -0.003254   0.002611   0.000216
    17  H    0.005404  -0.000193   0.000178   0.004661  -0.000008   0.000130
    18  H   -0.000139   0.000157  -0.007740  -0.037679   0.005612  -0.000123
    19  H    0.000179  -0.000216   0.005552  -0.032286  -0.004153  -0.000403
    20  H    0.368993  -0.039661   0.004496   0.000157   0.005544  -0.040868
    21  H   -0.037913   0.365380  -0.022524  -0.004922   0.001255  -0.006359
    22  H   -0.029651   0.370818  -0.044115   0.005153   0.000170   0.005182
    23  H    0.004701  -0.035817   0.345250  -0.027297   0.000990   0.000016
    24  H   -0.000287   0.005409  -0.037221   0.372308  -0.041216   0.005359
    25  H   -0.001822   0.002259  -0.004427  -0.034726   0.369071  -0.032768
    26  H    0.003933   0.000355   0.004793  -0.033451   0.370140  -0.033490
    27  H   -0.037613   0.005437   0.000235  -0.001049  -0.033710   0.371181
    28  H   -0.030053  -0.005189   0.000596   0.003477  -0.034001   0.364030
              13         14         15         16         17         18
     1  O   -0.000031   0.002144  -0.000079  -0.000002  -0.000026   0.001766
     2  C   -0.021744  -0.024588   0.003504  -0.000110  -0.000737   0.009360
     3  C    0.348053   0.349859  -0.032956   0.005830  -0.004126   0.001834
     4  C   -0.027703  -0.029349   0.362036  -0.035638  -0.033717  -0.003460
     5  C    0.005273  -0.004047  -0.041760   0.368405   0.364782  -0.034003
     6  C   -0.000205  -0.000563   0.005706  -0.033386  -0.034110   0.367819
     7  C   -0.004003   0.004138  -0.034291  -0.007371   0.005404  -0.000139
     8  C    0.000468   0.000271   0.005438  -0.000009  -0.000193   0.000157
     9  C    0.000569   0.006158  -0.000604   0.000008   0.000178  -0.007740
    10  C    0.000220  -0.000079   0.000085  -0.003254   0.004661  -0.037679
    11  C   -0.000007   0.000001  -0.000216   0.002611  -0.000008   0.005612
    12  C   -0.000014  -0.000099   0.001657   0.000216   0.000130  -0.000123
    13  H    0.561566  -0.024966  -0.004983  -0.000180  -0.000082   0.000068
    14  H   -0.024966   0.556505  -0.001940   0.000005   0.004139   0.000325
    15  H   -0.004983  -0.001940   0.628487  -0.002644  -0.003877  -0.000157
    16  H   -0.000180   0.000005  -0.002644   0.603033  -0.036513   0.004831
    17  H   -0.000082   0.004139  -0.003877  -0.036513   0.606571  -0.008170
    18  H    0.000068   0.000325  -0.000157   0.004831  -0.008170   0.578787
    19  H    0.000002  -0.000017  -0.000163  -0.008101   0.001309  -0.033399
    20  H    0.001212  -0.000165  -0.010558   0.000166  -0.000159   0.000002
    21  H    0.000111   0.000001  -0.000154  -0.000007   0.000004  -0.000005
    22  H    0.000815  -0.000088   0.000009  -0.000003   0.000003  -0.000007
    23  H   -0.000359  -0.000109   0.000010   0.000003   0.000008   0.000237
    24  H    0.000002   0.000005   0.000001  -0.000153  -0.000167  -0.002007
    25  H   -0.000001  -0.000000   0.000006  -0.000019   0.000004  -0.000206
    26  H    0.000000  -0.000001   0.000007   0.000164  -0.000022  -0.000012
    27  H   -0.000002  -0.000001   0.001095   0.004608   0.000030  -0.000018
    28  H    0.000002   0.000002  -0.000199   0.000055  -0.000007   0.000007
              19         20         21         22         23         24
     1  O    0.000028   0.000004  -0.000079   0.000376   0.002465   0.000340
     2  C    0.000071   0.000564   0.003364  -0.005026  -0.030313   0.001096
     3  C    0.000012   0.000976  -0.000369   0.003913   0.008266  -0.000291
     4  C    0.004682  -0.035143   0.005545  -0.004431  -0.000302   0.000011
     5  C   -0.033688   0.004523  -0.000111  -0.000138  -0.000231   0.005865
     6  C    0.363703  -0.000185  -0.000085  -0.000107   0.004551  -0.040752
     7  C    0.000179   0.368993  -0.037913  -0.029651   0.004701  -0.000287
     8  C   -0.000216  -0.039661   0.365380   0.370818  -0.035817   0.005409
     9  C    0.005552   0.004496  -0.022524  -0.044115   0.345250  -0.037221
    10  C   -0.032286   0.000157  -0.004922   0.005153  -0.027297   0.372308
    11  C   -0.004153   0.005544   0.001255   0.000170   0.000990  -0.041216
    12  C   -0.000403  -0.040868  -0.006359   0.005182   0.000016   0.005359
    13  H    0.000002   0.001212   0.000111   0.000815  -0.000359   0.000002
    14  H   -0.000017  -0.000165   0.000001  -0.000088  -0.000109   0.000005
    15  H   -0.000163  -0.010558  -0.000154   0.000009   0.000010   0.000001
    16  H   -0.008101   0.000166  -0.000007  -0.000003   0.000003  -0.000153
    17  H    0.001309  -0.000159   0.000004   0.000003   0.000008  -0.000167
    18  H   -0.033399   0.000002  -0.000005  -0.000007   0.000237  -0.002007
    19  H    0.602574   0.000005   0.000004   0.000004  -0.000149  -0.004474
    20  H    0.000005   0.628557  -0.000459  -0.004364  -0.000184   0.000003
    21  H    0.000004  -0.000459   0.591681  -0.037034  -0.004024  -0.000068
    22  H    0.000004  -0.004364  -0.037034   0.597867   0.000114  -0.000123
    23  H   -0.000149  -0.000184  -0.004024   0.000114   0.598218  -0.011031
    24  H   -0.004474   0.000003  -0.000068  -0.000123  -0.011031   0.618856
    25  H   -0.000085  -0.000230   0.000853  -0.000031   0.001307  -0.004452
    26  H    0.004158  -0.000103  -0.000096   0.000001  -0.000110  -0.001660
    27  H   -0.000151  -0.000565   0.000244  -0.000184   0.000017  -0.000134
    28  H    0.000002  -0.005722   0.003969  -0.000069   0.000005  -0.000157
              25         26         27         28
     1  O   -0.000001   0.000001  -0.000000  -0.000000
     2  C    0.000045  -0.000074  -0.000006  -0.000037
     3  C   -0.000003   0.000004   0.000082  -0.000111
     4  C   -0.000034   0.000390  -0.006627   0.005005
     5  C   -0.000183  -0.000790  -0.002768   0.000326
     6  C    0.005558  -0.004777   0.002025  -0.000054
     7  C   -0.001822   0.003933  -0.037613  -0.030053
     8  C    0.002259   0.000355   0.005437  -0.005189
     9  C   -0.004427   0.004793   0.000235   0.000596
    10  C   -0.034726  -0.033451  -0.001049   0.003477
    11  C    0.369071   0.370140  -0.033710  -0.034001
    12  C   -0.032768  -0.033490   0.371181   0.364030
    13  H   -0.000001   0.000000  -0.000002   0.000002
    14  H   -0.000000  -0.000001  -0.000001   0.000002
    15  H    0.000006   0.000007   0.001095  -0.000199
    16  H   -0.000019   0.000164   0.004608   0.000055
    17  H    0.000004  -0.000022   0.000030  -0.000007
    18  H   -0.000206  -0.000012  -0.000018   0.000007
    19  H   -0.000085   0.004158  -0.000151   0.000002
    20  H   -0.000230  -0.000103  -0.000565  -0.005722
    21  H    0.000853  -0.000096   0.000244   0.003969
    22  H   -0.000031   0.000001  -0.000184  -0.000069
    23  H    0.001307  -0.000110   0.000017   0.000005
    24  H   -0.004452  -0.001660  -0.000134  -0.000157
    25  H    0.604918  -0.036973   0.004875  -0.010585
    26  H   -0.036973   0.598381  -0.008730   0.002655
    27  H    0.004875  -0.008730   0.600387  -0.036225
    28  H   -0.010585   0.002655  -0.036225   0.608516
 Mulliken charges:
               1
     1  O   -0.465400
     2  C    0.452149
     3  C   -0.360066
     4  C   -0.109665
     5  C   -0.266637
     6  C   -0.292519
     7  C   -0.093416
     8  C   -0.300230
     9  C   -0.167493
    10  C   -0.094241
    11  C   -0.274771
    12  C   -0.274989
    13  H    0.165920
    14  H    0.162459
    15  H    0.126538
    16  H    0.137456
    17  H    0.134691
    18  H    0.156319
    19  H    0.135001
    20  H    0.123162
    21  H    0.141796
    22  H    0.140946
    23  H    0.143767
    24  H    0.134938
    25  H    0.137650
    26  H    0.135308
    27  H    0.137567
    28  H    0.133760
 Sum of Mulliken charges =  -0.00000
 Mulliken charges with hydrogens summed into heavy atoms:
               1
     1  O   -0.465400
     2  C    0.452149
     3  C   -0.031687
     4  C    0.016872
     5  C    0.005510
     6  C   -0.001198
     7  C    0.029746
     8  C   -0.017487
     9  C   -0.023726
    10  C    0.040697
    11  C   -0.001813
    12  C   -0.003662
 APT charges:
               1
     1  O   -0.654848
     2  C    0.730885
     3  C   -0.048829
     4  C    0.112589
     5  C    0.088528
     6  C    0.077585
     7  C    0.101877
     8  C    0.070983
     9  C   -0.075236
    10  C    0.143834
    11  C    0.087008
    12  C    0.097547
    13  H   -0.010677
    14  H   -0.016033
    15  H   -0.073744
    16  H   -0.040582
    17  H   -0.049745
    18  H   -0.034045
    19  H   -0.047209
    20  H   -0.076335
    21  H   -0.035391
    22  H   -0.038750
    23  H   -0.048361
    24  H   -0.071641
    25  H   -0.047584
    26  H   -0.046156
    27  H   -0.040799
    28  H   -0.054870
 Sum of APT charges =   0.00000
 APT charges with hydrogens summed into heavy atoms:
               1
     1  O   -0.654848
     2  C    0.730885
     3  C   -0.075539
     4  C    0.038845
     5  C   -0.001800
     6  C   -0.003669
     7  C    0.025542
     8  C   -0.003157
     9  C   -0.123597
    10  C    0.072193
    11  C   -0.006732
    12  C    0.001878
 Electronic spatial extent (au):  <R**2>=           1629.3481
 Charge=              0.0000 electrons
 Dipole moment (field-independent basis, Debye):
    X=              2.9002    Y=              0.5462    Z=             -1.0882  Tot=              3.1454
 Quadrupole moment (field-independent basis, Debye-Ang):
   XX=            -83.1825   YY=            -71.3341   ZZ=            -71.3666
   XY=             -2.5956   XZ=              3.8157   YZ=              0.5223
 Traceless Quadrupole moment (field-independent basis, Debye-Ang):
   XX=             -7.8881   YY=              3.9604   ZZ=              3.9278
   XY=             -2.5956   XZ=              3.8157   YZ=              0.5223
 Octapole moment (field-independent basis, Debye-Ang**2):
  XXX=             26.4089  YYY=             -3.1729  ZZZ=              0.8947  XYY=             -2.9770
  XXY=              7.7149  XXZ=             -9.6441  XZZ=             -3.0592  YZZ=             -0.4928
  YYZ=              0.5853  XYZ=             -1.6369
 Hexadecapole moment (field-independent basis, Debye-Ang**3):
 XXXX=          -1113.8755 YYYY=           -585.7561 ZZZZ=           -561.0168 XXXY=            -17.1271
 XXXZ=             24.2752 YYYX=              0.2874 YYYZ=             -4.6543 ZZZX=             -0.6344
 ZZZY=             -2.1576 XXYY=           -260.3648 XXZZ=           -261.2435 YYZZ=           -193.0776
 XXYZ=              8.8844 YYXZ=             -0.8869 ZZXY=              2.7481
 N-N= 7.795449231730D+02 E-N=-2.728073694176D+03  KE= 4.991986629044D+02
  Exact polarizability: 111.624  -1.427 101.055  -0.576  -0.893 100.575
 Approx polarizability: 163.551   0.645 147.712  -5.388  -1.668 148.327
 Calling FoFJK, ICntrl=    100127 FMM=F ISym2X=0 I1Cent= 0 IOpClX= 0 NMat=1 NMatS=1 NMatT=0.
 Full mass-weighted force constant matrix:
 Low frequencies ---  -12.7321   -0.0008   -0.0008   -0.0005    2.6101   10.5380
 Low frequencies ---  108.6620  193.0709  204.6438
 Diagonal vibrational polarizability:
        4.2162990       7.1774252       6.0818049
 Harmonic frequencies (cm**-1), IR intensities (KM/Mole), Raman scattering
 activities (A**4/AMU), depolarization ratios for plane and unpolarized
 incident light, reduced masses (AMU), force constants (mDyne/A),
 and normal coordinates:
                      1                      2                      3
                      A                      A                      A
 Frequencies --    108.6589               193.0703               204.6438
 Red. masses --      5.5576                 2.7503                 2.4948
 Frc consts  --      0.0387                 0.0604                 0.0616
 IR Inten    --      3.9720                 0.4110                 0.3552
  Atom  AN      X      Y      Z        X      Y      Z        X      Y      Z
     1   8     0.14   0.29   0.30    -0.01   0.10  -0.05    -0.06   0.04  -0.11
     2   6     0.03   0.02  -0.02     0.01   0.04  -0.03    -0.02   0.04  -0.03
     3   6    -0.00  -0.12  -0.16     0.04   0.00  -0.06    -0.01  -0.05  -0.11
     4   6    -0.02  -0.03  -0.04     0.03  -0.02   0.05    -0.03  -0.01   0.00
     5   6    -0.15  -0.04   0.00    -0.01  -0.09   0.12    -0.11   0.00   0.03
     6   6    -0.09  -0.09  -0.01    -0.11  -0.08   0.09     0.15  -0.02   0.07
     7   6     0.06   0.03  -0.01    -0.04  -0.05  -0.03    -0.03  -0.00   0.03
     8   6     0.09  -0.00  -0.08    -0.01  -0.06   0.06    -0.00  -0.01   0.10
     9   6     0.00  -0.06  -0.12    -0.01  -0.00   0.04    -0.01   0.05   0.08
    10   6    -0.06  -0.08  -0.03     0.04  -0.03   0.02     0.09  -0.02   0.04
    11   6    -0.04  -0.04   0.03     0.07   0.19  -0.05     0.05  -0.10  -0.06
    12   6     0.02   0.07   0.08     0.00  -0.01  -0.14    -0.00   0.08  -0.01
    13   1     0.14  -0.27  -0.14     0.11  -0.04  -0.07     0.10  -0.17  -0.10
    14   1    -0.09  -0.14  -0.32     0.01  -0.00  -0.12    -0.08  -0.07  -0.25
    15   1    -0.00   0.00  -0.02     0.11   0.03   0.10     0.02   0.01   0.03
    16   1    -0.19   0.08   0.04     0.02  -0.15   0.19    -0.19   0.21  -0.04
    17   1    -0.26  -0.11   0.01     0.04  -0.05   0.09    -0.29  -0.12   0.07
    18   1    -0.07  -0.12   0.03    -0.15  -0.17  -0.01     0.21  -0.03   0.27
    19   1    -0.07  -0.09  -0.02    -0.22  -0.05   0.16     0.30  -0.01  -0.05
    20   1     0.13   0.06   0.01    -0.15  -0.07  -0.05    -0.07  -0.04   0.02
    21   1     0.11   0.02  -0.06     0.02  -0.03   0.11     0.01   0.01   0.14
    22   1     0.14  -0.01  -0.13    -0.00  -0.13   0.07     0.01  -0.06   0.10
    23   1    -0.01  -0.08  -0.16    -0.07   0.03   0.05    -0.06   0.08   0.10
    24   1    -0.10  -0.11  -0.06     0.16  -0.11  -0.01     0.14  -0.03   0.04
    25   1    -0.04  -0.05  -0.05     0.28   0.25   0.11    -0.04  -0.13  -0.23
    26   1    -0.07  -0.09   0.09    -0.02   0.42  -0.14     0.14  -0.26  -0.03
    27   1    -0.06   0.12   0.18     0.04  -0.03  -0.31    -0.14   0.15   0.10
    28   1     0.10   0.16   0.08    -0.06  -0.10  -0.09     0.09   0.22  -0.07
                      4                      5                      6
                      A                      A                      A
 Frequencies --    337.7004               361.3683               383.3046
 Red. masses --      2.2780                 2.2181                 2.3576
 Frc consts  --      0.1531                 0.1707                 0.2041
 IR Inten    --      0.2538                 0.1267                 1.0061
  Atom  AN      X      Y      Z        X      Y      Z        X      Y      Z
     1   8    -0.05   0.06  -0.02    -0.08   0.03  -0.00    -0.07   0.00   0.04
     2   6    -0.02   0.01   0.02    -0.08  -0.01  -0.01    -0.08  -0.07  -0.01
     3   6     0.01   0.08   0.11    -0.06  -0.01   0.01     0.01  -0.12  -0.04
     4   6     0.03  -0.05  -0.04    -0.04  -0.04  -0.02    -0.00   0.02   0.08
     5   6     0.05  -0.04  -0.05     0.03  -0.05  -0.04     0.18   0.00   0.04
     6   6    -0.04  -0.05  -0.07     0.17  -0.05   0.00     0.04   0.06   0.03
     7   6     0.01  -0.05   0.00     0.02   0.01   0.02    -0.00   0.06  -0.01
     8   6     0.06  -0.08   0.07     0.00   0.01  -0.05     0.07   0.00   0.03
     9   6    -0.04  -0.06   0.01    -0.04  -0.03  -0.06    -0.05  -0.02  -0.01
    10   6    -0.01  -0.05  -0.03    -0.01  -0.07  -0.02    -0.07   0.03  -0.02
    11   6    -0.00   0.00  -0.05     0.05   0.12   0.10    -0.08   0.01  -0.07
    12   6     0.00   0.19   0.02     0.02   0.03   0.06    -0.00   0.07  -0.04
    13   1    -0.20   0.23   0.12    -0.10   0.03   0.01     0.29  -0.28  -0.07
    14   1     0.15   0.14   0.31    -0.02   0.02   0.03    -0.15  -0.19  -0.29
    15   1     0.02  -0.08  -0.06    -0.07  -0.04  -0.02    -0.06   0.04   0.08
    16   1     0.05  -0.04   0.00     0.01  -0.01  -0.15     0.26  -0.25  -0.02
    17   1     0.06  -0.04  -0.07     0.01  -0.07   0.03     0.41   0.16   0.05
    18   1    -0.06  -0.06  -0.15     0.26   0.11   0.22     0.04   0.17  -0.02
    19   1    -0.11  -0.04  -0.02     0.41  -0.14  -0.13     0.06  -0.04   0.07
    20   1    -0.00  -0.12  -0.00     0.09   0.02   0.03    -0.07   0.07  -0.02
    21   1     0.10  -0.04   0.17    -0.01  -0.00  -0.03     0.17   0.09   0.15
    22   1     0.13  -0.16   0.02     0.04   0.04  -0.10     0.18  -0.14  -0.01
    23   1    -0.07  -0.05   0.02    -0.03  -0.05  -0.10     0.03  -0.05  -0.01
    24   1     0.03  -0.03  -0.01    -0.06  -0.09  -0.03    -0.04   0.02  -0.02
    25   1     0.00  -0.01  -0.21     0.35   0.21   0.28    -0.14  -0.01  -0.15
    26   1    -0.01  -0.10   0.03    -0.16   0.42   0.08    -0.05  -0.09  -0.03
    27   1    -0.26   0.32   0.13     0.05   0.01  -0.02     0.02   0.05  -0.01
    28   1     0.23   0.42   0.02    -0.01  -0.02   0.09    -0.00   0.06  -0.04
                      7                      8                      9
                      A                      A                      A
 Frequencies --    398.7828               417.2394               434.4827
 Red. masses --      3.2572                 3.7268                 2.2499
 Frc consts  --      0.3052                 0.3823                 0.2502
 IR Inten    --      1.4263                 1.4170                 0.3698
  Atom  AN      X      Y      Z        X      Y      Z        X      Y      Z
     1   8     0.17  -0.05   0.01    -0.12   0.08  -0.00    -0.01   0.01   0.02
     2   6     0.09  -0.00  -0.12    -0.07  -0.08   0.03    -0.04   0.04  -0.05
     3   6     0.01   0.10  -0.02     0.07  -0.04   0.14    -0.12   0.08  -0.01
     4   6     0.01   0.00   0.03     0.08  -0.04   0.12    -0.10   0.05  -0.02
     5   6    -0.01   0.03   0.05    -0.13   0.17   0.05    -0.03  -0.00  -0.02
     6   6     0.09   0.07   0.10    -0.00   0.09   0.01    -0.02  -0.04  -0.04
     7   6    -0.09  -0.08  -0.04     0.10  -0.05   0.03    -0.01   0.07   0.03
     8   6     0.06  -0.16   0.01     0.06  -0.07  -0.03     0.17  -0.01   0.11
     9   6     0.00  -0.02  -0.07    -0.05  -0.09  -0.06    -0.01   0.04  -0.02
    10   6    -0.10   0.03   0.00    -0.03   0.07  -0.14     0.02  -0.03  -0.01
    11   6    -0.13   0.04   0.00     0.00   0.01  -0.09     0.04  -0.07   0.01
    12   6    -0.14  -0.00  -0.02     0.13  -0.09  -0.08     0.05  -0.09  -0.02
    13   1    -0.04   0.25  -0.07     0.05   0.05   0.11    -0.18   0.14  -0.02
    14   1     0.04   0.09   0.15     0.12  -0.01   0.19    -0.09   0.08   0.09
    15   1     0.11   0.01   0.05     0.02  -0.09   0.06    -0.09   0.05  -0.02
    16   1    -0.05   0.13   0.02    -0.22   0.46   0.09    -0.00  -0.10  -0.07
    17   1    -0.09  -0.02   0.01    -0.42  -0.02  -0.06     0.05   0.05   0.06
    18   1     0.18   0.24   0.33     0.04   0.07   0.15    -0.03  -0.10  -0.08
    19   1     0.35  -0.07  -0.02     0.11  -0.03  -0.01    -0.07   0.01  -0.02
    20   1    -0.11  -0.05  -0.04     0.00   0.03   0.01    -0.03   0.06   0.03
    21   1     0.19  -0.04   0.14     0.06  -0.07   0.05     0.36   0.16   0.36
    22   1     0.11  -0.36   0.03     0.15  -0.07  -0.11     0.34  -0.31   0.05
    23   1    -0.10   0.05  -0.01     0.08  -0.10   0.01    -0.06   0.05  -0.03
    24   1    -0.14  -0.01  -0.02     0.01   0.08  -0.13     0.01  -0.01  -0.01
    25   1    -0.12   0.05   0.03    -0.07   0.00  -0.00     0.05  -0.06   0.07
    26   1    -0.12   0.07  -0.03    -0.03   0.01  -0.05     0.02  -0.03  -0.00
    27   1    -0.20   0.03  -0.04     0.16  -0.10  -0.11     0.28  -0.21  -0.04
    28   1    -0.07   0.02   0.04     0.09  -0.16  -0.04    -0.16  -0.26  -0.09
                     10                     11                     12
                      A                      A                      A
 Frequencies --    445.1339               496.4685               527.7148
 Red. masses --      4.6593                 3.3338                 3.5687
 Frc consts  --      0.5439                 0.4841                 0.5855
 IR Inten    --      3.4411                 4.2311                 0.6811
  Atom  AN      X      Y      Z        X      Y      Z        X      Y      Z
     1   8    -0.03  -0.16   0.13    -0.04   0.16  -0.10    -0.01  -0.07   0.00
     2   6    -0.14   0.10  -0.02     0.05  -0.08  -0.00     0.05   0.08   0.16
     3   6    -0.09   0.07  -0.07    -0.03  -0.08   0.09     0.14  -0.01   0.06
     4   6     0.06  -0.17  -0.01    -0.07  -0.09  -0.04     0.11   0.04  -0.13
     5   6    -0.03  -0.15   0.04    -0.03  -0.14  -0.02    -0.05  -0.05  -0.05
     6   6    -0.03   0.04   0.15    -0.01   0.06   0.12     0.01  -0.09  -0.02
     7   6     0.17  -0.10  -0.08     0.03   0.05  -0.12     0.05   0.08  -0.12
     8   6     0.03   0.04  -0.03     0.10   0.06  -0.07     0.05   0.13   0.09
     9   6    -0.05   0.22  -0.07     0.12  -0.01   0.03    -0.05   0.01   0.07
    10   6    -0.02   0.10   0.00    -0.00   0.07   0.14    -0.13  -0.10   0.04
    11   6    -0.02   0.02  -0.06    -0.07  -0.00   0.00    -0.16   0.03  -0.04
    12   6     0.15   0.02  -0.02    -0.03  -0.02  -0.02    -0.01  -0.01  -0.07
    13   1    -0.22   0.16  -0.07    -0.31   0.14   0.09     0.10  -0.25   0.17
    14   1     0.15   0.25  -0.06     0.08  -0.07   0.42     0.14   0.04  -0.14
    15   1     0.12  -0.09   0.06    -0.16   0.00   0.02     0.02   0.10  -0.10
    16   1    -0.02  -0.18   0.07    -0.00  -0.25  -0.06    -0.12   0.19   0.05
    17   1     0.01  -0.12  -0.11     0.08  -0.06  -0.08    -0.26  -0.18  -0.03
    18   1    -0.02   0.04   0.20     0.02   0.12   0.21     0.08   0.08   0.17
    19   1     0.03   0.08   0.08     0.10   0.14  -0.00     0.21  -0.15  -0.15
    20   1     0.17  -0.09  -0.08     0.07   0.07  -0.11     0.01  -0.06  -0.13
    21   1    -0.15  -0.10   0.10     0.10   0.05  -0.17     0.11   0.20   0.23
    22   1     0.03   0.13  -0.06     0.02   0.07   0.01     0.11  -0.04   0.10
    23   1    -0.07   0.24  -0.07     0.27  -0.09  -0.02    -0.07  -0.06  -0.08
    24   1     0.03  -0.06  -0.07     0.02   0.01   0.12    -0.05  -0.08   0.06
    25   1    -0.21  -0.03  -0.15    -0.23  -0.04  -0.07    -0.02   0.06   0.02
    26   1     0.06  -0.17   0.01     0.10  -0.15  -0.04    -0.23   0.13  -0.05
    27   1     0.07   0.06   0.00     0.09  -0.08  -0.02     0.15  -0.09  -0.06
    28   1     0.26   0.06   0.08    -0.09  -0.11   0.03    -0.10  -0.16   0.02
                     13                     14                     15
                      A                      A                      A
 Frequencies --    595.9961               644.7657               716.7735
 Red. masses --      2.7520                 3.1993                 3.6544
 Frc consts  --      0.5760                 0.7836                 1.1062
 IR Inten    --      1.0262                 0.1503                 0.7134
  Atom  AN      X      Y      Z        X      Y      Z        X      Y      Z
     1   8    -0.06  -0.01  -0.05     0.12   0.02  -0.11    -0.03  -0.01  -0.00
     2   6     0.01   0.16   0.15     0.16   0.13   0.07     0.00   0.02   0.08
     3   6    -0.00   0.01   0.10    -0.05  -0.04   0.09    -0.08   0.08  -0.05
     4   6    -0.02  -0.03   0.03    -0.13  -0.05   0.06    -0.05   0.20  -0.18
     5   6     0.01   0.01   0.02    -0.05  -0.06  -0.01    -0.01   0.11   0.02
     6   6    -0.01   0.01   0.01    -0.03  -0.00  -0.01    -0.07   0.05   0.12
     7   6    -0.03  -0.05  -0.10     0.02  -0.01   0.13     0.07  -0.06  -0.11
     8   6     0.07  -0.10  -0.13    -0.04  -0.03   0.03    -0.02  -0.14  -0.04
     9   6     0.07   0.08  -0.10    -0.03   0.02  -0.02    -0.02  -0.16   0.05
    10   6     0.06   0.02  -0.00    -0.07   0.01  -0.15    -0.03  -0.05   0.09
    11   6     0.03  -0.03   0.07    -0.05   0.04  -0.06     0.04  -0.00   0.02
    12   6    -0.10  -0.03   0.04     0.13   0.03   0.01     0.15   0.00  -0.02
    13   1     0.20  -0.46   0.22    -0.03  -0.33   0.20    -0.09  -0.13   0.04
    14   1    -0.13   0.02  -0.38    -0.17  -0.09  -0.08    -0.22  -0.00  -0.13
    15   1    -0.08  -0.03   0.02    -0.13  -0.09   0.03    -0.01   0.20  -0.18
    16   1    -0.01   0.07   0.02     0.05  -0.36  -0.09     0.09  -0.16   0.11
    17   1    -0.04  -0.02  -0.01     0.22   0.12  -0.00     0.25   0.28   0.10
    18   1    -0.05  -0.08  -0.10     0.05   0.10   0.21     0.01   0.16   0.32
    19   1    -0.14   0.06   0.09     0.20  -0.12  -0.13     0.14   0.00  -0.01
    20   1     0.09   0.09  -0.07    -0.04   0.02   0.12     0.08  -0.15  -0.11
    21   1     0.18   0.00   0.08    -0.15  -0.12  -0.01    -0.05  -0.18  -0.14
    22   1     0.13  -0.34  -0.10    -0.04   0.15  -0.04    -0.08  -0.07  -0.01
    23   1     0.05   0.09  -0.09    -0.18   0.09   0.03    -0.09  -0.15   0.04
    24   1    -0.07  -0.01  -0.03    -0.01  -0.01  -0.15     0.06  -0.07   0.10
    25   1     0.04  -0.02   0.11    -0.14   0.01  -0.11    -0.01  -0.02  -0.03
    26   1     0.07   0.03  -0.01    -0.12  -0.08   0.10     0.06  -0.08   0.06
    27   1    -0.23   0.03   0.08     0.22  -0.02  -0.05     0.08   0.04   0.00
    28   1     0.02   0.09   0.05     0.04  -0.06   0.01     0.25   0.04   0.07
                     16                     17                     18
                      A                      A                      A
 Frequencies --    738.2261               766.6789               778.4566
 Red. masses --      2.4584                 2.7750                 2.1015
 Frc consts  --      0.7894                 0.9610                 0.7503
 IR Inten    --      0.4484                 1.2425                 4.8757
  Atom  AN      X      Y      Z        X      Y      Z        X      Y      Z
     1   8    -0.03  -0.04   0.02    -0.08   0.00   0.02     0.02   0.00  -0.02
     2   6    -0.03   0.05   0.04    -0.04  -0.01   0.06     0.00   0.06  -0.02
     3   6     0.08   0.10  -0.03    -0.02   0.08  -0.07    -0.10   0.03  -0.00
     4   6     0.04  -0.05   0.02     0.02   0.07  -0.02    -0.03  -0.06   0.08
     5   6    -0.05  -0.08  -0.09    -0.01  -0.06   0.05     0.07   0.07  -0.02
     6   6    -0.05   0.08   0.02     0.04  -0.12  -0.09     0.06  -0.02  -0.03
     7   6    -0.07   0.06   0.15     0.01  -0.01   0.03     0.05  -0.03   0.02
     8   6     0.04  -0.02  -0.06     0.04  -0.09  -0.01     0.06  -0.03  -0.02
     9   6    -0.03  -0.13  -0.04     0.15  -0.02   0.07     0.02  -0.03   0.02
    10   6     0.02  -0.01   0.08     0.05   0.10  -0.11    -0.03  -0.08   0.16
    11   6     0.07   0.02  -0.01    -0.12   0.11  -0.02    -0.09   0.05  -0.03
    12   6    -0.05   0.04  -0.01    -0.04   0.00   0.08     0.03   0.04  -0.05
    13   1     0.16  -0.03  -0.00     0.02   0.05  -0.07     0.03  -0.06  -0.01
    14   1     0.14   0.20  -0.24    -0.03   0.09  -0.11    -0.15   0.03  -0.13
    15   1     0.18  -0.09   0.00     0.16   0.09   0.02    -0.04  -0.12   0.02
    16   1    -0.02  -0.19  -0.05    -0.01  -0.05   0.09    -0.04   0.39  -0.17
    17   1     0.05  -0.00  -0.23    -0.01  -0.07   0.19    -0.24  -0.14   0.06
    18   1     0.01   0.16   0.20     0.08  -0.16   0.03    -0.04   0.02  -0.37
    19   1     0.13   0.17  -0.16     0.12  -0.18  -0.12    -0.23   0.04   0.16
    20   1    -0.05   0.12   0.16     0.09   0.00   0.05    -0.02   0.04  -0.00
    21   1     0.12   0.04  -0.18     0.01  -0.12  -0.21    -0.08  -0.17  -0.24
    22   1     0.11   0.05  -0.16    -0.09   0.03   0.08    -0.05   0.24  -0.01
    23   1    -0.09  -0.13  -0.07     0.32  -0.00   0.22    -0.14  -0.02  -0.06
    24   1     0.06  -0.02   0.08     0.14   0.15  -0.08     0.04  -0.06   0.18
    25   1    -0.05  -0.02  -0.20    -0.39   0.03  -0.17    -0.08   0.04  -0.19
    26   1     0.22  -0.17  -0.01    -0.02  -0.17   0.09    -0.02  -0.06  -0.01
    27   1     0.14  -0.05  -0.18     0.13  -0.08  -0.07     0.18  -0.03  -0.18
    28   1    -0.28  -0.12  -0.12    -0.14  -0.19   0.20    -0.07  -0.16   0.07
                     19                     20                     21
                      A                      A                      A
 Frequencies --    819.9267               830.6084               877.0359
 Red. masses --      1.8788                 2.7652                 2.1297
 Frc consts  --      0.7442                 1.1240                 0.9652
 IR Inten    --      1.8870                 0.2503                 1.7761
  Atom  AN      X      Y      Z        X      Y      Z        X      Y      Z
     1   8    -0.02   0.00  -0.00    -0.01  -0.00  -0.01    -0.02   0.01  -0.00
     2   6    -0.01   0.03   0.04     0.02   0.02   0.05    -0.01  -0.01   0.01
     3   6    -0.05   0.06  -0.06    -0.04  -0.07  -0.04    -0.03   0.01   0.01
     4   6    -0.01  -0.04   0.07     0.03  -0.05  -0.14     0.03  -0.03  -0.02
     5   6    -0.02   0.03  -0.00     0.05   0.15   0.01     0.04   0.06   0.01
     6   6    -0.04   0.03  -0.03    -0.01   0.00   0.15    -0.05  -0.03   0.01
     7   6     0.02  -0.04   0.03     0.03  -0.03   0.13    -0.08  -0.07   0.00
     8   6     0.09   0.06   0.03     0.04   0.05   0.02     0.00   0.08   0.07
     9   6     0.12  -0.03   0.05     0.00   0.01  -0.04     0.12   0.04  -0.08
    10   6    -0.05  -0.05  -0.02     0.06  -0.05  -0.06    -0.09  -0.03  -0.03
    11   6    -0.03  -0.08  -0.05    -0.03   0.03  -0.11     0.09   0.01   0.13
    12   6    -0.03  -0.06  -0.05    -0.15  -0.02   0.08     0.03   0.05  -0.07
    13   1     0.01   0.03  -0.06    -0.36  -0.05   0.06    -0.01  -0.06   0.02
    14   1    -0.02   0.10  -0.12     0.10  -0.01   0.12    -0.06  -0.00  -0.05
    15   1     0.12  -0.08   0.06     0.06  -0.20  -0.26     0.07  -0.12  -0.08
    16   1     0.03  -0.14   0.00     0.08   0.06   0.05     0.02   0.12   0.10
    17   1     0.13   0.13  -0.08     0.11   0.19  -0.04    -0.04   0.01  -0.05
    18   1     0.02   0.10   0.12    -0.05  -0.11   0.05     0.01   0.12   0.12
    19   1     0.11  -0.05  -0.10    -0.10  -0.08   0.26     0.11  -0.24  -0.01
    20   1    -0.09   0.00   0.01     0.24  -0.15   0.18    -0.20  -0.22  -0.03
    21   1     0.00  -0.04  -0.23     0.00   0.02   0.05    -0.02   0.05   0.01
    22   1    -0.06   0.27   0.10     0.12   0.15  -0.10    -0.08   0.07   0.15
    23   1     0.17  -0.09  -0.04     0.01  -0.01  -0.08     0.27  -0.07  -0.19
    24   1    -0.02   0.06   0.03     0.19  -0.22  -0.12    -0.33  -0.06  -0.07
    25   1     0.23   0.01   0.27     0.04   0.05  -0.14    -0.10  -0.06  -0.18
    26   1    -0.18   0.31  -0.20    -0.02   0.05  -0.13     0.17  -0.30   0.27
    27   1    -0.30   0.08   0.21    -0.04  -0.08  -0.05     0.06   0.04  -0.34
    28   1     0.21   0.24  -0.13    -0.26  -0.12   0.05    -0.09  -0.07  -0.06
                     22                     23                     24
                      A                      A                      A
 Frequencies --    898.5408               908.4604               940.4998
 Red. masses --      2.4177                 2.2934                 2.2412
 Frc consts  --      1.1501                 1.1152                 1.1680
 IR Inten    --      3.0663                 0.4936                 1.3746
  Atom  AN      X      Y      Z        X      Y      Z        X      Y      Z
     1   8    -0.00   0.01   0.03    -0.02  -0.02   0.01    -0.02   0.01   0.02
     2   6    -0.05  -0.03  -0.12    -0.01   0.06   0.05    -0.04  -0.05  -0.07
     3   6     0.07  -0.02   0.11     0.08  -0.08  -0.09     0.07   0.08   0.07
     4   6    -0.02   0.07   0.04    -0.02  -0.09   0.05    -0.04   0.01  -0.02
     5   6    -0.06   0.07  -0.05    -0.03   0.12   0.01     0.01  -0.02  -0.12
     6   6    -0.06  -0.08  -0.07    -0.01  -0.01  -0.02    -0.01   0.03   0.15
     7   6     0.09  -0.07   0.01    -0.01   0.08  -0.07    -0.05   0.04  -0.01
     8   6     0.03  -0.02   0.01    -0.01  -0.11  -0.06    -0.03  -0.05   0.05
     9   6     0.01   0.13  -0.03     0.04   0.07   0.08     0.10   0.04  -0.02
    10   6     0.02  -0.06   0.11    -0.02  -0.09  -0.02     0.02  -0.06  -0.06
    11   6     0.01   0.04  -0.04    -0.01  -0.04   0.05    -0.06  -0.03  -0.04
    12   6    -0.08  -0.02   0.01     0.01   0.09  -0.02     0.07   0.03   0.05
    13   1     0.33   0.03   0.00    -0.19   0.26  -0.13     0.39  -0.01  -0.01
    14   1    -0.08  -0.10  -0.00     0.42   0.11   0.18    -0.06   0.05  -0.20
    15   1    -0.20  -0.07  -0.10    -0.10  -0.09   0.04    -0.18  -0.02  -0.07
    16   1     0.05  -0.25   0.08     0.05  -0.16  -0.06    -0.02   0.06  -0.21
    17   1     0.21   0.25   0.04     0.18   0.26  -0.05    -0.06  -0.06  -0.26
    18   1     0.06  -0.03   0.28     0.01  -0.04   0.06    -0.07  -0.06  -0.01
    19   1     0.23  -0.02  -0.32     0.03  -0.12   0.01    -0.13   0.10   0.21
    20   1     0.17   0.00   0.03    -0.01   0.28  -0.07    -0.08   0.00  -0.01
    21   1    -0.15  -0.18   0.02    -0.00  -0.11  -0.05    -0.05  -0.07  -0.07
    22   1    -0.04   0.13   0.04    -0.11  -0.15   0.06    -0.19  -0.04   0.20
    23   1    -0.07   0.12  -0.10    -0.07   0.14   0.15     0.20   0.03   0.04
    24   1     0.05  -0.07   0.11    -0.08  -0.00   0.01     0.12  -0.30  -0.16
    25   1     0.01   0.03  -0.18     0.13  -0.02  -0.04     0.10   0.01   0.06
    26   1     0.15  -0.05  -0.11    -0.13  -0.02   0.15    -0.27   0.10   0.07
    27   1    -0.10  -0.01  -0.12     0.26  -0.03  -0.08     0.21  -0.05   0.15
    28   1    -0.05  -0.05   0.11    -0.18  -0.10  -0.03    -0.03  -0.05   0.03
                     25                     26                     27
                      A                      A                      A
 Frequencies --    959.4579               973.1641               980.4441
 Red. masses --      2.3514                 2.6206                 2.0742
 Frc consts  --      1.2754                 1.4623                 1.1747
 IR Inten    --      0.7069                 0.8766                 0.9650
  Atom  AN      X      Y      Z        X      Y      Z        X      Y      Z
     1   8     0.02  -0.00  -0.01    -0.03  -0.01   0.01    -0.00  -0.01   0.01
     2   6     0.01   0.02   0.02     0.01  -0.01   0.06    -0.02   0.01  -0.02
     3   6     0.01   0.05  -0.04     0.11  -0.04  -0.05     0.11   0.02   0.03
     4   6    -0.05  -0.08   0.10    -0.06   0.07  -0.03    -0.09  -0.00  -0.06
     5   6    -0.05   0.08  -0.01    -0.04   0.02  -0.04    -0.07  -0.01   0.06
     6   6     0.02   0.02  -0.02     0.07  -0.06   0.02     0.10   0.02   0.02
     7   6    -0.00  -0.06  -0.13    -0.08  -0.05   0.15     0.03  -0.05  -0.03
     8   6    -0.06   0.14   0.04    -0.02   0.01  -0.07     0.09   0.01   0.08
     9   6    -0.02  -0.12  -0.02     0.04   0.07  -0.09    -0.06  -0.06  -0.04
    10   6     0.11  -0.05  -0.02     0.00   0.01   0.11     0.02   0.07  -0.04
    11   6    -0.04   0.08   0.01    -0.11   0.04   0.01    -0.01  -0.05   0.08
    12   6     0.01  -0.03   0.07     0.12  -0.06  -0.09    -0.06   0.05  -0.06
    13   1     0.10   0.09  -0.09    -0.10   0.11  -0.04     0.06  -0.06   0.07
    14   1     0.10   0.13  -0.10     0.24   0.02   0.13     0.18   0.11  -0.12
    15   1    -0.07  -0.05   0.13     0.04  -0.06  -0.12    -0.16   0.03  -0.04
    16   1     0.02  -0.18  -0.13    -0.01  -0.13  -0.21    -0.02  -0.21  -0.09
    17   1     0.15   0.21  -0.09     0.11   0.10   0.25     0.12   0.12   0.22
    18   1     0.02  -0.12   0.01     0.00  -0.13  -0.15     0.01  -0.26  -0.17
    19   1    -0.02   0.03   0.00    -0.12   0.12   0.07    -0.18   0.12   0.18
    20   1    -0.07  -0.09  -0.14    -0.29  -0.00   0.11    -0.08  -0.26  -0.06
    21   1     0.06   0.26   0.26     0.09   0.11   0.12    -0.14  -0.20  -0.20
    22   1     0.05  -0.20   0.05     0.11  -0.14  -0.14     0.03   0.45  -0.02
    23   1     0.05  -0.26  -0.25     0.17   0.01  -0.12    -0.06  -0.03   0.01
    24   1     0.25  -0.03   0.01    -0.03  -0.12   0.05    -0.15   0.16  -0.03
    25   1    -0.17   0.03  -0.15    -0.19   0.03   0.09     0.04  -0.04   0.09
    26   1     0.03  -0.14   0.10    -0.08   0.01   0.01    -0.06   0.03   0.07
    27   1    -0.03  -0.02  -0.00    -0.21   0.11  -0.01     0.06  -0.00  -0.11
    28   1     0.15  -0.08   0.35     0.36   0.17  -0.05    -0.15  -0.04  -0.06
                     28                     29                     30
                      A                      A                      A
 Frequencies --    996.7677              1021.9031              1057.4402
 Red. masses --      1.9197                 1.9079                 2.1360
 Frc consts  --      1.1237                 1.1739                 1.4072
 IR Inten    --      5.6539                 2.1417                 4.9446
  Atom  AN      X      Y      Z        X      Y      Z        X      Y      Z
     1   8    -0.02   0.01  -0.01     0.00   0.01  -0.00     0.01   0.01  -0.00
     2   6     0.03  -0.03   0.08     0.00  -0.03  -0.03     0.04  -0.06   0.04
     3   6    -0.01  -0.00  -0.05    -0.09  -0.01   0.04    -0.01   0.05  -0.02
     4   6     0.01   0.08   0.04     0.14  -0.01  -0.00    -0.02   0.06   0.05
     5   6    -0.05  -0.07   0.03    -0.05   0.03   0.00    -0.02  -0.01  -0.09
     6   6     0.04   0.12  -0.04     0.02   0.01  -0.03     0.01  -0.01   0.07
     7   6     0.07  -0.03   0.01    -0.04  -0.01   0.00     0.05  -0.09   0.01
     8   6    -0.05  -0.03   0.04    -0.01   0.00  -0.03     0.04   0.06  -0.11
     9   6     0.05   0.02  -0.08    -0.01   0.02  -0.02    -0.06   0.04   0.15
    10   6    -0.02  -0.08   0.01     0.12  -0.01   0.02    -0.03  -0.03  -0.07
    11   6     0.00  -0.03  -0.05    -0.11  -0.06   0.05     0.02  -0.01   0.06
    12   6    -0.04   0.05   0.02     0.03   0.08  -0.04    -0.04  -0.00  -0.06
    13   1    -0.09   0.06  -0.04    -0.08  -0.17   0.11     0.21   0.13  -0.12
    14   1    -0.05  -0.08   0.13    -0.26  -0.13   0.02    -0.23  -0.13   0.07
    15   1     0.22   0.22   0.19     0.36  -0.08  -0.02     0.16   0.05   0.07
    16   1    -0.05  -0.10  -0.09     0.04  -0.17   0.27    -0.02  -0.04  -0.23
    17   1     0.00  -0.03   0.07     0.11   0.14  -0.17     0.01   0.02  -0.20
    18   1    -0.01   0.13  -0.19     0.04  -0.30   0.13    -0.03  -0.09  -0.05
    19   1    -0.10   0.30  -0.03     0.01   0.23  -0.13    -0.08  -0.05   0.16
    20   1     0.15  -0.01   0.03    -0.22  -0.07  -0.04     0.16   0.01   0.03
    21   1    -0.22  -0.16   0.33     0.04   0.05  -0.02     0.08   0.10   0.09
    22   1    -0.05  -0.07   0.06     0.06   0.01  -0.10     0.24   0.02  -0.28
    23   1     0.23  -0.10  -0.21    -0.05   0.05   0.02     0.02   0.09   0.30
    24   1    -0.19  -0.11  -0.03     0.13   0.05   0.06    -0.04  -0.08  -0.09
    25   1     0.26   0.02  -0.17     0.07  -0.01   0.12     0.03  -0.02  -0.11
    26   1    -0.07   0.04  -0.04    -0.33   0.08   0.16    -0.10  -0.11   0.25
    27   1     0.12  -0.03  -0.14     0.18   0.01  -0.06    -0.19   0.07  -0.36
    28   1    -0.16  -0.12   0.08    -0.08  -0.06   0.00    -0.01   0.00  -0.02
                     31                     32                     33
                      A                      A                      A
 Frequencies --   1064.2684              1076.2210              1109.9608
 Red. masses --      1.8043                 2.3510                 1.6293
 Frc consts  --      1.2041                 1.6044                 1.1827
 IR Inten    --      5.9920                 0.1513                 3.5170
  Atom  AN      X      Y      Z        X      Y      Z        X      Y      Z
     1   8     0.02   0.02  -0.01     0.01   0.00   0.01    -0.00  -0.00  -0.01
     2   6     0.02  -0.07  -0.01    -0.02  -0.02  -0.04     0.03  -0.01   0.07
     3   6    -0.03   0.10   0.01     0.05   0.03   0.03     0.02   0.01  -0.05
     4   6    -0.02  -0.09  -0.03    -0.06  -0.04  -0.07    -0.09   0.01   0.01
     5   6    -0.01   0.04   0.01    -0.01  -0.01   0.12     0.10  -0.01   0.01
     6   6     0.03  -0.07   0.01     0.01   0.07  -0.06    -0.10   0.00  -0.02
     7   6     0.08   0.03   0.03    -0.10  -0.11   0.01     0.01  -0.04   0.01
     8   6    -0.10   0.00  -0.03     0.01   0.07  -0.10     0.00   0.00  -0.01
     9   6     0.01  -0.02   0.01     0.01   0.05   0.09    -0.02   0.00  -0.03
    10   6    -0.04   0.08   0.06    -0.06  -0.04   0.01     0.09   0.02   0.01
    11   6    -0.01  -0.04  -0.02     0.03  -0.04  -0.10    -0.04  -0.05   0.03
    12   6    -0.00   0.04  -0.04     0.07   0.03   0.10    -0.00   0.05  -0.03
    13   1     0.11  -0.11   0.05     0.10  -0.03   0.03     0.20   0.26  -0.21
    14   1    -0.02   0.17  -0.25     0.05   0.06  -0.10     0.03  -0.01   0.04
    15   1    -0.01  -0.21  -0.13    -0.09  -0.09  -0.12    -0.27  -0.07  -0.08
    16   1     0.02  -0.06   0.02    -0.01  -0.00   0.19     0.02   0.25   0.20
    17   1     0.06   0.09   0.08    -0.01  -0.03   0.32    -0.15  -0.18   0.05
    18   1     0.02  -0.18   0.02     0.01   0.17  -0.09    -0.01   0.14   0.21
    19   1    -0.02  -0.17   0.09     0.00   0.13  -0.09     0.14   0.02  -0.20
    20   1     0.28   0.17   0.08     0.01  -0.28   0.04    -0.05  -0.13  -0.01
    21   1    -0.10   0.03   0.37     0.29   0.30  -0.17    -0.17  -0.13   0.26
    22   1     0.03  -0.24  -0.07     0.08  -0.14  -0.10     0.18   0.14  -0.24
    23   1     0.33  -0.13   0.02     0.03   0.05   0.09     0.08  -0.04  -0.05
    24   1    -0.21   0.21   0.10     0.01   0.08   0.08     0.23  -0.02   0.01
    25   1     0.10  -0.01   0.08     0.33   0.03  -0.17    -0.03  -0.04   0.21
    26   1     0.02   0.10  -0.16    -0.19   0.07   0.02    -0.15   0.06   0.04
    27   1     0.09   0.00  -0.02     0.17  -0.03  -0.10     0.13  -0.01   0.03
    28   1    -0.12   0.02  -0.17    -0.06  -0.14   0.17    -0.13  -0.03  -0.09
                     34                     35                     36
                      A                      A                      A
 Frequencies --   1119.2142              1171.6907              1192.6189
 Red. masses --      1.5952                 1.4956                 1.3102
 Frc consts  --      1.1773                 1.2098                 1.0980
 IR Inten    --      7.2791                10.5560                 2.9592
  Atom  AN      X      Y      Z        X      Y      Z        X      Y      Z
     1   8     0.01  -0.00   0.01    -0.01  -0.02   0.00     0.01   0.00   0.00
     2   6    -0.03   0.03  -0.06    -0.02   0.12  -0.01    -0.03   0.02  -0.06
     3   6    -0.01  -0.01   0.03    -0.01  -0.06  -0.00    -0.02  -0.02   0.02
     4   6    -0.00  -0.01  -0.04     0.02   0.05   0.03     0.02   0.02   0.03
     5   6     0.01  -0.03   0.05     0.01  -0.02  -0.04     0.00   0.00  -0.00
     6   6     0.00   0.07  -0.02     0.01  -0.02   0.03    -0.03   0.00  -0.01
     7   6     0.07   0.04   0.05     0.03  -0.04   0.04     0.07   0.01   0.02
     8   6    -0.04   0.00   0.01    -0.04   0.01   0.01    -0.07  -0.01   0.00
     9   6     0.04  -0.03   0.03     0.04  -0.06  -0.03     0.06  -0.02   0.01
    10   6     0.03  -0.06  -0.04    -0.01   0.05   0.01     0.03  -0.03   0.00
    11   6    -0.04   0.01   0.06    -0.02  -0.04  -0.02    -0.03  -0.01   0.02
    12   6    -0.02  -0.04  -0.08     0.01   0.03  -0.00    -0.03   0.02  -0.03
    13   1    -0.03  -0.05   0.05     0.12   0.23  -0.16    -0.20  -0.15   0.13
    14   1     0.11   0.11  -0.11    -0.05  -0.12   0.16     0.19   0.18  -0.14
    15   1    -0.26  -0.02  -0.08    -0.33   0.13   0.04    -0.14   0.20   0.15
    16   1    -0.00   0.03   0.17     0.01   0.01   0.10    -0.01   0.02  -0.17
    17   1    -0.01  -0.05   0.16    -0.02  -0.03  -0.28     0.00   0.01   0.02
    18   1    -0.00   0.11  -0.04     0.01  -0.27   0.10    -0.02   0.16  -0.01
    19   1    -0.00   0.24  -0.10    -0.02  -0.07   0.08     0.04  -0.04  -0.04
    20   1     0.36   0.16   0.12     0.19  -0.23   0.07    -0.18  -0.34  -0.04
    21   1     0.06   0.09   0.00     0.22   0.21  -0.19     0.10   0.14   0.02
    22   1    -0.10  -0.17   0.14    -0.08  -0.18   0.11     0.24   0.03  -0.32
    23   1    -0.02  -0.03  -0.02    -0.05  -0.05  -0.08     0.11   0.15   0.38
    24   1     0.20  -0.11  -0.04    -0.19   0.30   0.10    -0.14  -0.17  -0.09
    25   1    -0.11  -0.01  -0.01     0.15  -0.00  -0.02    -0.02  -0.01   0.04
    26   1    -0.20  -0.11   0.30    -0.04   0.09  -0.10     0.16   0.04  -0.18
    27   1    -0.30   0.10  -0.29     0.01   0.03  -0.21     0.07  -0.03   0.08
    28   1     0.05   0.11  -0.20    -0.03  -0.05   0.05     0.01  -0.03   0.11
                     37                     38                     39
                      A                      A                      A
 Frequencies --   1194.8102              1214.6017              1234.5066
 Red. masses --      1.1795                 1.1397                 1.3695
 Frc consts  --      0.9920                 0.9906                 1.2297
 IR Inten    --      0.4565                 1.3865                 1.7497
  Atom  AN      X      Y      Z        X      Y      Z        X      Y      Z
     1   8    -0.00  -0.00   0.01     0.01   0.01  -0.00     0.01  -0.01  -0.00
     2   6    -0.03   0.01  -0.05    -0.00  -0.03  -0.02    -0.01   0.03  -0.01
     3   6     0.04  -0.01   0.01     0.01  -0.00  -0.01     0.00  -0.01  -0.02
     4   6    -0.01   0.03   0.01    -0.03   0.03   0.01     0.01   0.02   0.05
     5   6    -0.00   0.00  -0.00     0.05  -0.01  -0.01     0.03   0.01  -0.07
     6   6    -0.04  -0.02  -0.00    -0.02   0.00   0.01    -0.05  -0.05   0.04
     7   6    -0.00  -0.06   0.00    -0.03   0.01   0.01     0.03  -0.03  -0.02
     8   6    -0.00   0.01  -0.02     0.03  -0.01  -0.00     0.00   0.02   0.02
     9   6     0.01   0.01   0.00    -0.03   0.01   0.00    -0.04  -0.03  -0.00
    10   6     0.01   0.03   0.01     0.02   0.01   0.01     0.00   0.07  -0.02
    11   6     0.01  -0.04  -0.00    -0.00  -0.02  -0.02     0.01  -0.06   0.00
    12   6     0.00   0.04   0.00     0.01  -0.03   0.01    -0.01   0.04   0.01
    13   1    -0.20  -0.18   0.16    -0.27  -0.21   0.17    -0.13  -0.07   0.06
    14   1     0.03  -0.02   0.03     0.23   0.20  -0.15     0.01  -0.02   0.06
    15   1     0.21   0.19   0.18    -0.10   0.16   0.10     0.15  -0.25  -0.15
    16   1    -0.03   0.01  -0.38     0.02   0.10   0.08    -0.00   0.09  -0.20
    17   1    -0.00   0.00   0.01    -0.05  -0.06  -0.23    -0.00  -0.05   0.51
    18   1    -0.03   0.22  -0.04     0.00  -0.17   0.13    -0.02   0.02   0.10
    19   1     0.05  -0.33   0.10     0.03  -0.06  -0.00     0.02   0.32  -0.20
    20   1     0.16  -0.06   0.04    -0.12   0.24  -0.00    -0.04   0.23  -0.03
    21   1     0.01   0.02   0.00    -0.13  -0.13   0.10     0.10   0.09  -0.16
    22   1    -0.06  -0.08   0.07     0.02   0.08  -0.03    -0.13  -0.10   0.19
    23   1    -0.02  -0.10  -0.23     0.14  -0.06  -0.03     0.11  -0.04   0.09
    24   1     0.41   0.15   0.12    -0.05   0.22   0.10    -0.04  -0.19  -0.14
    25   1    -0.07  -0.04   0.18     0.25   0.02  -0.21     0.09  -0.03   0.07
    26   1    -0.15   0.02   0.10    -0.15  -0.01   0.11    -0.01   0.07  -0.08
    27   1     0.07   0.00  -0.05    -0.15   0.05  -0.25     0.01   0.02  -0.21
    28   1    -0.15   0.02  -0.19     0.17  -0.07   0.30     0.03  -0.08   0.23
                     40                     41                     42
                      A                      A                      A
 Frequencies --   1246.0291              1258.5551              1284.6778
 Red. masses --      1.6534                 1.3473                 1.4616
 Frc consts  --      1.5125                 1.2574                 1.4212
 IR Inten    --     23.0902                 0.5964                 0.2641
  Atom  AN      X      Y      Z        X      Y      Z        X      Y      Z
     1   8     0.02  -0.02   0.01    -0.02  -0.00   0.01     0.00   0.01  -0.01
     2   6    -0.07   0.16  -0.09    -0.01  -0.00  -0.01     0.02  -0.00   0.03
     3   6     0.03  -0.03   0.02     0.03   0.01   0.02    -0.08  -0.04   0.03
     4   6     0.03   0.02  -0.01    -0.03  -0.01  -0.06     0.10   0.01   0.00
     5   6    -0.02  -0.02  -0.00    -0.01  -0.03   0.03    -0.05  -0.01  -0.04
     6   6     0.02   0.01   0.02    -0.02   0.06  -0.00     0.01  -0.02   0.02
     7   6    -0.02  -0.02  -0.01     0.03   0.02   0.03     0.02   0.04  -0.01
     8   6     0.00  -0.00  -0.03    -0.01   0.01  -0.01    -0.02  -0.02   0.01
     9   6     0.01  -0.04   0.08     0.05  -0.00   0.02     0.04  -0.01  -0.05
    10   6    -0.04  -0.03  -0.03     0.06  -0.03  -0.04    -0.04   0.05   0.02
    11   6     0.01   0.02   0.01    -0.04  -0.03   0.04     0.04  -0.02  -0.02
    12   6    -0.00  -0.00   0.01    -0.01   0.03  -0.04    -0.03  -0.03   0.02
    13   1    -0.04   0.00   0.03     0.11   0.05  -0.03     0.20   0.21  -0.17
    14   1    -0.18  -0.23   0.19    -0.15  -0.13   0.07     0.11   0.15  -0.12
    15   1    -0.07  -0.13  -0.15     0.15  -0.15  -0.15    -0.15  -0.11  -0.14
    16   1    -0.01  -0.03   0.05    -0.03  -0.01  -0.06    -0.03  -0.10  -0.11
    17   1     0.00  -0.01   0.03    -0.01  -0.04   0.04     0.06   0.04   0.30
    18   1    -0.00   0.01  -0.05    -0.03   0.18  -0.07    -0.02   0.22  -0.12
    19   1    -0.04   0.06   0.04     0.03  -0.34   0.17    -0.02  -0.17   0.13
    20   1    -0.21   0.21  -0.05    -0.18   0.27  -0.01    -0.27  -0.06  -0.08
    21   1    -0.19  -0.15   0.26    -0.02   0.01   0.08    -0.04  -0.03   0.07
    22   1     0.17   0.09  -0.23    -0.01  -0.04   0.01     0.09   0.06  -0.12
    23   1     0.55  -0.29  -0.05    -0.31   0.05  -0.12    -0.07   0.08   0.05
    24   1     0.06   0.10   0.05    -0.06   0.17   0.04     0.33   0.17   0.12
    25   1    -0.02   0.01  -0.04     0.02  -0.02   0.05     0.20   0.00  -0.16
    26   1     0.05  -0.03   0.02     0.21   0.06  -0.27    -0.26  -0.04   0.28
    27   1     0.06  -0.04   0.18    -0.02   0.03  -0.16    -0.09  -0.00  -0.06
    28   1    -0.03   0.01  -0.05     0.17  -0.12   0.43     0.03  -0.01   0.09
                     43                     44                     45
                      A                      A                      A
 Frequencies --   1289.0232              1297.3699              1331.8790
 Red. masses --      1.4738                 1.2761                 1.6763
 Frc consts  --      1.4429                 1.2655                 1.7519
[...]
 874,0.00004185,-0.00004506,-0.00004751,-0.00006230,-0.00017435,0.00008
 638,-0.00014509,0.00012434,0.00003535,-0.00004525,-0.00009606,0.000215
 05,-0.00010868,0.00015913,0.03501399,-0.07046535,0.07842483,0.00012537
 ,-0.00037083,0.00011903,0.00111997,-0.00001958,-0.00164567,-0.00013128
 ,0.00076178,0.00004991,-0.00030486,0.00042103,-0.00043673,-0.00013689,
 -0.00003008,0.00000214,0.00025577,-0.00064355,-0.00054087,-0.00925737,
 0.01176884,0.01695660,-0.08263088,0.04327489,0.07742623,0.00967858,-0.
 01072781,-0.02275403,-0.00461109,-0.00053960,-0.00197100,-0.00046459,-
 0.00010701,-0.00025928,-0.00252563,-0.00450596,0.00296995,0.00026902,0
 .00038364,-0.00066082,0.00001569,-0.00011573,-0.00013190,-0.00001996,-
 0.00009829,0.00006988,0.00005087,0.00009005,-0.00012892,0.00010816,0.0
 0001356,0.00006179,0.00003667,-0.00001567,0.00000544,0.00006075,0.0003
 2387,-0.00022373,0.00068218,0.00039963,-0.00056140,-0.00533154,0.00711
 727,0.01222473,0.09272714,-0.00104213,0.00006499,0.00010752,0.00190763
 ,0.00015317,0.00079030,0.00040686,-0.00135909,0.00029408,0.00004054,0.
 00069741,-0.00032443,0.00001690,0.00007658,0.00001207,-0.00000485,-0.0
 0028831,-0.00019521,-0.00740375,0.01019111,0.01630270,0.04343259,-0.10
 388581,-0.09486013,0.00246305,-0.00233157,-0.00399437,-0.00061729,0.00
 042051,-0.00006393,-0.00013950,-0.00054401,0.00010893,-0.00198149,-0.0
 0253172,0.00188553,0.00070555,-0.00112619,0.00100589,-0.00009456,0.000
 20260,0.00007330,-0.00003394,0.00002922,-0.00008951,0.00002038,0.00001
 880,-0.00008912,0.00004470,0.00000385,0.00000716,-0.00001269,0.0000482
 1,0.00000095,-0.00002456,0.00012106,-0.00005100,0.00075752,0.00119105,
 -0.00055660,0.01043991,-0.01331877,-0.02335692,-0.04784260,0.11074119,
 -0.00064985,0.00053748,-0.00000964,0.00045989,-0.00219472,-0.00108670,
 0.00029556,-0.00023145,-0.00075154,0.00065971,-0.00056803,0.00015911,-
 0.00027941,-0.00004678,-0.00000780,0.00020956,-0.00044638,-0.00025827,
 0.00431086,-0.00696696,-0.01001360,0.07665401,-0.09274264,-0.21951467,
 0.00562797,-0.00711096,-0.01708132,-0.00388471,-0.00098731,-0.00051647
 ,-0.00037691,0.00086823,0.00054110,0.00130076,0.00253935,-0.00084581,-
 0.00007991,0.00095470,0.00091139,-0.00013281,0.00010337,0.00055105,-0.
 00006366,0.00011319,0.00002364,-0.00000408,0.00001484,0.00019017,-0.00
 000799,0.00010664,-0.00005900,-0.00005965,0.00002728,-0.00004862,0.000
 02129,0.00025630,-0.00014953,-0.00010051,0.00029750,0.00120537,-0.0031
 2869,0.00374994,0.00871764,-0.08140816,0.10296751,0.23903891,0.0017038
 5,-0.00168805,0.00051228,0.01138108,0.01648765,-0.00619733,-0.00183342
 ,0.00252831,0.00073375,-0.00034153,0.00053087,-0.00031033,0.00012373,-
 0.00002406,0.00000456,-0.00065810,0.00115873,0.00059134,-0.00304211,-0
 .00116247,-0.00506884,-0.01337490,-0.01760840,0.00846875,-0.13756285,-
 0.11776918,0.04628665,-0.00464215,-0.00819466,0.00323324,0.00019106,-0
 .00017670,0.00054019,0.00065153,-0.00024732,-0.00033691,0.00007075,0.0
 0038237,0.00002704,0.00043262,0.00069582,0.00009090,0.00007591,-0.0000
 5285,-0.00002928,0.00001681,0.00000336,-0.00004995,0.00001070,-0.00005
 490,0.00008906,0.00007197,-0.00004986,0.00003650,0.00007536,-0.0002994
 5,0.00022588,-0.00138354,-0.00084841,0.00096180,0.00073859,0.00055266,
 0.00057622,0.00036643,-0.00007450,-0.00032095,0.14572595,0.00037548,0.
 00565876,-0.00159216,-0.02048941,-0.02620792,0.00845581,0.00397158,-0.
 00300433,0.00002548,0.00091942,0.00061760,-0.00028101,-0.00011759,0.00
 003308,-0.00031772,0.00079705,0.00017406,-0.00052315,0.00026047,0.0006
 7280,-0.00084688,-0.00068876,-0.00153706,0.00084786,-0.11401259,-0.201
 03935,0.06392996,0.00516494,0.00613240,-0.00462360,-0.00011537,0.00018
 394,-0.00021334,-0.00005809,-0.00005458,-0.00003304,-0.00017976,-0.000
 56113,-0.00007620,-0.00058956,-0.00122657,-0.00019196,-0.00001115,0.00
 005490,0.00002992,-0.00002881,0.00003131,0.00009428,0.00003664,0.00009
 607,0.00002763,-0.00008284,-0.00005121,0.00001230,-0.00006537,0.000126
 85,-0.00011585,-0.00006043,0.00003184,0.00017036,-0.00015142,0.0008867
 5,-0.00044984,-0.00009588,-0.00019833,-0.00020661,0.12480677,0.2175937
 9,-0.00107760,-0.00066969,-0.00063148,0.00305881,-0.00059208,-0.000289
 80,0.00015364,-0.00016750,0.00144986,-0.00026205,0.00008465,-0.0002622
 1,-0.00025834,-0.00053149,0.00000537,0.00255761,-0.00230591,-0.0031244
 7,-0.00298233,-0.00068071,-0.00343768,-0.01238591,-0.01664985,0.009021
 03,0.04541702,0.06462244,-0.07248662,0.01482662,0.02011390,-0.01291393
 ,-0.00039863,0.00020617,-0.00126253,-0.00000517,-0.00028276,-0.0002230
 1,0.00004714,0.00041477,-0.00000408,-0.00005677,-0.00015547,0.00003166
 ,0.00006590,0.00002160,0.00010244,0.00002419,0.00001262,-0.00001081,0.
 00005483,0.00010323,0.00010199,-0.00013389,-0.00003517,0.00017737,-0.0
 0009779,0.00093305,-0.00110745,-0.00106547,-0.00080867,0.00075976,0.00
 065671,0.00047504,0.00103413,0.00085002,-0.00002955,0.00012190,-0.0497
 3675,-0.06421624,0.08193804,-0.00064119,-0.00002004,-0.00022365,0.0012
 2065,-0.00079300,0.00063038,-0.00000113,-0.00008276,-0.00024995,-0.000
 05214,0.00018287,-0.00013898,0.00095980,0.00050326,-0.00049860,0.00232
 677,0.00319945,0.00114019,-0.00013292,0.00081522,0.00071987,-0.0007451
 0,0.00071409,0.00130621,0.00478783,0.00933949,0.00775492,-0.12572004,-
 0.10664667,-0.05243864,-0.01970530,-0.02443721,-0.01229312,-0.00459799
 ,0.00391274,0.00028530,-0.00000972,-0.00007442,-0.00000510,0.00008322,
 0.00005365,-0.00002265,0.00004416,-0.00001244,-0.00000580,0.00018019,0
 .00031293,-0.00011255,0.00010558,0.00006326,-0.00006378,0.00057059,-0.
 00007010,0.00054846,0.00002928,-0.00032339,0.00033758,0.00010276,-0.00
 003966,-0.00007398,-0.00004494,-0.00007966,-0.00000932,0.00050954,0.00
 006324,0.00034956,0.00156402,0.00054243,0.00024732,0.13858520,0.000885
 80,0.00005021,0.00036426,-0.00106266,0.00064249,-0.00062782,-0.0001332
 8,0.00030804,0.00012226,0.00028119,0.00064296,0.00072346,0.00224033,-0
 .00252539,0.00439597,-0.01526123,-0.02254327,-0.00781614,0.00044220,-0
 .00007204,0.00020671,0.00089072,0.00011694,-0.00036464,-0.00346106,-0.
 00489052,-0.00212047,-0.10745379,-0.19694433,-0.07242349,0.00764581,0.
 00866574,0.00475776,0.00224105,-0.00022253,-0.00018814,0.00008119,0.00
 005685,-0.00006115,-0.00002306,0.00003225,0.00002610,-0.00001537,-0.00
 004580,-0.00005113,-0.00023525,-0.00022472,0.00011763,-0.00107417,-0.0
 0135100,-0.00018615,0.00049300,0.00050480,-0.00055598,-0.00022354,0.00
 125996,0.00016497,-0.00009781,0.00011052,-0.00006276,-0.00006939,0.000
 05500,-0.00006520,-0.00025347,0.00001062,-0.00012619,0.00036019,0.0018
 1126,0.00047279,0.11431982,0.21269538,0.00122753,-0.00032003,0.0003292
 1,-0.00195948,0.00213771,-0.00200785,0.00001171,-0.00005438,0.00049818
 ,-0.00006240,-0.00003865,-0.00039218,-0.00157101,0.00290704,-0.0027174
 3,0.01265868,0.01916347,0.00640951,0.00046764,0.00059520,0.00015693,0.
 00260298,-0.00186325,-0.00355984,-0.01156069,-0.02197567,-0.01604133,-
 0.05230267,-0.07165886,-0.07875687,-0.00144759,-0.00150380,-0.00078167
 ,-0.00031308,0.00006255,0.00063562,-0.00003223,0.00015853,0.00004721,-
 0.00000958,-0.00012560,0.00001964,-0.00003522,-0.00007119,0.00016197,0
 .00009603,0.00000677,-0.00001374,0.00065278,0.00119063,0.00025087,-0.0
 0015890,-0.00077863,0.00062908,0.00043428,-0.00038903,0.00099674,0.000
 00555,-0.00000576,0.00008442,-0.00004952,0.00008507,0.00007705,-0.0011
 6727,-0.00027409,-0.00101947,-0.00038572,-0.00015129,0.00063903,0.0534
 2405,0.07281943,0.09408557,0.00029682,-0.00009067,0.00010314,-0.000232
 27,-0.00002160,-0.00040719,0.00005944,-0.00014111,0.00003234,0.0000912
 1,0.00008078,-0.00019201,-0.00041195,-0.00045492,0.00008353,-0.0068589
 0,0.00116209,0.00107956,-0.00089437,-0.00012296,0.00014487,0.00033159,
 -0.00002270,0.00055060,0.00118137,-0.00028011,-0.00061065,-0.00232256,
 0.02900962,-0.01930478,-0.04662887,0.00461879,0.00025917,-0.00339632,-
 0.01783078,0.00938109,0.00000011,0.00000829,0.00001972,0.00003826,-0.0
 0007407,-0.00001154,0.00000119,0.00006018,0.00011855,0.00011118,0.0001
 8179,-0.00013597,0.00018697,0.00008115,0.00006134,-0.00035342,0.001767
 37,-0.00151997,0.00004681,-0.00030751,0.00004664,0.00008423,-0.0001349
 6,-0.00013603,0.00031240,0.00035850,0.00033816,0.00004898,-0.00001232,
 -0.00005295,-0.00019528,-0.00008906,0.00019797,0.00150430,-0.00046565,
 -0.00011102,0.05722266,-0.00011116,0.00015282,0.00000192,0.00011838,-0
 .00026635,-0.00000220,-0.00006725,0.00010590,0.00006796,-0.00004815,0.
 00037988,0.00012677,-0.00011518,0.00060122,-0.00014143,0.00299773,0.00
 081031,-0.00065085,-0.00152811,-0.00024164,-0.00007503,0.00034142,-0.0
 0084849,0.00065646,-0.00002057,0.00029606,0.00039711,0.00087856,-0.009
 36148,0.00607085,0.00388637,-0.23473289,0.11439745,-0.00164198,-0.0174
 6018,0.01130579,0.00001351,-0.00000956,-0.00005790,0.00004527,0.000039
 79,-0.00001083,-0.00004740,0.00005890,-0.00008003,-0.00001872,0.000066
 79,-0.00015972,0.00006301,-0.00004979,0.00000516,0.00002280,-0.0005465
 1,0.00070016,-0.00011194,0.00006680,0.00011414,0.00022814,-0.00016896,
 -0.00044407,-0.00034872,0.00045897,-0.00105989,-0.00010327,0.00051633,
 -0.00017458,0.00034059,-0.00014644,-0.00022206,0.00017756,0.00109179,-
 0.00016110,-0.00287345,0.25279778,-0.00008369,0.00008632,0.00003891,-0
 .00001892,-0.00017925,-0.00001353,0.00003611,0.00001509,0.00003903,-0.
 00000176,0.00013759,-0.00001803,0.00001271,-0.00013410,-0.00011472,-0.
 00115544,-0.00004606,0.00068190,-0.00088483,-0.00034738,0.00015685,0.0
 0020651,-0.00045741,-0.00071881,-0.00029770,-0.00023951,0.00017205,-0.
 00011912,0.00089618,-0.00150261,-0.00016679,0.11511590,-0.12215439,-0.
 00083469,-0.01417279,0.00699017,-0.00000634,0.00000627,0.00002198,0.00
 001373,-0.00000877,-0.00001786,-0.00001502,0.00005098,0.00003676,-0.00
 004988,-0.00008989,-0.00005765,0.00003796,0.00004589,0.00001120,-0.000
 07941,0.00053217,0.00013373,0.00013783,-0.00019133,0.00055577,0.000049
 36,-0.00000997,-0.00024563,0.00049813,-0.00073020,-0.00086821,-0.00000
 143,-0.00003781,0.00010838,-0.00009868,0.00016735,0.00018002,-0.000355
 52,0.00001374,-0.00004421,0.00511704,-0.12492933,0.13199802,-0.0009839
 1,0.00085111,-0.00056970,0.00046411,-0.00213044,0.00193044,-0.00009975
 ,0.00017542,-0.00020217,-0.00020475,0.00010423,-0.00001547,0.00015538,
 0.00017024,-0.00006340,0.00141651,-0.00068470,0.00128161,-0.00237360,-
 0.00145844,-0.00157255,-0.00064671,-0.00026899,-0.00086793,-0.00545880
 ,0.00363680,-0.00091986,-0.01209207,0.00698053,0.02949316,-0.07707071,
 0.01948781,0.08028669,0.00685857,-0.00560196,-0.01794400,-0.00000716,-
 0.00002131,-0.00000274,0.00009882,0.00013238,-0.00003068,0.00007696,0.
 00000331,-0.00005946,0.00003126,0.00009172,-0.00001876,0.00004029,0.00
 001522,0.00003910,0.00019131,-0.00056751,-0.00012302,0.00004222,0.0002
 6776,-0.00099928,0.00066969,-0.00070108,-0.00059300,0.00010179,-0.0001
 1268,0.00006723,0.00012991,0.00002275,0.00003840,-0.00017349,0.0000099
 1,0.00037478,0.00076611,-0.00074037,-0.00012406,0.00046996,-0.00070301
 ,-0.00109419,0.08686309,0.00025377,-0.00020694,0.00020914,0.00001767,0
 .00058157,-0.00055523,-0.00000043,-0.00007080,0.00018918,-0.00019520,0
 .00031822,-0.00032308,0.00022127,-0.00015248,-0.00022660,-0.00009643,0
 .00020672,-0.00101664,-0.00362701,-0.00192334,-0.00192454,-0.00023774,
 -0.00015373,0.00102461,0.00196765,-0.00017021,0.00020494,0.00428064,-0
 .00296773,-0.00987888,0.01925986,-0.06016110,-0.04880194,0.00724685,-0
 .00714530,-0.02037562,-0.00004603,0.00002507,0.00003498,0.00007735,-0.
 00003716,-0.00001775,0.00001241,-0.00000277,0.00009163,-0.00020619,-0.
 00019279,0.00003043,-0.00008214,0.00005304,0.00014708,-0.00024682,0.00
 022015,0.00011866,0.00025788,0.00002611,0.00053425,0.00077495,-0.00087
 979,-0.00078042,-0.00024805,0.00020838,-0.00026617,-0.00002868,0.00018
 339,-0.00005160,0.00028112,-0.00014724,-0.00020818,-0.00016612,0.00025
 639,0.00035554,-0.01049520,0.00672884,0.02672805,-0.01907837,0.0649031
 0,0.00018062,-0.00007224,-0.00003781,-0.00029138,0.00012023,0.00012633
 ,0.00003475,-0.00007594,0.00008203,-0.00011691,0.00022033,-0.00025491,
 0.00022129,-0.00009713,0.00001643,-0.00068634,0.00030630,0.00052155,-0
 .00208947,-0.00038337,-0.00041749,-0.00029054,0.00018296,0.00022317,-0
 .00092740,0.00048681,0.00112533,-0.00098372,0.00105607,0.00226848,0.08
 100146,-0.05012828,-0.26665925,0.00447228,-0.00184125,-0.00994299,-0.0
 0004333,0.00001307,0.00000308,0.00006702,-0.00003372,0.00001179,0.0000
 2834,-0.00003961,0.00007223,-0.00006129,-0.00012716,-0.00002566,0.0000
 1437,-0.00000385,0.00004096,-0.00000648,0.00000801,0.00031832,0.000046
 48,-0.00026766,0.00057123,0.00048817,-0.00049627,-0.00031310,0.0001114
 8,-0.00013369,0.00032519,0.00004119,-0.00014287,0.00001699,0.00001948,
 0.00003242,0.00004174,0.00068696,0.00006652,0.00029041,0.00639207,-0.0
 0307594,-0.01681810,-0.08776591,0.05513994,0.28708691,-0.00003817,0.00
 024804,-0.00002551,0.00022616,-0.00063240,0.00011870,0.00002260,-0.000
 00875,-0.00015419,0.00079997,-0.00063343,0.00048197,-0.00177917,0.0003
 0668,0.00043792,-0.00003269,-0.00040925,-0.00010436,-0.01015134,-0.008
 66196,0.01163473,-0.00102757,0.00347189,0.00279278,0.00066376,0.000143
 81,0.00017145,-0.00016474,-0.00125222,-0.00026239,-0.00848981,-0.00897
 527,0.01253681,-0.12341179,-0.07004043,0.09281421,0.00014383,-0.000067
 81,-0.00012210,0.00000691,0.00007056,-0.00004955,-0.00016347,0.0002472
 0,-0.00004934,-0.00010920,0.00136663,-0.00206027,0.00065309,-0.0000628
 0,-0.00015477,0.00016292,0.00027151,-0.00004051,-0.00004050,0.00005325
 ,-0.00007682,0.00021947,0.00032239,0.00000724,0.00016515,-0.00012978,-
 0.00010573,-0.00101649,-0.00080009,0.00048018,0.00001822,-0.00003715,-
 0.00011590,-0.00051486,0.00035539,-0.00023187,-0.00164719,-0.00145161,
 -0.00112001,0.00154011,0.00057224,-0.00009252,0.13118677,-0.00009385,0
 .00001081,-0.00002277,-0.00005173,-0.00004569,0.00001561,-0.00015262,0
 .00018762,-0.00015702,-0.00011733,0.00108775,0.00069383,0.00100416,-0.
 00132299,0.00122949,-0.00042210,0.00024183,0.00014936,0.01176011,0.012
 62450,-0.01434160,0.00236586,-0.00286685,-0.00254804,-0.00013943,0.000
 09822,-0.00025968,0.00032837,-0.00122197,-0.00040062,-0.00960672,-0.01
 308443,0.01341920,-0.07057090,-0.11540664,0.09023861,-0.00002989,0.000
 04966,0.00002640,-0.00007837,0.00000783,0.00004134,-0.00015866,-0.0000
 5281,-0.00009893,0.00220993,-0.00078938,0.00117140,0.00020497,-0.00005
 505,-0.00021689,-0.00000586,0.00005082,-0.00008390,-0.00001833,-0.0000
 3857,-0.00006582,-0.00069986,0.00041292,0.00054056,-0.00010577,0.00014
 187,-0.00020998,0.00099017,0.00084048,-0.00067337,0.00011753,0.0000067
 3,0.00007832,-0.00038204,0.00026309,-0.00001729,-0.00332036,-0.0020986
 2,-0.00202798,0.00018898,0.00103286,-0.00002173,0.07518672,0.12817232,
 0.00015482,-0.00013857,-0.00003403,-0.00024058,0.00031152,0.00005394,-
 0.00010517,-0.00012338,-0.00001510,-0.00055918,0.00088486,-0.00039143,
 -0.00125862,0.00137492,-0.00078493,0.00005740,0.00005473,0.00009941,0.
 00965031,0.00995156,-0.01183562,0.00141899,-0.00333604,-0.00253905,-0.
 00009061,-0.00017675,-0.00025682,-0.00019987,-0.00069597,-0.00025307,-
 0.00906066,-0.00974778,0.01033875,0.09514537,0.09067070,-0.16981334,-0
 .00003071,0.00006839,0.00004531,0.00005397,-0.00006624,0.00006484,0.00
 010874,-0.00033498,0.00002799,-0.00201291,0.00124063,-0.00000334,-0.00
 034623,0.00019775,0.00028761,-0.00005794,-0.00001113,-0.00006515,-0.00
 004012,-0.00002602,0.00002654,-0.00031793,-0.00008228,-0.00011554,-0.0
 0022828,-0.00047507,0.00034544,0.00128055,0.00056828,-0.00035261,0.000
 14350,0.00001905,0.00010940,-0.00023064,0.00015283,-0.00004769,-0.0018
 3368,-0.00233314,-0.00021649,-0.00006975,0.00021934,0.00177251,-0.1014
 6413,-0.09814319,0.18745703,-0.00012171,-0.00011540,-0.00005579,0.0002
 4264,0.00023039,0.00022330,-0.00012182,0.00065363,-0.00067003,-0.00065
 407,0.00061406,0.00292531,0.00001799,-0.00057231,0.00076950,0.00026411
 ,-0.00024921,0.00026988,-0.01180672,0.00966843,-0.01006149,0.00046277,
 0.00102909,-0.00116225,0.00032356,-0.00018140,-0.00036202,-0.00092122,
 -0.00325247,-0.00197385,-0.01367024,0.00751353,-0.01076894,-0.15760305
 ,0.08015939,-0.09654615,0.00001511,0.00000088,0.00003832,-0.00030464,0
 .00002929,0.00010916,-0.00022686,0.00040989,-0.00006233,0.00037337,0.0
 0002362,-0.00020281,0.00019094,0.00000563,-0.00013338,0.00000596,0.000
 11753,0.00000038,-0.00003274,-0.00001499,-0.00001726,0.00140244,-0.000
 30852,0.00019922,-0.00025270,-0.00084209,0.00058928,0.00024558,-0.0002
 3735,0.00014248,-0.00001120,-0.00001145,0.00004404,-0.00117468,0.00033
 343,-0.00005892,0.00095366,0.00007717,0.00027404,-0.00080513,-0.000469
 24,-0.00045066,0.01277801,-0.00840297,0.01013335,0.17043064,0.00018005
 ,0.00034458,0.00000972,-0.00030801,-0.00079723,-0.00001831,0.00026021,
 -0.00092716,0.00087978,0.00247509,-0.00057728,-0.00307937,-0.00024299,
 -0.00026628,-0.00050243,-0.00022341,-0.00031918,0.00008385,0.01405839,
 -0.01313597,0.01232357,-0.00093431,-0.00007863,0.00032189,-0.00004794,
 0.00004073,-0.00023769,-0.00147477,-0.00257981,-0.00231415,-0.01780633
 ,0.00897606,-0.01293353,0.08089591,-0.10611344,0.07459099,0.00000585,0
 .00000895,-0.00006655,0.00051449,-0.00000182,-0.00023525,0.00005239,-0
 .00033060,0.00010072,0.00025742,0.00011991,-0.00032806,0.00020825,0.00
 002709,0.00003027,0.00005261,0.00023339,-0.00005421,0.00001675,0.00006
 937,0.00005816,-0.00044420,0.00023663,0.00024738,-0.00005871,0.0004400
 1,-0.00020431,-0.00004672,0.00007323,-0.00000875,0.00000482,0.00006204
 ,0.00001675,-0.00107250,0.00024531,-0.00009331,-0.00059113,0.00175873,
 -0.00019374,-0.00006931,-0.00053244,-0.00069194,0.01054665,-0.00824631
 ,0.00997599,-0.08620855,0.12127014,-0.00004757,0.00018719,0.00001472,0
 .00006394,-0.00049523,0.00004085,0.00032448,-0.00080972,0.00079736,0.0
 0246511,-0.00130994,-0.00247380,0.00051961,0.00056932,-0.00095870,0.00
 020579,-0.00001222,0.00021185,0.01387676,-0.01136820,0.00993675,-0.000
 36606,-0.00064213,0.00096009,-0.00001499,0.00015148,0.00003686,0.00058
 968,-0.00243676,-0.00124206,-0.00898919,0.00631549,-0.00708681,-0.0981
 7583,0.07601927,-0.13883423,-0.00010530,0.00000960,0.00003989,0.000432
 91,-0.00004374,-0.00010804,0.00004610,-0.00014718,0.00005679,-0.000739
 26,0.00009364,0.00044363,-0.00031014,0.00010795,0.00022139,-0.00009843
 ,0.00000293,-0.00001336,0.00003552,0.00001282,0.00005848,-0.00008162,0
 .00026275,0.00150945,-0.00022651,0.00017961,0.00000110,-0.00016623,-0.
 00005867,0.00012940,-0.00000641,0.00002647,0.00004033,-0.00070851,0.00
 024487,0.00007082,0.00039000,-0.00026567,0.00166546,-0.00047548,-0.000
 60114,-0.00044541,-0.01524602,0.01168470,-0.01390454,0.10680765,-0.077
 67747,0.14883172\\-0.00003871,-0.00001000,-0.00000027,-0.00003207,-0.0
 0003684,-0.00000567,0.00006785,-0.00003081,0.00000062,-0.00000532,-0.0
 0001341,0.00003662,-0.00000376,-0.00001575,-0.00001709,0.00003529,-0.0
 0000308,0.00002478,0.00000523,-0.00001443,-0.00003283,-0.00001410,0.00
 001107,-0.00002117,-0.00003055,0.00002765,0.00005916,0.00001884,-0.000
 00797,-0.00006365,0.00001148,0.00007324,0.00003033,-0.00003565,-0.0000
 3215,-0.00000541,-0.00000334,-0.00000021,0.00000940,0.00000512,0.00001
 165,0.00000542,0.00000764,0.00000162,0.00000428,0.00001021,-0.00000343
 ,-0.00001401,0.00000922,0.00000874,-0.00001489,-0.00000206,0.00000882,
 0.00000664,-0.00000159,0.00000672,-0.00000669,-0.00000145,0.00000332,-
 0.00000490,-0.00000311,-0.00000300,0.00001427,-0.00000561,0.00002269,0
 .00000609,-0.00000161,-0.00000959,-0.00000391,-0.00000720,0.00000967,0
 .00000852,0.00000239,0.00000148,-0.00000196,0.00000189,-0.00001591,-0.
 00000129,0.00000457,0.00001085,-0.00001168,0.00000640,-0.00000094,-0.0
 0000071\\\@


 DO YOU KNOW THAT THE LETTERS IN "EPISCOPAL", WHEN
 REARRANGED, SPELL "PEPSI COLA"?
 Job cpu time:       0 days  0 hours  3 minutes 31.7 seconds.
 Elapsed time:       0 days  0 hours  3 minutes 35.3 seconds.
 File lengths (MBytes):  RWF=    151 Int=      0 D2E=      0 Chk=      6 Scr=      1
 Normal termination of Gaussian 16 at Thu Feb 22 11:09:39 2024.
