 Entering Gaussian System, Link 0=g16
 Input=/Volumes/SSD-PMU3/b3lyp_6-31gd_freq/LYCRAZFAMQOPDJ-DTWKUNHWSA-N_calculating/gaussianinput1.gjf
 Output=/Volumes/SSD-PMU3/b3lyp_6-31gd_freq/LYCRAZFAMQOPDJ-DTWKUNHWSA-N_calculating/gaussianinput1.log
 Initial command:
 /Applications/g16/l1.exe "/Users/macmini_m1_2022/PycharmProjects/sphere_model/sphere_model_lib/Gau-92937.inp" -scrdir="/Users/macmini_m1_2022/PycharmProjects/sphere_model/sphere_model_lib/"
 Entering Link 1 = /Applications/g16/l1.exe PID=     92938.
  
 Copyright (c) 1988,1990,1992,1993,1995,1998,2003,2009,2016,
            Gaussian, Inc.  All Rights Reserved.
  
 This is part of the Gaussian(R) 16 program.  It is based on
 the Gaussian(R) 09 system (copyright 2009, Gaussian, Inc.),
 the Gaussian(R) 03 system (copyright 2003, Gaussian, Inc.),
 the Gaussian(R) 98 system (copyright 1998, Gaussian, Inc.),
 the Gaussian(R) 94 system (copyright 1995, Gaussian, Inc.),
 the Gaussian 92(TM) system (copyright 1992, Gaussian, Inc.),
 the Gaussian 90(TM) system (copyright 1990, Gaussian, Inc.),
 the Gaussian 88(TM) system (copyright 1988, Gaussian, Inc.),
 the Gaussian 86(TM) system (copyright 1986, Carnegie Mellon
 University), and the Gaussian 82(TM) system (copyright 1983,
 Carnegie Mellon University). Gaussian is a federally registered
 trademark of Gaussian, Inc.
  
 This software contains proprietary and confidential information,
 including trade secrets, belonging to Gaussian, Inc.
  
 This software is provided under written license and may be
 used, copied, transmitted, or stored only in accord with that
 written license.
  
 The following legend is applicable only to US Government
 contracts under FAR:
  
                    RESTRICTED RIGHTS LEGEND
  
 Use, reproduction and disclosure by the US Government is
 subject to restrictions as set forth in subparagraphs (a)
 and (c) of the Commercial Computer Software - Restricted
 Rights clause in FAR 52.227-19.
  
 Gaussian, Inc.
 340 Quinnipiac St., Bldg. 40, Wallingford CT 06492
  
  
 ---------------------------------------------------------------
 Warning -- This program may not be used in any manner that
 competes with the business of Gaussian, Inc. or will provide
 assistance to any competitor of Gaussian, Inc.  The licensee
 of this program is prohibited from giving any competitor of
 Gaussian, Inc. access to this program.  By using this program,
 the user acknowledges that Gaussian, Inc. is engaged in the
 business of creating and licensing software in the field of
 computational chemistry and represents and warrants to the
 licensee that it is not a competitor of Gaussian, Inc. and that
 it will not use this program in any manner prohibited above.
 ---------------------------------------------------------------
  

 Cite this work as:
 Gaussian 16, Revision A.03,
 M. J. Frisch, G. W. Trucks, H. B. Schlegel, G. E. Scuseria, 
 M. A. Robb, J. R. Cheeseman, G. Scalmani, V. Barone, 
 G. A. Petersson, H. Nakatsuji, X. Li, M. Caricato, A. V. Marenich, 
 J. Bloino, B. G. Janesko, R. Gomperts, B. Mennucci, H. P. Hratchian, 
 J. V. Ortiz, A. F. Izmaylov, J. L. Sonnenberg, D. Williams-Young, 
 F. Ding, F. Lipparini, F. Egidi, J. Goings, B. Peng, A. Petrone, 
 T. Henderson, D. Ranasinghe, V. G. Zakrzewski, J. Gao, N. Rega, 
 G. Zheng, W. Liang, M. Hada, M. Ehara, K. Toyota, R. Fukuda, 
 J. Hasegawa, M. Ishida, T. Nakajima, Y. Honda, O. Kitao, H. Nakai, 
 T. Vreven, K. Throssell, J. A. Montgomery, Jr., J. E. Peralta, 
 F. Ogliaro, M. J. Bearpark, J. J. Heyd, E. N. Brothers, K. N. Kudin, 
 V. N. Staroverov, T. A. Keith, R. Kobayashi, J. Normand, 
 K. Raghavachari, A. P. Rendell, J. C. Burant, S. S. Iyengar, 
 J. Tomasi, M. Cossi, J. M. Millam, M. Klene, C. Adamo, R. Cammi, 
 J. W. Ochterski, R. L. Martin, K. Morokuma, O. Farkas, 
 J. B. Foresman, and D. J. Fox, Gaussian, Inc., Wallingford CT, 2016.
 
 ******************************************
 Gaussian 16:  EM64M-G16RevA.03 25-Dec-2016
                24-Feb-2024 
 ******************************************
 %nprocshared=10
 Will use up to   10 processors via shared memory.
 %mem=12GB
 %chk= 1.chk
 ---------------------
 # freq b3lyp/6-31g(d)
 ---------------------
 1/10=4,30=1,38=1/1,3;
 2/12=2,17=6,18=5,40=1/2;
 3/5=1,6=6,7=1,11=2,25=1,30=1,71=2,74=-5,140=1/1,2,3;
 4//1;
 5/5=2,38=5,98=1/2;
 8/6=4,10=90,11=11/1;
 11/6=1,8=1,9=11,15=111,16=1/1,2,10;
 10/6=1/2;
 6/7=2,8=2,9=2,10=2,28=1/1;
 7/8=1,10=1,25=1/1,2,3,16;
 1/10=4,30=1/3;
 99//99;
 ---------
 good luck
 ---------
 Symbolic Z-matrix:
 Charge =  0 Multiplicity = 1
 O                     1.21669   0.        0. 
 C                     0.        0.        0. 
 C                    -0.83319  -1.28237   0.00453 
 C                    -0.01361  -2.4963    0.44643 
 C                    -2.10858  -1.07194   0.85064 
 C                    -3.03423   0.09173   0.37056 
 C                    -4.37667  -0.38756  -0.28421 
 C                    -4.14004  -1.3439   -1.471 
 C                    -5.1825    0.8314   -0.7825 
 C                    -5.23485  -1.1085    0.77786 
 C                    -2.24068   1.09359  -0.50564 
 C                    -0.8077    1.29359   0.00453 
 H                    -1.14229  -1.43361  -1.0433 
 H                     0.90832  -2.57412  -0.13522 
 H                    -0.58946  -3.42019   0.32272 
 H                     0.27028  -2.41097   1.50194 
 H                    -1.79452  -0.88281   1.88593 
 H                    -2.65817  -2.01791   0.88487 
 H                    -3.33625   0.64707   1.27069 
 H                    -3.55303  -0.87293  -2.26796 
 H                    -5.0982   -1.64655  -1.91037 
 H                    -3.62053  -2.25889  -1.16443 
 H                    -6.17367   0.5164   -1.13017 
 H                    -4.69009   1.34     -1.61787 
 H                    -5.3311    1.56534   0.01985 
 H                    -6.1906   -1.42913   0.34616 
 H                    -4.74316  -2.00151   1.17851 
 H                    -5.45735  -0.44318   1.62145 
 H                    -2.19864   0.74625  -1.54642 
 H                    -2.75544   2.05927  -0.52996 
 H                    -0.25927   2.04502  -0.57377 
 H                    -0.82596   1.65941   1.04319 
 

 GradGradGradGradGradGradGradGradGradGradGradGradGradGradGradGradGradGrad
 Berny optimization.
 Initialization pass.
 Trust Radius=3.00D-01 FncErr=1.00D-07 GrdErr=1.00D-07 EigMax=2.50D+02 EigMin=1.00D-04
 Number of steps in this run=      2 maximum allowed number of steps=      2.
 GradGradGradGradGradGradGradGradGradGradGradGradGradGradGradGradGradGrad

                          Input orientation:                          
 ---------------------------------------------------------------------
 Center     Atomic      Atomic             Coordinates (Angstroms)
 Number     Number       Type             X           Y           Z
 ---------------------------------------------------------------------
      1          8           0        1.216689    0.000000    0.000000
      2          6           0        0.000000    0.000000    0.000000
      3          6           0       -0.833187   -1.282368    0.004529
      4          6           0       -0.013610   -2.496295    0.446431
      5          6           0       -2.108583   -1.071941    0.850643
      6          6           0       -3.034225    0.091730    0.370559
      7          6           0       -4.376669   -0.387564   -0.284212
      8          6           0       -4.140044   -1.343904   -1.470996
      9          6           0       -5.182502    0.831398   -0.782502
     10          6           0       -5.234851   -1.108501    0.777862
     11          6           0       -2.240676    1.093591   -0.505641
     12          6           0       -0.807698    1.293592    0.004529
     13          1           0       -1.142294   -1.433614   -1.043301
     14          1           0        0.908318   -2.574118   -0.135221
     15          1           0       -0.589460   -3.420185    0.322719
     16          1           0        0.270283   -2.410968    1.501942
     17          1           0       -1.794519   -0.882811    1.885928
     18          1           0       -2.658167   -2.017912    0.884869
     19          1           0       -3.336250    0.647068    1.270689
     20          1           0       -3.553032   -0.872929   -2.267958
     21          1           0       -5.098196   -1.646551   -1.910370
     22          1           0       -3.620526   -2.258895   -1.164433
     23          1           0       -6.173667    0.516398   -1.130174
     24          1           0       -4.690093    1.339998   -1.617868
     25          1           0       -5.331099    1.565344    0.019847
     26          1           0       -6.190605   -1.429131    0.346162
     27          1           0       -4.743164   -2.001515    1.178511
     28          1           0       -5.457354   -0.443179    1.621450
     29          1           0       -2.198640    0.746248   -1.546420
     30          1           0       -2.755435    2.059272   -0.529957
     31          1           0       -0.259268    2.045018   -0.573766
     32          1           0       -0.825963    1.659405    1.043190
 ---------------------------------------------------------------------
                    Distance matrix (angstroms):
                    1          2          3          4          5
     1  O    0.000000
     2  C    1.216689   0.000000
     3  C    2.417950   1.529277   0.000000
     4  C    2.818586   2.535937   1.529903   0.000000
     5  C    3.595843   2.513717   1.544935   2.565362   0.000000
     6  C    4.268020   3.058145   2.620437   3.978410   1.562506
     7  C    5.613968   4.402978   3.666103   4.900701   2.626877
     8  C    5.715286   4.594548   3.621638   4.693825   3.096903
     9  C    6.500244   5.306775   4.899384   6.269072   3.967221
    10  C    6.592133   5.407172   4.472462   5.412687   3.127329
    11  C    3.661282   2.544060   2.808288   4.330536   2.558610
    12  C    2.402404   1.525050   2.576086   3.897319   2.829127
    13  H    2.951021   2.109161   1.102892   2.150005   2.156744
    14  H    2.596047   2.733022   2.172783   1.092853   3.511432
    15  H    3.881235   3.485581   2.175065   1.095664   2.846171
    16  H    2.994041   2.853358   2.175691   1.096348   2.806455
    17  H    3.661073   2.748887   2.150225   2.801271   1.098281
    18  H    4.457518   3.452653   2.155592   2.723006   1.094566
    19  H    4.771017   3.628211   3.404586   4.647587   2.153740
    20  H    5.353118   4.304611   3.567828   4.746655   3.442631
    21  H    6.799884   5.687903   4.689325   5.668297   4.109885
    22  H    5.464171   4.423428   3.176371   3.957409   2.784845
    23  H    7.494086   6.297470   5.748377   7.036214   4.792845
    24  H    6.269224   5.139072   4.938087   6.391241   4.309894
    25  H    6.732327   5.556196   5.323618   6.704817   4.246187
    26  H    7.551837   6.362848   5.370305   6.269303   4.128558
    27  H    6.396468   5.281340   4.145278   4.811385   2.812938
    28  H    6.882467   5.710361   4.970070   5.935512   3.493387
    29  H    3.822666   2.789681   2.895719   4.388610   3.009956
    30  H    4.505466   3.480500   3.891949   5.405935   3.482667
    31  H    2.586456   2.139749   3.425683   4.660973   3.894142
    32  H    2.830953   2.126990   3.119759   4.276199   3.023647
                    6          7          8          9         10
     6  C    0.000000
     7  C    1.568631   0.000000
     8  C    2.583642   1.542412   0.000000
     9  C    2.547892   1.543868   2.508522   0.000000
    10  C    2.539528   1.544094   2.512246   2.490117   0.000000
    11  C    1.549572   2.608700   3.237420   2.966435   3.932133
    12  C    2.556535   3.955656   4.498676   4.468999   5.095859
    13  H    2.811597   3.483047   3.029435   4.639135   4.491253
    14  H    4.786043   5.721390   5.365042   7.008181   6.381244
    15  H    4.279335   4.889592   4.487204   6.355589   5.208713
    16  H    4.296894   5.373888   5.424755   6.742736   5.703263
    17  H    2.186994   3.409146   4.121048   4.640847   3.621413
    18  H    2.203752   2.641597   2.863625   4.155835   2.734553
    19  H    1.099933   2.137908   3.482369   2.767348   2.632411
    20  H    2.856834   2.202091   1.096152   2.786841   3.487267
    21  H    3.533304   2.179458   1.096677   2.723862   2.744952
    22  H    2.867994   2.201913   1.095942   3.483612   2.775241
    23  H    3.505515   2.182201   2.777140   1.096590   2.676242
    24  H    2.872963   2.204845   2.743621   1.094978   3.468635
    25  H    2.751394   2.194821   3.479217   1.097507   2.780881
    26  H    3.503762   2.184627   2.741191   2.720321   1.096647
    27  H    2.820449   2.208781   2.795728   3.473325   1.095331
    28  H    2.778922   2.191465   3.479919   2.734790   1.097179
    29  H    2.191211   2.760889   2.853677   3.081275   4.249819
    30  H    2.181714   2.945471   3.792664   2.731686   4.229974
    31  H    3.522424   4.791063   5.229745   5.074907   6.043840
    32  H    2.790423   4.308084   5.130705   4.795642   5.212485
                   11         12         13         14         15
    11  C    0.000000
    12  C    1.534177   0.000000
    13  H    2.807541   2.940673   0.000000
    14  H    4.848243   4.233606   2.516022   0.000000
    15  H    4.877178   4.729542   2.473479   1.780134   0.000000
    16  H    4.755758   4.138605   3.070644   1.764656   1.774329
    17  H    3.134457   3.041415   3.051092   3.775035   3.214663
    18  H    3.433550   3.894264   2.521332   3.750968   2.561627
    19  H    2.134248   2.900815   3.807523   5.510806   4.998605
    20  H    2.948769   4.170716   2.761487   5.229365   4.688590
    21  H    4.200841   5.542531   4.055405   6.331646   5.334901
    22  H    3.684719   4.679598   2.614841   4.655005   3.570375
    23  H    4.023880   5.539423   5.396740   7.790747   6.985052
    24  H    2.701372   4.208006   4.539816   6.990047   6.575744
    25  H    3.170079   4.531583   5.260240   7.489293   6.886971
    26  H    4.763574   6.041988   5.236036   7.206763   5.944550
    27  H    4.321862   5.265345   4.269101   5.830353   4.471942
    28  H    4.151288   5.220164   5.167359   6.938917   5.851979
    29  H    1.098014   2.154007   2.474024   4.761250   4.841725
    30  H    1.094581   2.160005   3.881494   5.920068   5.953398
    31  H    2.199053   1.095373   3.619541   4.784558   5.548077
    32  H    2.172656   1.101349   3.744366   4.724309   5.135878
                   16         17         18         19         20
    16  H    0.000000
    17  H    2.597329   0.000000
    18  H    3.018458   1.742544   0.000000
    19  H    4.734146   2.257428   2.776828   0.000000
    20  H    5.585288   4.510791   3.471612   3.857384   0.000000
    21  H    6.406932   5.090133   3.728942   4.299335   1.764622
    22  H    4.719224   3.812166   2.276806   3.802006   1.772914
    23  H    7.551291   5.498327   4.779316   3.719160   3.176871
    24  H    6.957607   5.059824   4.654887   3.264476   2.571492
    25  H    7.027314   4.688616   4.553301   2.527303   3.786918
    26  H    6.636483   4.689874   3.621462   3.648657   3.754967
    27  H    5.040527   3.232096   2.105637   3.000483   3.816840
    28  H    6.057417   3.698592   3.295115   2.410551   4.351853
    29  H    5.035485   3.820754   3.709840   3.039753   2.230858
    30  H    5.767723   3.926285   4.316784   2.360930   3.500659
    31  H    4.944168   4.120591   4.938596   3.850207   4.715250
    32  H    4.240300   2.848012   4.111532   2.716270   4.981297
                   21         22         23         24         25
    21  H    0.000000
    22  H    1.764907   0.000000
    23  H    2.538443   3.771201   0.000000
    24  H    3.028462   3.781747   1.765546   0.000000
    25  H    3.754497   4.353548   1.769960   1.773071   0.000000
    26  H    2.516459   3.094465   2.442322   3.711742   3.132429
    27  H    3.129414   2.610737   3.703546   4.357552   3.796137
    28  H    3.748446   3.798935   3.000888   3.776452   2.572010
    29  H    3.776953   3.346425   4.003365   2.562222   3.596722
    30  H    4.596433   4.449439   3.798030   2.333197   2.679607
    31  H    6.231325   5.492778   6.134035   4.606453   5.128931
    32  H    6.156690   5.294927   5.884549   4.702632   4.620858
                   26         27         28         29         30
    26  H    0.000000
    27  H    1.765082   0.000000
    28  H    1.770909   1.770501   0.000000
    29  H    4.924421   4.631420   4.697803   0.000000
    30  H    4.973624   4.833210   4.265112   1.751357   0.000000
    31  H    6.935181   6.288897   6.166863   2.528641   2.496592
    32  H    6.229309   5.363312   5.119085   3.069882   2.521418
                   31         32
    31  H    0.000000
    32  H    1.756242   0.000000
 Stoichiometry    C11H20O
 Framework group  C1[X(C11H20O)]
 Deg. of freedom    90
 Full point group                 C1      NOp   1
 Largest Abelian subgroup         C1      NOp   1
 Largest concise Abelian subgroup C1      NOp   1
                         Standard orientation:                         
 ---------------------------------------------------------------------
 Center     Atomic      Atomic             Coordinates (Angstroms)
 Number     Number       Type             X           Y           Z
 ---------------------------------------------------------------------
      1          8           0        3.486967   -0.654509    0.155142
      2          6           0        2.278220   -0.558111    0.055291
      3          6           0        1.529830    0.762969    0.237905
      4          6           0        2.461210    1.970500    0.115420
      5          6           0        0.331073    0.821364   -0.734924
      6          6           0       -0.706255   -0.335973   -0.573849
      7          6           0       -2.073325    0.112897    0.050841
      8          6           0       -1.893371    0.800640    1.419658
      9          6           0       -2.996777   -1.111520    0.228515
     10          6           0       -2.779529    1.090780   -0.913135
     11          6           0       -0.063699   -1.547647    0.147360
     12          6           0        1.396615   -1.758416   -0.273066
     13          1           0        1.131410    0.733338    1.265890
     14          1           0        3.326045    1.861414    0.774577
     15          1           0        1.934098    2.895862    0.372983
     16          1           0        2.839375    2.068081   -0.909006
     17          1           0        0.730881    0.811132   -1.757798
     18          1           0       -0.153417    1.796695   -0.625037
     19          1           0       -0.954034   -0.681616   -1.588240
     20          1           0       -1.415721    0.139832    2.152278
     21          1           0       -2.868842    1.087831    1.830363
     22          1           0       -1.291487    1.713479    1.345170
     23          1           0       -3.995478   -0.791950    0.549421
     24          1           0       -2.619117   -1.809036    0.983379
     25          1           0       -3.112513   -1.662857   -0.713374
     26          1           0       -3.750773    1.396848   -0.506146
     27          1           0       -2.197610    2.002472   -1.086161
     28          1           0       -2.960504    0.620367   -1.887692
     29          1           0       -0.100522   -1.411951    1.236335
     30          1           0       -0.636867   -2.456016   -0.063477
     31          1           0        1.839676   -2.648293    0.186996
     32          1           0        1.455713   -1.914468   -1.361700
 ---------------------------------------------------------------------
 Rotational constants (GHZ):           1.6272262           0.5848758           0.4952305
 Standard basis: 6-31G(d) (6D, 7F)
 There are   220 symmetry adapted cartesian basis functions of A   symmetry.
 There are   220 symmetry adapted basis functions of A   symmetry.
   220 basis functions,   416 primitive gaussians,   220 cartesian basis functions
    47 alpha electrons       47 beta electrons
       nuclear repulsion energy       769.2062612189 Hartrees.
 NAtoms=   32 NActive=   32 NUniq=   32 SFac= 1.00D+00 NAtFMM=   60 NAOKFM=F Big=F
 Integral buffers will be    131072 words long.
 Raffenetti 2 integral format.
 Two-electron integral symmetry is turned on.
 One-electron integrals computed using PRISM.
 NBasis=   220 RedAO= T EigKep=  2.12D-03  NBF=   220
 NBsUse=   220 1.00D-06 EigRej= -1.00D+00 NBFU=   220
 ExpMin= 1.61D-01 ExpMax= 5.48D+03 ExpMxC= 8.25D+02 IAcc=3 IRadAn=         5 AccDes= 0.00D+00
 Harris functional with IExCor=  402 and IRadAn=       5 diagonalized for initial guess.
 HarFok:  IExCor=  402 AccDes= 0.00D+00 IRadAn=         5 IDoV= 1 UseB2=F ITyADJ=14
 ICtDFT=  3500011 ScaDFX=  1.000000  1.000000  1.000000  1.000000
 FoFCou: FMM=F IPFlag=           0 FMFlag=      100000 FMFlg1=           0
         NFxFlg=           0 DoJE=T BraDBF=F KetDBF=T FulRan=T
         wScrn=  0.000000 ICntrl=       500 IOpCl=  0 I1Cent=   200000004 NGrid=           0
         NMat0=    1 NMatS0=      1 NMatT0=    0 NMatD0=    1 NMtDS0=    0 NMtDT0=    0
 Petite list used in FoFCou.
 Requested convergence on RMS density matrix=1.00D-08 within 128 cycles.
 Requested convergence on MAX density matrix=1.00D-06.
 Requested convergence on             energy=1.00D-06.
 No special actions if energy rises.
 Integral accuracy reduced to 1.0D-05 until final iterations.
 Initial convergence to 1.0D-05 achieved.  Increase integral accuracy.
 SCF Done:  E(RB3LYP) =  -506.450150110     A.U. after   13 cycles
            NFock= 13  Conv=0.91D-08     -V/T= 2.0099
 DoSCS=F DFT=T ScalE2(SS,OS)=  1.000000  1.000000
 Range of M.O.s used for correlation:     1   220
 NBasis=   220 NAE=    47 NBE=    47 NFC=     0 NFV=     0
 NROrb=    220 NOA=    47 NOB=    47 NVA=   173 NVB=   173
 Symmetrizing basis deriv contribution to polar:
 IMax=3 JMax=2 DiffMx= 0.00D+00
 G2DrvN: will do    33 centers at a time, making    1 passes.
 Calling FoFCou, ICntrl=  3107 FMM=F I1Cent=   0 AccDes= 0.00D+00.
 End of G2Drv F.D. properties file   721 does not exist.
 End of G2Drv F.D. properties file   722 does not exist.
 End of G2Drv F.D. properties file   788 does not exist.
          IDoAtm=11111111111111111111111111111111
          Differentiating once with respect to electric field.
                with respect to dipole field.
          Differentiating once with respect to nuclear coordinates.
 Keep R1 ints in memory in canonical form, NReq=306010880.
          There are    99 degrees of freedom in the 1st order CPHF.  IDoFFX=6 NUNeed=     3.
     96 vectors produced by pass  0 Test12= 8.21D-15 1.01D-09 XBig12= 8.30D+01 2.23D+00.
 AX will form    96 AO Fock derivatives at one time.
     96 vectors produced by pass  1 Test12= 8.21D-15 1.01D-09 XBig12= 1.49D+01 1.03D+00.
     96 vectors produced by pass  2 Test12= 8.21D-15 1.01D-09 XBig12= 1.16D-01 4.43D-02.
     96 vectors produced by pass  3 Test12= 8.21D-15 1.01D-09 XBig12= 3.11D-04 2.32D-03.
     96 vectors produced by pass  4 Test12= 8.21D-15 1.01D-09 XBig12= 2.65D-07 4.90D-05.
     43 vectors produced by pass  5 Test12= 8.21D-15 1.01D-09 XBig12= 1.90D-10 1.30D-06.
      4 vectors produced by pass  6 Test12= 8.21D-15 1.01D-09 XBig12= 1.41D-13 4.03D-08.
 InvSVY:  IOpt=1 It=  1 EMax= 1.78D-14
 Solved reduced A of dimension   527 with    99 vectors.
 Isotropic polarizability for W=    0.000000      113.31 Bohr**3.
 End of Minotr F.D. properties file   721 does not exist.
 End of Minotr F.D. properties file   722 does not exist.
 End of Minotr F.D. properties file   788 does not exist.

 **********************************************************************

            Population analysis using the SCF density.

 **********************************************************************

 Orbital symmetries:
       Occupied  (A) (A) (A) (A) (A) (A) (A) (A) (A) (A) (A) (A)
                 (A) (A) (A) (A) (A) (A) (A) (A) (A) (A) (A) (A)
                 (A) (A) (A) (A) (A) (A) (A) (A) (A) (A) (A) (A)
                 (A) (A) (A) (A) (A) (A) (A) (A) (A) (A) (A)
       Virtual   (A) (A) (A) (A) (A) (A) (A) (A) (A) (A) (A) (A)
                 (A) (A) (A) (A) (A) (A) (A) (A) (A) (A) (A) (A)
                 (A) (A) (A) (A) (A) (A) (A) (A) (A) (A) (A) (A)
                 (A) (A) (A) (A) (A) (A) (A) (A) (A) (A) (A) (A)
                 (A) (A) (A) (A) (A) (A) (A) (A) (A) (A) (A) (A)
                 (A) (A) (A) (A) (A) (A) (A) (A) (A) (A) (A) (A)
                 (A) (A) (A) (A) (A) (A) (A) (A) (A) (A) (A) (A)
                 (A) (A) (A) (A) (A) (A) (A) (A) (A) (A) (A) (A)
                 (A) (A) (A) (A) (A) (A) (A) (A) (A) (A) (A) (A)
                 (A) (A) (A) (A) (A) (A) (A) (A) (A) (A) (A) (A)
                 (A) (A) (A) (A) (A) (A) (A) (A) (A) (A) (A) (A)
                 (A) (A) (A) (A) (A) (A) (A) (A) (A) (A) (A) (A)
                 (A) (A) (A) (A) (A) (A) (A) (A) (A) (A) (A) (A)
                 (A) (A) (A) (A) (A) (A) (A) (A) (A) (A) (A) (A)
                 (A) (A) (A) (A) (A)
 The electronic state is 1-A.
 Alpha  occ. eigenvalues --  -19.12989 -10.26493 -10.20154 -10.19436 -10.19350
 Alpha  occ. eigenvalues --  -10.18929 -10.18857 -10.18733 -10.17665 -10.17519
 Alpha  occ. eigenvalues --  -10.17494 -10.17250  -1.02956  -0.84497  -0.80367
 Alpha  occ. eigenvalues --   -0.76879  -0.71699  -0.68870  -0.68708  -0.66811
 Alpha  occ. eigenvalues --   -0.61541  -0.59684  -0.53351  -0.50497  -0.49066
 Alpha  occ. eigenvalues --   -0.47049  -0.45395  -0.44672  -0.43738  -0.43311
 Alpha  occ. eigenvalues --   -0.41193  -0.40815  -0.39227  -0.38453  -0.38165
 Alpha  occ. eigenvalues --   -0.37634  -0.37466  -0.36597  -0.36104  -0.35354
 Alpha  occ. eigenvalues --   -0.35078  -0.33891  -0.32759  -0.30755  -0.30337
 Alpha  occ. eigenvalues --   -0.30103  -0.23262
 Alpha virt. eigenvalues --   -0.00843   0.06420   0.09294   0.09812   0.10912
 Alpha virt. eigenvalues --    0.12138   0.12778   0.13967   0.14479   0.14968
 Alpha virt. eigenvalues --    0.15649   0.16677   0.17042   0.17812   0.18420
 Alpha virt. eigenvalues --    0.18690   0.19388   0.19774   0.20601   0.21384
 Alpha virt. eigenvalues --    0.21849   0.22167   0.23166   0.23479   0.24208
 Alpha virt. eigenvalues --    0.24881   0.25603   0.27163   0.29837   0.30790
 Alpha virt. eigenvalues --    0.32200   0.33920   0.37161   0.48607   0.49652
 Alpha virt. eigenvalues --    0.50344   0.51134   0.52669   0.53416   0.55320
 Alpha virt. eigenvalues --    0.56296   0.60086   0.60737   0.61417   0.61993
 Alpha virt. eigenvalues --    0.63272   0.64697   0.66132   0.68065   0.68655
 Alpha virt. eigenvalues --    0.69789   0.70949   0.71489   0.72135   0.73868
 Alpha virt. eigenvalues --    0.76109   0.77624   0.79749   0.81777   0.82186
 Alpha virt. eigenvalues --    0.83815   0.84862   0.86887   0.87396   0.87689
 Alpha virt. eigenvalues --    0.89025   0.89845   0.89986   0.90667   0.90778
 Alpha virt. eigenvalues --    0.91776   0.92098   0.92191   0.93603   0.94281
 Alpha virt. eigenvalues --    0.94713   0.95308   0.96226   0.97433   0.97948
 Alpha virt. eigenvalues --    0.99242   1.00043   1.01453   1.03334   1.03582
 Alpha virt. eigenvalues --    1.06484   1.07920   1.11921   1.14106   1.18919
 Alpha virt. eigenvalues --    1.25033   1.26345   1.36088   1.39977   1.41241
 Alpha virt. eigenvalues --    1.43623   1.48286   1.49322   1.50438   1.55374
 Alpha virt. eigenvalues --    1.56461   1.59028   1.62716   1.67484   1.69044
 Alpha virt. eigenvalues --    1.72008   1.73810   1.76863   1.77498   1.77893
 Alpha virt. eigenvalues --    1.78347   1.81832   1.84511   1.84807   1.86974
 Alpha virt. eigenvalues --    1.88586   1.90223   1.90501   1.92182   1.94368
 Alpha virt. eigenvalues --    1.96221   2.00036   2.01185   2.03539   2.05499
 Alpha virt. eigenvalues --    2.05575   2.07015   2.08872   2.11393   2.13478
 Alpha virt. eigenvalues --    2.16098   2.17895   2.20518   2.22577   2.25387
 Alpha virt. eigenvalues --    2.25555   2.26604   2.26792   2.28666   2.29268
 Alpha virt. eigenvalues --    2.32847   2.35372   2.37521   2.41214   2.44402
 Alpha virt. eigenvalues --    2.45796   2.50707   2.53560   2.54338   2.56368
 Alpha virt. eigenvalues --    2.62523   2.63882   2.66830   2.68204   2.74075
 Alpha virt. eigenvalues --    2.75509   2.80271   2.84522   2.85881   3.00114
 Alpha virt. eigenvalues --    3.06346   4.00823   4.11026   4.19702   4.26515
 Alpha virt. eigenvalues --    4.30514   4.31228   4.33598   4.39236   4.49453
 Alpha virt. eigenvalues --    4.62306   4.71576   4.74785
          Condensed to atoms (all electrons):
               1          2          3          4          5          6
     1  O    8.030812   0.569685  -0.084506   0.001943   0.001387   0.000200
     2  C    0.569685   4.500479   0.318357  -0.031603  -0.027845  -0.012942
     3  C   -0.084506   0.318357   5.217667   0.351608   0.344883  -0.028610
     4  C    0.001943  -0.031603   0.351608   5.082805  -0.047072   0.003706
     5  C    0.001387  -0.027845   0.344883  -0.047072   5.130541   0.348991
     6  C    0.000200  -0.012942  -0.028610   0.003706   0.348991   4.965235
     7  C    0.000000   0.000115  -0.001984   0.000003  -0.026696   0.396600
     8  C    0.000000   0.000080  -0.000404  -0.000103  -0.007344  -0.055290
     9  C   -0.000000  -0.000012  -0.000014   0.000001   0.004588  -0.053165
    10  C    0.000000  -0.000022   0.000176   0.000001  -0.008412  -0.050329
    11  C    0.002496  -0.030225   0.009983  -0.000014  -0.064297   0.377655
    12  C   -0.074468   0.342392  -0.149687   0.007103   0.003600  -0.033334
    13  H   -0.000064  -0.033891   0.360036  -0.035071  -0.045529  -0.002398
    14  H    0.008952  -0.004492  -0.028806   0.370839   0.004441  -0.000134
    15  H    0.000416   0.004733  -0.029935   0.364138  -0.003393  -0.000022
    16  H    0.001522  -0.004959  -0.036726   0.380161  -0.004762   0.000037
    17  H    0.000270  -0.006520  -0.043794  -0.003270   0.366084  -0.027184
    18  H   -0.000069   0.003543  -0.032009  -0.001671   0.369305  -0.040213
    19  H    0.000003   0.000396   0.003354  -0.000148  -0.042716   0.360138
    20  H   -0.000000  -0.000036  -0.000229   0.000010  -0.000222  -0.004443
    21  H    0.000000  -0.000001   0.000049  -0.000000   0.000013   0.005273
    22  H    0.000000   0.000059  -0.000835   0.000052   0.002815  -0.006534
    23  H   -0.000000   0.000000   0.000000  -0.000000  -0.000110   0.005231
    24  H   -0.000000  -0.000006  -0.000001   0.000000  -0.000029  -0.007053
    25  H    0.000000   0.000000  -0.000001  -0.000000   0.000041  -0.004505
    26  H   -0.000000   0.000000  -0.000005  -0.000000   0.000094   0.004959
    27  H   -0.000000  -0.000004   0.000076  -0.000001   0.001320  -0.005806
    28  H   -0.000000   0.000001   0.000003  -0.000000   0.000018  -0.006008
    29  H    0.000126  -0.004681   0.001880  -0.000094  -0.003514  -0.041486
    30  H   -0.000066   0.003226  -0.000206  -0.000001   0.005487  -0.026894
    31  H    0.002331  -0.023230   0.005925  -0.000093   0.000154   0.003535
    32  H   -0.000599  -0.025022   0.002862  -0.000284  -0.000808  -0.004757
               7          8          9         10         11         12
     1  O    0.000000   0.000000  -0.000000   0.000000   0.002496  -0.074468
     2  C    0.000115   0.000080  -0.000012  -0.000022  -0.030225   0.342392
     3  C   -0.001984  -0.000404  -0.000014   0.000176   0.009983  -0.149687
     4  C    0.000003  -0.000103   0.000001   0.000001  -0.000014   0.007103
     5  C   -0.026696  -0.007344   0.004588  -0.008412  -0.064297   0.003600
     6  C    0.396600  -0.055290  -0.053165  -0.050329   0.377655  -0.033334
     7  C    4.740295   0.381738   0.379397   0.381482  -0.033993   0.003347
     8  C    0.381738   5.166950  -0.063022  -0.062341  -0.008056   0.000090
     9  C    0.379397  -0.063022   5.168739  -0.062773  -0.006213   0.000339
    10  C    0.381482  -0.062341  -0.062773   5.171060   0.004399  -0.000104
    11  C   -0.033993  -0.008056  -0.006213   0.004399   5.095121   0.308889
    12  C    0.003347   0.000090   0.000339  -0.000104   0.308889   5.316683
    13  H    0.000136   0.002249  -0.000052   0.000045   0.000797   0.001175
    14  H    0.000000   0.000001  -0.000000   0.000000  -0.000022   0.000387
    15  H   -0.000007  -0.000004   0.000000  -0.000003   0.000003  -0.000118
    16  H   -0.000002   0.000001  -0.000000   0.000000   0.000011  -0.000001
    17  H    0.003140   0.000198  -0.000155   0.000396   0.001182   0.001258
    18  H   -0.006880  -0.000869   0.000302  -0.000170   0.004509  -0.000507
    19  H   -0.040448   0.006596  -0.005728  -0.008343  -0.045389  -0.003181
    20  H   -0.029406   0.365591  -0.004591   0.005709   0.000929  -0.000136
    21  H   -0.028621   0.367455  -0.005516  -0.005637   0.000076   0.000001
    22  H   -0.027954   0.365750   0.005725  -0.004843   0.000173  -0.000004
    23  H   -0.027747  -0.004762   0.365388  -0.006348   0.000192  -0.000003
    24  H   -0.027042  -0.004909   0.366709   0.005689   0.003379   0.000036
    25  H   -0.030524   0.005861   0.365794  -0.004383  -0.001502  -0.000047
    26  H   -0.028270  -0.004991  -0.005858   0.365255  -0.000128   0.000001
    27  H   -0.028500  -0.004502   0.005786   0.364843  -0.000015  -0.000001
    28  H   -0.029361   0.005866  -0.005159   0.365460   0.000029  -0.000003
    29  H   -0.005524   0.002621  -0.002060   0.000117   0.372778  -0.042709
    30  H   -0.004888   0.000097   0.002972  -0.000045   0.365633  -0.026543
    31  H   -0.000090  -0.000002   0.000003   0.000002  -0.026880   0.350337
    32  H    0.000048   0.000001  -0.000023  -0.000002  -0.035922   0.353460
              13         14         15         16         17         18
     1  O   -0.000064   0.008952   0.000416   0.001522   0.000270  -0.000069
     2  C   -0.033891  -0.004492   0.004733  -0.004959  -0.006520   0.003543
     3  C    0.360036  -0.028806  -0.029935  -0.036726  -0.043794  -0.032009
     4  C   -0.035071   0.370839   0.364138   0.380161  -0.003270  -0.001671
     5  C   -0.045529   0.004441  -0.003393  -0.004762   0.366084   0.369305
     6  C   -0.002398  -0.000134  -0.000022   0.000037  -0.027184  -0.040213
     7  C    0.000136   0.000000  -0.000007  -0.000002   0.003140  -0.006880
     8  C    0.002249   0.000001  -0.000004   0.000001   0.000198  -0.000869
     9  C   -0.000052  -0.000000   0.000000  -0.000000  -0.000155   0.000302
    10  C    0.000045   0.000000  -0.000003   0.000000   0.000396  -0.000170
    11  C    0.000797  -0.000022   0.000003   0.000011   0.001182   0.004509
    12  C    0.001175   0.000387  -0.000118  -0.000001   0.001258  -0.000507
    13  H    0.594062  -0.001839  -0.004127   0.005182   0.006264  -0.005633
    14  H   -0.001839   0.538868  -0.029159  -0.027392  -0.000059  -0.000063
    15  H   -0.004127  -0.029159   0.589748  -0.032055  -0.000249   0.003871
    16  H    0.005182  -0.027392  -0.032055   0.566555   0.005391  -0.000605
    17  H    0.006264  -0.000059  -0.000249   0.005391   0.607563  -0.037843
    18  H   -0.005633  -0.000063   0.003871  -0.000605  -0.037843   0.586232
    19  H   -0.000068   0.000003   0.000000  -0.000009  -0.010625   0.003258
    20  H    0.000857  -0.000000   0.000000  -0.000000  -0.000017   0.000172
    21  H   -0.000003   0.000000  -0.000001   0.000000   0.000001  -0.000224
    22  H    0.000866  -0.000005   0.000200  -0.000005  -0.000038   0.003602
    23  H    0.000002   0.000000  -0.000000   0.000000   0.000003  -0.000011
    24  H   -0.000007  -0.000000  -0.000000  -0.000000  -0.000002   0.000001
    25  H   -0.000001   0.000000  -0.000000  -0.000000  -0.000008   0.000006
    26  H    0.000000   0.000000   0.000000   0.000000   0.000007  -0.000247
    27  H   -0.000006  -0.000000  -0.000007   0.000000  -0.000275   0.006617
    28  H   -0.000002   0.000000   0.000000  -0.000000  -0.000053   0.000096
    29  H    0.000437   0.000001  -0.000000  -0.000002  -0.000123   0.000133
    30  H    0.000061   0.000000   0.000000   0.000001  -0.000130  -0.000128
    31  H   -0.000419  -0.000008   0.000002  -0.000006  -0.000049   0.000006
    32  H    0.000143  -0.000004   0.000001   0.000009   0.000582   0.000054
              19         20         21         22         23         24
     1  O    0.000003  -0.000000   0.000000   0.000000  -0.000000  -0.000000
     2  C    0.000396  -0.000036  -0.000001   0.000059   0.000000  -0.000006
     3  C    0.003354  -0.000229   0.000049  -0.000835   0.000000  -0.000001
     4  C   -0.000148   0.000010  -0.000000   0.000052  -0.000000   0.000000
     5  C   -0.042716  -0.000222   0.000013   0.002815  -0.000110  -0.000029
     6  C    0.360138  -0.004443   0.005273  -0.006534   0.005231  -0.007053
     7  C   -0.040448  -0.029406  -0.028621  -0.027954  -0.027747  -0.027042
     8  C    0.006596   0.365591   0.367455   0.365750  -0.004762  -0.004909
     9  C   -0.005728  -0.004591  -0.005516   0.005725   0.365388   0.366709
    10  C   -0.008343   0.005709  -0.005637  -0.004843  -0.006348   0.005689
    11  C   -0.045389   0.000929   0.000076   0.000173   0.000192   0.003379
    12  C   -0.003181  -0.000136   0.000001  -0.000004  -0.000003   0.000036
    13  H   -0.000068   0.000857  -0.000003   0.000866   0.000002  -0.000007
    14  H    0.000003  -0.000000   0.000000  -0.000005   0.000000  -0.000000
    15  H    0.000000   0.000000  -0.000001   0.000200  -0.000000  -0.000000
    16  H   -0.000009  -0.000000   0.000000  -0.000005   0.000000  -0.000000
    17  H   -0.010625  -0.000017   0.000001  -0.000038   0.000003  -0.000002
    18  H    0.003258   0.000172  -0.000224   0.003602  -0.000011   0.000001
    19  H    0.651873  -0.000055  -0.000171  -0.000001  -0.000133  -0.000080
    20  H   -0.000055   0.578436  -0.030438  -0.031523  -0.000180   0.003710
    21  H   -0.000171  -0.030438   0.577805  -0.030539   0.004227  -0.000151
    22  H   -0.000001  -0.031523  -0.030539   0.577146  -0.000087  -0.000001
    23  H   -0.000133  -0.000180   0.004227  -0.000087   0.581306  -0.030885
    24  H   -0.000080   0.003710  -0.000151  -0.000001  -0.030885   0.575324
    25  H    0.005171  -0.000046  -0.000035  -0.000192  -0.030471  -0.031059
    26  H    0.000015  -0.000052   0.004493  -0.000095   0.004876  -0.000028
    27  H   -0.000107  -0.000036  -0.000109   0.002960   0.000003  -0.000194
    28  H    0.006492  -0.000191  -0.000037  -0.000024  -0.000157  -0.000034
    29  H    0.006446   0.005229  -0.000200  -0.000072  -0.000076   0.001361
    30  H   -0.007881  -0.000042  -0.000006  -0.000005   0.000016   0.000283
    31  H   -0.000105   0.000007  -0.000000   0.000000  -0.000000   0.000005
    32  H    0.004038   0.000001   0.000000   0.000000   0.000000   0.000004
              25         26         27         28         29         30
     1  O    0.000000  -0.000000  -0.000000  -0.000000   0.000126  -0.000066
     2  C    0.000000   0.000000  -0.000004   0.000001  -0.004681   0.003226
     3  C   -0.000001  -0.000005   0.000076   0.000003   0.001880  -0.000206
     4  C   -0.000000  -0.000000  -0.000001  -0.000000  -0.000094  -0.000001
     5  C    0.000041   0.000094   0.001320   0.000018  -0.003514   0.005487
     6  C   -0.004505   0.004959  -0.005806  -0.006008  -0.041486  -0.026894
     7  C   -0.030524  -0.028270  -0.028500  -0.029361  -0.005524  -0.004888
     8  C    0.005861  -0.004991  -0.004502   0.005866   0.002621   0.000097
     9  C    0.365794  -0.005858   0.005786  -0.005159  -0.002060   0.002972
    10  C   -0.004383   0.365255   0.364843   0.365460   0.000117  -0.000045
    11  C   -0.001502  -0.000128  -0.000015   0.000029   0.372778   0.365633
    12  C   -0.000047   0.000001  -0.000001  -0.000003  -0.042709  -0.026543
    13  H   -0.000001   0.000000  -0.000006  -0.000002   0.000437   0.000061
    14  H    0.000000   0.000000  -0.000000   0.000000   0.000001   0.000000
    15  H   -0.000000   0.000000  -0.000007   0.000000  -0.000000   0.000000
    16  H   -0.000000   0.000000   0.000000  -0.000000  -0.000002   0.000001
    17  H   -0.000008   0.000007  -0.000275  -0.000053  -0.000123  -0.000130
    18  H    0.000006  -0.000247   0.006617   0.000096   0.000133  -0.000128
    19  H    0.005171   0.000015  -0.000107   0.006492   0.006446  -0.007881
    20  H   -0.000046  -0.000052  -0.000036  -0.000191   0.005229  -0.000042
    21  H   -0.000035   0.004493  -0.000109  -0.000037  -0.000200  -0.000006
    22  H   -0.000192  -0.000095   0.002960  -0.000024  -0.000072  -0.000005
    23  H   -0.030471   0.004876   0.000003  -0.000157  -0.000076   0.000016
    24  H   -0.031059  -0.000028  -0.000194  -0.000034   0.001361   0.000283
    25  H    0.582891  -0.000126  -0.000065   0.003925   0.000255   0.001068
    26  H   -0.000126   0.579757  -0.030001  -0.030004   0.000001   0.000001
    27  H   -0.000065  -0.030001   0.574831  -0.030588  -0.000000  -0.000004
    28  H    0.003925  -0.030004  -0.030588   0.581009   0.000006  -0.000021
    29  H    0.000255   0.000001  -0.000000   0.000006   0.603889  -0.038031
    30  H    0.001068   0.000001  -0.000004  -0.000021  -0.038031   0.587120
    31  H   -0.000000  -0.000000   0.000000   0.000000  -0.002216  -0.002106
    32  H    0.000006   0.000000   0.000000   0.000001   0.005447  -0.004624
              31         32
     1  O    0.002331  -0.000599
     2  C   -0.023230  -0.025022
     3  C    0.005925   0.002862
     4  C   -0.000093  -0.000284
     5  C    0.000154  -0.000808
     6  C    0.003535  -0.004757
     7  C   -0.000090   0.000048
     8  C   -0.000002   0.000001
     9  C    0.000003  -0.000023
    10  C    0.000002  -0.000002
    11  C   -0.026880  -0.035922
    12  C    0.350337   0.353460
    13  H   -0.000419   0.000143
    14  H   -0.000008  -0.000004
    15  H    0.000002   0.000001
    16  H   -0.000006   0.000009
    17  H   -0.000049   0.000582
    18  H    0.000006   0.000054
    19  H   -0.000105   0.004038
    20  H    0.000007   0.000001
    21  H   -0.000000   0.000000
    22  H    0.000000   0.000000
    23  H   -0.000000   0.000000
    24  H    0.000005   0.000004
    25  H   -0.000000   0.000006
    26  H   -0.000000   0.000000
    27  H    0.000000   0.000000
    28  H    0.000000   0.000001
    29  H   -0.002216   0.005447
    30  H   -0.002106  -0.004624
    31  H    0.550324  -0.024566
    32  H   -0.024566   0.564352
 Mulliken charges:
               1
     1  O   -0.460370
     2  C    0.462424
     3  C   -0.179106
     4  C   -0.442945
     5  C   -0.301012
     6  C   -0.060452
     7  C    0.091636
     8  C   -0.454548
     9  C   -0.451403
    10  C   -0.450879
    11  C   -0.295581
    12  C   -0.358250
    13  H    0.156799
    14  H    0.168491
    15  H    0.135966
    16  H    0.147652
    17  H    0.138057
    18  H    0.145433
    19  H    0.117406
    20  H    0.140993
    21  H    0.142296
    22  H    0.143409
    23  H    0.139727
    24  H    0.144982
    25  H    0.137946
    26  H    0.140347
    27  H    0.143785
    28  H    0.138736
    29  H    0.140062
    30  H    0.145656
    31  H    0.167141
    32  H    0.165603
 Sum of Mulliken charges =  -0.00000
 Mulliken charges with hydrogens summed into heavy atoms:
               1
     1  O   -0.460370
     2  C    0.462424
     3  C   -0.022307
     4  C    0.009164
     5  C   -0.017522
     6  C    0.056953
     7  C    0.091636
     8  C   -0.027850
     9  C   -0.028749
    10  C   -0.028011
    11  C   -0.009863
    12  C   -0.025506
 APT charges:
               1
     1  O   -0.673214
     2  C    0.721989
     3  C   -0.033400
     4  C    0.073542
     5  C    0.071761
     6  C    0.099125
     7  C    0.128144
     8  C    0.026497
     9  C    0.044772
    10  C    0.041220
    11  C    0.076077
    12  C   -0.029018
    13  H   -0.024815
    14  H    0.000684
    15  H   -0.026426
    16  H   -0.017926
    17  H   -0.047816
    18  H   -0.022883
    19  H   -0.079590
    20  H   -0.018848
    21  H   -0.026914
    22  H   -0.021583
    23  H   -0.032784
    24  H   -0.019364
    25  H   -0.025082
    26  H   -0.034296
    27  H   -0.018373
    28  H   -0.025440
    29  H   -0.030512
    30  H   -0.036826
    31  H   -0.027704
    32  H   -0.010996
 Sum of APT charges =   0.00000
 APT charges with hydrogens summed into heavy atoms:
               1
     1  O   -0.673214
     2  C    0.721989
     3  C   -0.058215
     4  C    0.029874
     5  C    0.001062
     6  C    0.019535
     7  C    0.128144
     8  C   -0.040849
     9  C   -0.032459
    10  C   -0.036889
    11  C    0.008738
    12  C   -0.067718
 Electronic spatial extent (au):  <R**2>=           2476.5898
 Charge=             -0.0000 electrons
 Dipole moment (field-independent basis, Debye):
    X=             -3.0296    Y=              0.1941    Z=             -0.2495  Tot=              3.0460
 Quadrupole moment (field-independent basis, Debye-Ang):
   XX=            -90.8928   YY=            -74.8934   ZZ=            -74.8479
   XY=              2.2954   XZ=             -1.0280   YZ=              0.6157
 Traceless Quadrupole moment (field-independent basis, Debye-Ang):
   XX=            -10.6814   YY=              5.3180   ZZ=              5.3634
   XY=              2.2954   XZ=             -1.0280   YZ=              0.6157
 Octapole moment (field-independent basis, Debye-Ang**2):
  XXX=            -50.8698  YYY=             -6.0087  ZZZ=             -1.0985  XYY=              5.9032
  XXY=             12.0398  XXZ=             -1.4809  XZZ=              8.0068  YZZ=             -3.2756
  YYZ=              0.2700  XYZ=             -0.2707
 Hexadecapole moment (field-independent basis, Debye-Ang**3):
 XXXX=          -2426.7469 YYYY=           -774.3432 ZZZZ=           -330.6583 XXXY=             32.6532
 XXXZ=            -16.2497 YYYX=            -15.7768 YYYZ=              0.8867 ZZZX=              2.8423
 ZZZY=              0.4097 XXYY=           -506.3212 XXZZ=           -413.7721 YYZZ=           -186.0634
 XXYZ=              7.3575 YYXZ=              1.3230 ZZXY=             -0.3538
 N-N= 7.692062612189D+02 E-N=-2.711911730530D+03  KE= 5.015060509306D+02
  Exact polarizability: 131.979   0.268 111.478   0.670   0.977  96.463
 Approx polarizability: 172.388  -2.601 154.375   1.207   1.962 149.839
 Calling FoFJK, ICntrl=    100127 FMM=F ISym2X=0 I1Cent= 0 IOpClX= 0 NMat=1 NMatS=1 NMatT=0.
 Full mass-weighted force constant matrix:
 Low frequencies ---   -7.0502   -1.3462   -0.0005   -0.0004   -0.0003    4.9587
 Low frequencies ---   37.8232   70.7830  101.3071
 Diagonal vibrational polarizability:
        4.4038131       7.7723648      61.9947243
 Harmonic frequencies (cm**-1), IR intensities (KM/Mole), Raman scattering
 activities (A**4/AMU), depolarization ratios for plane and unpolarized
 incident light, reduced masses (AMU), force constants (mDyne/A),
 and normal coordinates:
                      1                      2                      3
                      A                      A                      A
 Frequencies --     37.7920                70.7548               101.3060
 Red. masses --      4.6965                 2.8979                 2.7280
 Frc consts  --      0.0040                 0.0085                 0.0165
 IR Inten    --      3.1192                 0.4009                 0.8597
  Atom  AN      X      Y      Z        X      Y      Z        X      Y      Z
     1   8    -0.06  -0.01   0.35    -0.00   0.02  -0.10     0.00   0.09  -0.08
     2   6    -0.03   0.01   0.07    -0.01  -0.01  -0.02    -0.01   0.02   0.02
     3   6    -0.06   0.02  -0.06    -0.05  -0.04   0.06    -0.07  -0.01  -0.02
     4   6    -0.05   0.01  -0.08    -0.08  -0.00   0.23    -0.13   0.04   0.04
     5   6    -0.00  -0.04  -0.13     0.02  -0.03  -0.03     0.01  -0.11  -0.12
     6   6    -0.02  -0.01  -0.10     0.00  -0.01  -0.04    -0.00  -0.07  -0.04
     7   6     0.04   0.01   0.03     0.03   0.02  -0.01     0.04   0.01  -0.00
     8   6     0.16   0.00   0.01     0.08   0.15  -0.09     0.11  -0.08   0.03
     9   6     0.04   0.01   0.10     0.05   0.03   0.16    -0.06   0.07  -0.07
    10   6    -0.04   0.02   0.10    -0.03  -0.08  -0.07     0.09   0.12   0.07
    11   6    -0.00  -0.05  -0.18    -0.01  -0.03  -0.06    -0.01  -0.05   0.02
    12   6     0.02   0.03  -0.15     0.00  -0.02  -0.03     0.02  -0.04   0.13
    13   1    -0.10   0.07  -0.08    -0.13  -0.14   0.02    -0.15  -0.02  -0.05
    14   1    -0.07   0.03  -0.04    -0.13  -0.03   0.29    -0.18   0.11   0.12
    15   1    -0.05   0.02  -0.13    -0.13  -0.04   0.27    -0.21   0.01  -0.04
    16   1    -0.01  -0.03  -0.07    -0.00   0.10   0.27    -0.03   0.03   0.07
    17   1     0.05  -0.13  -0.11     0.09  -0.07  -0.00     0.09  -0.24  -0.09
    18   1     0.00  -0.02  -0.24     0.03  -0.02  -0.09     0.02  -0.09  -0.27
    19   1    -0.11   0.04  -0.09    -0.02   0.01  -0.04    -0.05  -0.11  -0.01
    20   1     0.24   0.00  -0.04     0.17   0.24  -0.06     0.02  -0.17   0.01
    21   1     0.20  -0.01   0.11     0.10   0.13  -0.04     0.14   0.03   0.03
    22   1     0.15   0.01  -0.05     0.02   0.18  -0.21     0.22  -0.15   0.07
    23   1     0.08   0.02   0.21     0.06   0.05   0.17    -0.01   0.12   0.01
    24   1     0.11  -0.00   0.05     0.09   0.11   0.21    -0.07  -0.04  -0.15
    25   1    -0.06   0.03   0.11     0.01  -0.07   0.22    -0.15   0.17  -0.11
    26   1    -0.00   0.03   0.19     0.01  -0.00  -0.03     0.08   0.09   0.07
    27   1    -0.05   0.01   0.05    -0.02  -0.12  -0.24     0.10   0.13   0.19
    28   1    -0.14   0.03   0.11    -0.13  -0.20   0.00     0.12   0.23   0.01
    29   1    -0.04  -0.14  -0.17    -0.04  -0.06  -0.06    -0.08  -0.02   0.01
    30   1     0.03  -0.05  -0.27    -0.01  -0.03  -0.10     0.02  -0.06   0.01
    31   1     0.02  -0.02  -0.24    -0.00  -0.01  -0.01     0.02   0.03   0.27
    32   1     0.07   0.18  -0.17     0.03  -0.03  -0.03     0.11  -0.19   0.16
                      4                      5                      6
                      A                      A                      A
 Frequencies --    181.3537               201.0855               224.5899
 Red. masses --      1.8043                 1.1614                 1.4718
 Frc consts  --      0.0350                 0.0277                 0.0437
 IR Inten    --      0.5098                 0.0847                 0.1054
  Atom  AN      X      Y      Z        X      Y      Z        X      Y      Z
     1   8    -0.02   0.01  -0.04     0.00  -0.01  -0.00     0.01   0.04  -0.01
     2   6    -0.03   0.00   0.04    -0.00  -0.00   0.01     0.01   0.01   0.03
     3   6     0.01   0.02   0.01     0.01   0.01   0.00    -0.00  -0.00   0.06
     4   6     0.09  -0.04  -0.01    -0.01   0.02  -0.01    -0.03   0.01  -0.06
     5   6     0.02   0.05  -0.02     0.01   0.01   0.00    -0.02  -0.00   0.10
     6   6     0.00   0.06  -0.06     0.00   0.02  -0.03    -0.00  -0.03   0.02
     7   6     0.00   0.00  -0.02     0.00   0.00  -0.02    -0.00  -0.01  -0.00
     8   6     0.03  -0.03  -0.01     0.03  -0.01  -0.01     0.02  -0.02   0.00
     9   6     0.07  -0.05  -0.02     0.02  -0.01  -0.02    -0.07   0.05  -0.00
    10   6    -0.10  -0.00   0.05    -0.03   0.01   0.02     0.06   0.01  -0.04
    11   6    -0.06   0.02  -0.06    -0.03   0.00  -0.03     0.00  -0.06  -0.04
    12   6    -0.02  -0.02   0.12    -0.00  -0.02   0.08     0.02  -0.00  -0.01
    13   1    -0.02   0.08   0.00     0.02  -0.00   0.01     0.05   0.02   0.08
    14   1    -0.09   0.07   0.24     0.26  -0.22  -0.40    -0.03   0.12  -0.05
    15   1     0.06   0.04  -0.35     0.13  -0.04   0.48    -0.06   0.02  -0.18
    16   1     0.37  -0.29   0.07    -0.43   0.32  -0.14    -0.03  -0.11  -0.07
    17   1     0.05   0.05  -0.01     0.02   0.03   0.01    -0.04   0.08   0.09
    18   1     0.03   0.05  -0.02     0.01   0.02   0.01    -0.04  -0.02   0.17
    19   1     0.00   0.10  -0.08     0.01   0.04  -0.04     0.02   0.02  -0.01
    20   1     0.19   0.02  -0.07     0.13   0.01  -0.05     0.19   0.02  -0.06
    21   1     0.02  -0.19   0.09     0.04  -0.10   0.05     0.02  -0.17   0.10
    22   1    -0.12   0.06  -0.03    -0.04   0.04  -0.03    -0.11   0.07  -0.02
    23   1     0.04  -0.11  -0.06     0.01  -0.03  -0.04    -0.08   0.12  -0.10
    24   1     0.08  -0.02   0.01     0.02   0.00   0.00    -0.16   0.07   0.06
    25   1     0.14  -0.08  -0.01     0.05  -0.03  -0.01    -0.03   0.00   0.02
    26   1    -0.04   0.02   0.17     0.02   0.06   0.09     0.25   0.38   0.13
    27   1    -0.10  -0.02  -0.03    -0.01  -0.02  -0.06     0.29  -0.21  -0.38
    28   1    -0.22  -0.01   0.08    -0.14  -0.01   0.05    -0.31  -0.16   0.11
    29   1    -0.18  -0.02  -0.06    -0.09  -0.01  -0.03    -0.03  -0.13  -0.03
    30   1    -0.05   0.04  -0.15    -0.02   0.01  -0.07     0.02  -0.06  -0.11
    31   1    -0.08   0.04   0.29    -0.04   0.02   0.18     0.04  -0.01  -0.04
    32   1     0.11  -0.17   0.15     0.07  -0.12   0.09     0.05   0.04  -0.02
                      7                      8                      9
                      A                      A                      A
 Frequencies --    231.2097               257.5312               275.6142
 Red. masses --      1.5208                 1.3074                 1.8946
 Frc consts  --      0.0479                 0.0511                 0.0848
 IR Inten    --      0.4534                 0.0453                 0.1461
  Atom  AN      X      Y      Z        X      Y      Z        X      Y      Z
     1   8    -0.00  -0.04   0.03     0.01  -0.00   0.02    -0.09  -0.01  -0.02
     2   6     0.01  -0.01  -0.04     0.01   0.01  -0.02    -0.09   0.01   0.01
     3   6    -0.00  -0.01  -0.07     0.01   0.01  -0.04    -0.05   0.03   0.04
     4   6    -0.03   0.02   0.05     0.05  -0.01   0.04    -0.03   0.01  -0.03
     5   6     0.02  -0.03  -0.09    -0.00   0.03  -0.03    -0.03   0.04   0.04
     6   6     0.00   0.00   0.02    -0.00   0.00  -0.02     0.02   0.01   0.00
     7   6     0.01   0.01   0.01    -0.02  -0.02  -0.02     0.06  -0.01  -0.00
     8   6    -0.02  -0.01   0.02     0.04  -0.06  -0.01     0.11  -0.03   0.00
     9   6     0.03  -0.02  -0.05    -0.05   0.00   0.00     0.11  -0.04  -0.00
    10   6    -0.00   0.03   0.04    -0.06  -0.04  -0.00     0.09  -0.01  -0.03
    11   6     0.02   0.06   0.10     0.01   0.05   0.04    -0.04   0.01   0.02
    12   6    -0.02   0.01  -0.03    -0.00   0.02   0.01    -0.08   0.00  -0.01
    13   1    -0.05  -0.05  -0.09     0.00  -0.01  -0.04    -0.03   0.05   0.04
    14   1    -0.08   0.01   0.12     0.02  -0.08   0.07    -0.01   0.02  -0.05
    15   1    -0.08  -0.01   0.07     0.08   0.00   0.08    -0.01   0.02  -0.05
    16   1     0.05   0.09   0.09     0.10   0.03   0.06    -0.07  -0.04  -0.04
    17   1     0.01  -0.11  -0.09    -0.03   0.05  -0.04    -0.02   0.11   0.04
    18   1     0.04  -0.01  -0.15    -0.01   0.02   0.00    -0.06   0.02   0.08
    19   1    -0.02  -0.08   0.05     0.02  -0.03  -0.02     0.04   0.01  -0.00
    20   1     0.21   0.07  -0.05    -0.28  -0.22   0.05    -0.14  -0.16   0.05
    21   1    -0.05  -0.26   0.13     0.09   0.29  -0.14     0.15   0.24  -0.09
    22   1    -0.25   0.13  -0.00     0.37  -0.27   0.06     0.37  -0.20   0.06
    23   1    -0.06  -0.05  -0.33     0.00   0.04   0.13    -0.02  -0.07  -0.36
    24   1    -0.10   0.10   0.13    -0.01  -0.07  -0.09    -0.03   0.16   0.25
    25   1     0.30  -0.15  -0.01    -0.19   0.08  -0.03     0.43  -0.26   0.08
    26   1     0.11   0.22   0.17     0.09   0.19   0.17     0.07  -0.01  -0.09
    27   1     0.11  -0.08  -0.15     0.06  -0.16  -0.29     0.10  -0.02  -0.01
    28   1    -0.24  -0.03   0.11    -0.36  -0.16   0.11     0.15  -0.02  -0.04
    29   1     0.14   0.18   0.08     0.05   0.13   0.03    -0.02   0.03   0.02
    30   1    -0.02   0.05   0.25     0.00   0.04   0.12    -0.08   0.03   0.04
    31   1    -0.01  -0.02  -0.10    -0.01   0.02   0.02    -0.05  -0.00  -0.04
    32   1    -0.13   0.04  -0.04    -0.03  -0.01   0.01    -0.10   0.04  -0.02
                     10                     11                     12
                      A                      A                      A
 Frequencies --    281.5825               289.7897               313.8546
 Red. masses --      1.6616                 2.4518                 1.9105
 Frc consts  --      0.0776                 0.1213                 0.1109
 IR Inten    --      0.0091                 2.5471                 0.2716
  Atom  AN      X      Y      Z        X      Y      Z        X      Y      Z
     1   8    -0.04  -0.00   0.01    -0.06   0.17  -0.02    -0.02   0.00  -0.05
     2   6    -0.04   0.01  -0.01    -0.07   0.06   0.03    -0.03   0.00   0.08
     3   6    -0.02   0.02   0.00    -0.06   0.04   0.02    -0.02   0.00   0.13
     4   6     0.03  -0.01   0.02     0.18  -0.14   0.03    -0.02  -0.02  -0.05
     5   6    -0.04   0.04   0.04     0.01  -0.04  -0.08     0.06  -0.08   0.02
     6   6     0.01  -0.02  -0.00    -0.01  -0.03   0.02     0.01  -0.01   0.03
     7   6     0.01  -0.03  -0.04    -0.01  -0.01   0.02     0.01   0.01  -0.00
     8   6     0.15  -0.05  -0.05    -0.04  -0.02   0.03     0.01   0.07  -0.03
     9   6    -0.04   0.01  -0.02    -0.05   0.01   0.02     0.09  -0.05  -0.10
    10   6     0.01  -0.03  -0.03     0.05  -0.01  -0.01    -0.05   0.02   0.04
    11   6     0.01   0.04   0.09     0.01  -0.04  -0.00    -0.01  -0.00   0.05
    12   6    -0.04   0.02  -0.01     0.01   0.03  -0.04    -0.04   0.04  -0.05
    13   1     0.00   0.02   0.01    -0.12   0.12  -0.01    -0.03   0.08   0.12
    14   1     0.01  -0.06   0.03     0.23  -0.46  -0.09     0.05   0.04  -0.14
    15   1     0.06   0.01   0.02     0.46  -0.02   0.20     0.01   0.01  -0.08
    16   1     0.05  -0.02   0.02     0.09  -0.14   0.00    -0.14  -0.12  -0.10
    17   1    -0.08   0.14   0.02     0.08  -0.22  -0.05     0.19  -0.25   0.08
    18   1    -0.09   0.01   0.13     0.01  -0.02  -0.27     0.08  -0.04  -0.19
    19   1     0.08  -0.08   0.00    -0.05  -0.05   0.03     0.02  -0.03   0.04
    20   1     0.49   0.03  -0.20     0.01  -0.00   0.02    -0.02   0.11   0.03
    21   1     0.19  -0.30   0.21    -0.06  -0.09   0.04     0.02   0.15  -0.07
    22   1    -0.08   0.09  -0.16    -0.10   0.02   0.04     0.05   0.04  -0.10
    23   1     0.05   0.06   0.21    -0.07   0.06  -0.11     0.12  -0.17   0.14
    24   1     0.03  -0.12  -0.18    -0.14   0.07   0.13     0.24  -0.21  -0.33
    25   1    -0.27   0.15  -0.07     0.04  -0.07   0.06    -0.04   0.18  -0.21
    26   1    -0.06  -0.15  -0.11     0.04   0.02  -0.06     0.03   0.08   0.18
    27   1    -0.07   0.04   0.08     0.08  -0.03  -0.00    -0.02  -0.02  -0.06
    28   1     0.15   0.02  -0.08     0.08  -0.02  -0.01    -0.22  -0.00   0.08
    29   1     0.09   0.14   0.08     0.02  -0.06   0.00     0.04   0.02   0.05
    30   1    -0.02   0.03   0.21     0.02  -0.04  -0.01     0.00  -0.02   0.09
    31   1    -0.00   0.00  -0.07     0.06   0.02  -0.11    -0.00  -0.04  -0.24
    32   1    -0.13   0.06  -0.02    -0.00   0.12  -0.05    -0.11   0.25  -0.08
                     13                     14                     15
                      A                      A                      A
 Frequencies --    320.8418               341.0959               381.4066
 Red. masses --      1.8257                 2.6786                 2.4332
 Frc consts  --      0.1107                 0.1836                 0.2086
 IR Inten    --      0.1141                 3.9750                 0.8056
  Atom  AN      X      Y      Z        X      Y      Z        X      Y      Z
     1   8    -0.06  -0.03   0.00    -0.00   0.13   0.06     0.03   0.04  -0.01
     2   6    -0.06   0.00  -0.03    -0.01  -0.03  -0.07     0.02  -0.04   0.04
     3   6    -0.02   0.03  -0.06    -0.07  -0.09  -0.07    -0.04  -0.08   0.09
     4   6    -0.01   0.02   0.01    -0.03  -0.14  -0.00    -0.07  -0.10  -0.04
     5   6    -0.01   0.04  -0.05    -0.12   0.05   0.05     0.03  -0.01   0.01
     6   6     0.02   0.03   0.01     0.01  -0.03   0.00     0.00   0.04  -0.10
     7   6     0.05   0.01   0.04     0.02   0.01  -0.00    -0.01   0.02  -0.10
     8   6    -0.08  -0.02   0.08    -0.01   0.12  -0.05    -0.06  -0.13  -0.03
     9   6     0.10  -0.02   0.03     0.08  -0.03  -0.06     0.05   0.01   0.14
    10   6     0.14  -0.03  -0.05     0.01   0.07   0.07    -0.00   0.09  -0.05
    11   6    -0.02  -0.00  -0.02     0.07  -0.01   0.02     0.03   0.13   0.01
    12   6    -0.04  -0.02   0.02     0.07  -0.10  -0.00     0.01   0.00  -0.02
    13   1    -0.05   0.02  -0.07    -0.03  -0.16  -0.05    -0.05  -0.05   0.08
    14   1    -0.03  -0.01   0.03    -0.05  -0.22   0.01    -0.01  -0.02  -0.12
    15   1    -0.01   0.01   0.04     0.01  -0.12   0.02    -0.06  -0.08  -0.08
    16   1     0.02   0.07   0.03    -0.00  -0.13   0.01    -0.17  -0.19  -0.09
    17   1    -0.03   0.04  -0.06    -0.25   0.33  -0.00     0.13   0.01   0.04
    18   1    -0.01   0.03  -0.03    -0.17  -0.00   0.35     0.07   0.02   0.00
    19   1    -0.02   0.03   0.02     0.01  -0.05   0.01     0.05   0.00  -0.10
    20   1    -0.06  -0.00   0.08    -0.06   0.20   0.06    -0.09  -0.23  -0.10
    21   1    -0.14  -0.15   0.02    -0.02   0.20  -0.13    -0.10  -0.24  -0.03
    22   1    -0.18   0.05   0.17     0.01   0.10  -0.13    -0.09  -0.09   0.16
    23   1     0.20  -0.09   0.42     0.06  -0.14  -0.00     0.10   0.03   0.28
    24   1     0.33  -0.20  -0.26     0.15  -0.08  -0.14     0.21   0.16   0.19
    25   1    -0.20   0.21  -0.07     0.10   0.05  -0.11    -0.10  -0.16   0.25
    26   1     0.19   0.17  -0.09     0.07   0.12   0.18     0.02   0.12  -0.02
    27   1     0.26  -0.14  -0.20     0.05   0.05   0.06     0.05   0.07   0.01
    28   1     0.06  -0.15   0.02    -0.12   0.14   0.06    -0.03   0.16  -0.08
    29   1    -0.06  -0.04  -0.01     0.12   0.04   0.02     0.12   0.32  -0.01
    30   1    -0.04   0.03  -0.08     0.05  -0.02   0.10    -0.01   0.10   0.22
    31   1    -0.03   0.02   0.08     0.06  -0.04   0.12    -0.07  -0.05  -0.03
    32   1    -0.02  -0.09   0.03     0.06  -0.23   0.02     0.00   0.03  -0.02
                     16                     17                     18
                      A                      A                      A
 Frequencies --    399.6032               455.1499               463.3841
 Red. masses --      2.4778                 2.6565                 2.6838
 Frc consts  --      0.2331                 0.3242                 0.3395
 IR Inten    --      1.4611                 0.0808                 1.8382
  Atom  AN      X      Y      Z        X      Y      Z        X      Y      Z
     1   8     0.02   0.06   0.01     0.02  -0.02  -0.00    -0.11  -0.04  -0.01
     2   6     0.02  -0.04  -0.00     0.02  -0.02   0.02    -0.10  -0.01  -0.01
     3   6    -0.04  -0.07   0.02    -0.02  -0.03   0.05    -0.03   0.05   0.06
     4   6    -0.07  -0.09  -0.03    -0.04  -0.04  -0.01    -0.01   0.04  -0.01
     5   6     0.02   0.01  -0.01     0.02   0.04  -0.02     0.06   0.06  -0.01
     6   6     0.00   0.08   0.03    -0.03   0.08  -0.06     0.15  -0.02  -0.05
     7   6     0.03   0.10   0.07    -0.02  -0.12   0.09     0.14  -0.05  -0.03
     8   6     0.05  -0.01   0.15     0.02   0.07  -0.00    -0.07   0.00  -0.03
     9   6     0.02   0.11  -0.09    -0.13  -0.12  -0.01    -0.04   0.11  -0.00
    10   6    -0.08  -0.13  -0.08     0.14  -0.09   0.08    -0.02  -0.07   0.10
    11   6     0.02   0.06  -0.02     0.01   0.17  -0.08     0.10  -0.02  -0.00
    12   6     0.02  -0.04  -0.01    -0.00   0.02  -0.00     0.03  -0.10  -0.04
    13   1    -0.05  -0.09   0.01    -0.04  -0.02   0.04    -0.05   0.10   0.05
    14   1    -0.04  -0.03  -0.07    -0.01   0.00  -0.05     0.02   0.09  -0.05
    15   1    -0.09  -0.09  -0.05    -0.03  -0.03  -0.05    -0.01   0.05  -0.04
    16   1    -0.12  -0.12  -0.05    -0.09  -0.10  -0.04    -0.07  -0.01  -0.04
    17   1     0.05  -0.04   0.00     0.11  -0.05   0.01     0.15   0.10   0.02
    18   1     0.07   0.04  -0.05     0.12   0.10  -0.11    -0.03   0.02  -0.03
    19   1    -0.07   0.09   0.04    -0.07   0.14  -0.07     0.17  -0.02  -0.05
    20   1     0.06  -0.12   0.04     0.06   0.25   0.13    -0.16   0.08   0.10
    21   1     0.07  -0.06   0.22     0.04   0.17  -0.03    -0.19  -0.08  -0.25
    22   1     0.07  -0.01   0.26     0.00   0.06  -0.25    -0.16   0.07   0.05
    23   1    -0.02   0.10  -0.18    -0.12  -0.04  -0.07     0.03   0.37  -0.07
    24   1    -0.10   0.01  -0.13    -0.26  -0.22  -0.04    -0.24   0.07   0.07
    25   1     0.11   0.23  -0.17    -0.11  -0.02  -0.07    -0.14   0.08   0.03
    26   1    -0.17  -0.26  -0.21     0.13   0.05  -0.04     0.00  -0.23   0.29
    27   1    -0.26  -0.04  -0.26     0.28  -0.17   0.16    -0.18   0.02   0.09
    28   1     0.07  -0.39   0.02     0.20  -0.05   0.05    -0.13  -0.02   0.10
    29   1     0.06   0.06  -0.02     0.04   0.32  -0.10     0.19   0.11  -0.01
    30   1    -0.03   0.08   0.00    -0.04   0.17   0.07    -0.03   0.02   0.14
    31   1    -0.04  -0.05   0.04    -0.13   0.03   0.13     0.10  -0.01   0.08
    32   1     0.05  -0.09  -0.00     0.10  -0.09   0.02     0.07  -0.20  -0.02
                     19                     20                     21
                      A                      A                      A
 Frequencies --    527.8976               537.4321               593.1046
 Red. masses --      2.4830                 2.9657                 2.8105
 Frc consts  --      0.4077                 0.5047                 0.5825
 IR Inten    --      4.5496                 3.2341                 1.3592
  Atom  AN      X      Y      Z        X      Y      Z        X      Y      Z
     1   8     0.07  -0.09  -0.06     0.05   0.19   0.04    -0.02  -0.01  -0.04
     2   6     0.05   0.01   0.15     0.03  -0.05  -0.01    -0.03  -0.07   0.10
     3   6    -0.06  -0.01  -0.05     0.11  -0.09  -0.07    -0.04  -0.01  -0.05
     4   6    -0.04  -0.07   0.00    -0.00   0.00  -0.01    -0.06  -0.04  -0.01
     5   6    -0.10   0.02  -0.07     0.10   0.00   0.01     0.06   0.17  -0.10
     6   6     0.00  -0.05  -0.08     0.05   0.03  -0.01     0.10   0.14   0.14
     7   6     0.09  -0.01  -0.00     0.08  -0.05  -0.02    -0.07  -0.01  -0.00
     8   6    -0.02   0.01   0.01    -0.02  -0.02  -0.04     0.01  -0.02  -0.04
     9   6     0.03   0.07  -0.02    -0.00   0.02   0.00    -0.07  -0.07   0.02
    10   6     0.03  -0.05   0.05     0.03  -0.07   0.07    -0.03   0.04  -0.03
    11   6    -0.00   0.01   0.00    -0.18  -0.01   0.05     0.08  -0.05   0.06
    12   6     0.02   0.15   0.09    -0.16  -0.04   0.01     0.06  -0.07   0.03
    13   1    -0.18   0.03  -0.09     0.11  -0.12  -0.07    -0.22   0.06  -0.12
    14   1    -0.05  -0.18   0.01    -0.00   0.12   0.01    -0.05  -0.00  -0.03
    15   1     0.05  -0.03   0.03    -0.17  -0.11   0.04    -0.11  -0.07  -0.00
    16   1    -0.01  -0.07   0.01    -0.01   0.13   0.00    -0.09  -0.01  -0.02
    17   1    -0.20   0.29  -0.11     0.02   0.10  -0.02     0.01   0.08  -0.12
    18   1    -0.17  -0.05   0.23     0.13   0.00   0.14     0.14   0.22  -0.10
    19   1    -0.03  -0.10  -0.05     0.10   0.03  -0.03     0.15   0.05   0.16
    20   1    -0.08   0.06   0.09    -0.05   0.05   0.04     0.07  -0.05  -0.11
    21   1    -0.09  -0.05  -0.13    -0.07  -0.05  -0.16     0.09   0.07   0.10
    22   1    -0.08   0.06   0.08    -0.06   0.01  -0.03     0.08  -0.07  -0.13
    23   1     0.04   0.16  -0.07     0.05   0.17   0.00    -0.06  -0.07   0.04
    24   1    -0.07   0.04   0.00    -0.11  -0.02   0.03    -0.04  -0.04   0.04
    25   1     0.02   0.08  -0.02    -0.10   0.01   0.02    -0.10  -0.11   0.04
    26   1     0.03  -0.13   0.10     0.04  -0.12   0.14    -0.01   0.11  -0.04
    27   1    -0.06  -0.01   0.01    -0.00  -0.04   0.09     0.05   0.00   0.02
    28   1    -0.00  -0.07   0.06    -0.01  -0.02   0.06    -0.03   0.09  -0.05
    29   1    -0.17  -0.02   0.00    -0.31  -0.10   0.05    -0.01  -0.41   0.10
    30   1     0.11  -0.03  -0.10    -0.21   0.05  -0.12     0.01   0.08  -0.30
    31   1     0.03  -0.02  -0.26    -0.19  -0.21  -0.29     0.10  -0.20  -0.26
    32   1    -0.01   0.54   0.03    -0.37   0.23  -0.04    -0.01   0.27  -0.02
                     22                     23                     24
                      A                      A                      A
 Frequencies --    623.8884               707.0273               744.9045
 Red. masses --      2.7070                 3.2361                 3.1084
 Frc consts  --      0.6208                 0.9531                 1.0162
 IR Inten    --      1.3029                 2.2127                 0.5215
  Atom  AN      X      Y      Z        X      Y      Z        X      Y      Z
     1   8     0.02   0.05  -0.05    -0.13   0.01  -0.00     0.13  -0.03   0.04
     2   6    -0.01  -0.12   0.20    -0.10   0.06  -0.02     0.12   0.04  -0.13
     3   6     0.02   0.04   0.00     0.11  -0.09  -0.04    -0.11   0.10   0.13
     4   6     0.08   0.13   0.00    -0.01  -0.05  -0.01    -0.03   0.01   0.02
     5   6    -0.04   0.01  -0.04     0.16  -0.03  -0.00     0.00   0.12  -0.08
     6   6    -0.04  -0.05  -0.11     0.09  -0.08  -0.14     0.06  -0.05  -0.11
     7   6    -0.04   0.02   0.03    -0.03   0.01   0.01     0.02  -0.01  -0.01
     8   6     0.01   0.04   0.08     0.02   0.08   0.15     0.02   0.05   0.11
     9   6    -0.01  -0.03  -0.00    -0.08  -0.10   0.02    -0.04  -0.07   0.01
    10   6    -0.01   0.03  -0.03    -0.06   0.07  -0.07    -0.02   0.04  -0.04
    11   6     0.01  -0.02  -0.03     0.04  -0.04   0.01    -0.08  -0.09   0.09
    12   6     0.00  -0.19  -0.04     0.02   0.12   0.06    -0.05  -0.06  -0.01
    13   1    -0.07   0.27  -0.03     0.07  -0.14  -0.05    -0.15  -0.09   0.10
    14   1     0.06   0.13   0.03     0.01   0.10  -0.01     0.07  -0.06  -0.12
    15   1     0.02   0.08   0.07    -0.21  -0.17   0.01     0.26   0.22  -0.15
    16   1     0.10   0.23   0.02    -0.06   0.05  -0.01    -0.14  -0.34  -0.06
    17   1    -0.09   0.20  -0.06     0.11   0.34  -0.03     0.19   0.18  -0.01
    18   1    -0.11  -0.05   0.15     0.09  -0.11   0.36    -0.15   0.05  -0.14
    19   1    -0.10  -0.03  -0.10     0.12  -0.06  -0.15     0.09  -0.11  -0.10
    20   1     0.01   0.04   0.07     0.02   0.09   0.16    -0.01   0.08   0.16
    21   1     0.01   0.04   0.09     0.02   0.08   0.16    -0.01   0.03   0.05
    22   1     0.01   0.04   0.08     0.01   0.08   0.16    -0.01   0.08   0.15
    23   1    -0.04  -0.13  -0.00    -0.11  -0.16   0.00    -0.04  -0.07   0.01
    24   1     0.04  -0.04  -0.04    -0.07  -0.11  -0.00    -0.06  -0.09   0.01
    25   1     0.05   0.01  -0.03    -0.04  -0.09   0.00    -0.06  -0.07   0.01
    26   1    -0.03   0.06  -0.11    -0.08   0.10  -0.14    -0.02   0.05  -0.06
    27   1     0.02   0.00  -0.05    -0.02   0.05  -0.07    -0.03   0.04  -0.06
    28   1     0.04  -0.02  -0.02    -0.01   0.05  -0.07    -0.02   0.04  -0.04
    29   1     0.19   0.32  -0.07    -0.05   0.12  -0.01    -0.22  -0.08   0.08
    30   1    -0.12  -0.02   0.34     0.13  -0.11   0.08    -0.08  -0.07  -0.01
    31   1    -0.12  -0.35  -0.23     0.20   0.17  -0.02     0.07  -0.04  -0.08
    32   1     0.08   0.12  -0.08    -0.01   0.19   0.04    -0.35  -0.15  -0.02
                     25                     26                     27
                      A                      A                      A
 Frequencies --    828.8171               856.6285               895.7902
 Red. masses --      2.4716                 1.7295                 1.9088
 Frc consts  --      1.0003                 0.7477                 0.9024
 IR Inten    --      0.5951                 2.3880                 4.6297
  Atom  AN      X      Y      Z        X      Y      Z        X      Y      Z
     1   8     0.02   0.00  -0.01    -0.04   0.00   0.01    -0.03   0.02   0.00
     2   6     0.01  -0.02   0.04    -0.03  -0.05  -0.08    -0.03  -0.06  -0.02
     3   6    -0.04   0.03  -0.06    -0.01  -0.01  -0.01     0.05  -0.09   0.10
     4   6    -0.02   0.00  -0.02     0.02   0.02  -0.01     0.11   0.06   0.05
     5   6    -0.07  -0.10   0.07    -0.08   0.02   0.08    -0.09   0.00  -0.11
     6   6     0.10   0.01   0.08    -0.04   0.03  -0.09    -0.04  -0.03   0.02
     7   6     0.13  -0.05  -0.05     0.01  -0.01  -0.01     0.03  -0.01  -0.00
     8   6     0.05   0.04   0.09     0.01   0.01   0.03     0.01   0.00   0.01
     9   6    -0.04  -0.12   0.00     0.00   0.00  -0.00    -0.00  -0.01   0.00
    10   6    -0.03   0.09  -0.11     0.00   0.00  -0.01     0.00   0.02  -0.02
    11   6     0.01   0.10  -0.05     0.05   0.03   0.02     0.07   0.09   0.01
    12   6    -0.05  -0.00  -0.02     0.09  -0.05   0.12    -0.01   0.03  -0.00
    13   1     0.04   0.13  -0.02     0.30  -0.11   0.11    -0.11  -0.22   0.03
    14   1    -0.12  -0.20   0.09    -0.02   0.01   0.05     0.31   0.48  -0.15
    15   1     0.06   0.02   0.08    -0.03  -0.02   0.03    -0.08   0.01  -0.14
    16   1     0.15   0.11   0.05     0.09   0.11   0.02    -0.22  -0.10  -0.09
    17   1    -0.10  -0.22   0.06     0.15  -0.33   0.17    -0.15   0.07  -0.13
    18   1    -0.11  -0.11  -0.06    -0.00   0.11  -0.37    -0.10  -0.02   0.02
    19   1     0.18  -0.00   0.07    -0.02   0.09  -0.12    -0.09  -0.23   0.10
    20   1    -0.03   0.11   0.21    -0.01   0.04   0.07    -0.02   0.02   0.05
    21   1    -0.05  -0.03  -0.08    -0.03  -0.02  -0.04    -0.02  -0.03  -0.07
    22   1    -0.03   0.10   0.18    -0.02   0.02   0.03    -0.02   0.03   0.04
    23   1     0.04   0.13   0.01     0.01   0.02  -0.01     0.01   0.02  -0.01
    24   1    -0.19  -0.14   0.06    -0.00   0.01   0.01    -0.03  -0.02   0.01
    25   1    -0.22  -0.17   0.05    -0.00  -0.01   0.01    -0.01  -0.01   0.00
    26   1     0.01  -0.07   0.12     0.00   0.00  -0.01     0.02  -0.04   0.05
    27   1    -0.20   0.19  -0.12     0.00  -0.00  -0.01    -0.06   0.05  -0.04
    28   1    -0.20   0.17  -0.12     0.00  -0.00  -0.00    -0.05   0.03  -0.02
    29   1    -0.00  -0.06  -0.03    -0.24   0.05  -0.00    -0.08  -0.25   0.05
    30   1    -0.07   0.19  -0.20     0.13   0.01  -0.12     0.19   0.09  -0.32
    31   1    -0.23  -0.04   0.07     0.22  -0.21  -0.33    -0.14   0.00   0.06
    32   1     0.04  -0.05  -0.01    -0.20   0.35   0.03    -0.08  -0.07   0.01
                     28                     29                     30
                      A                      A                      A
 Frequencies --    913.8134               939.4875               942.2195
 Red. masses --      2.0631                 1.8001                 1.7671
 Frc consts  --      1.0150                 0.9361                 0.9243
 IR Inten    --      2.0804                 0.9228                 0.5263
  Atom  AN      X      Y      Z        X      Y      Z        X      Y      Z
     1   8     0.01  -0.00  -0.01    -0.01  -0.00   0.00    -0.00  -0.00   0.00
     2   6    -0.00   0.03   0.04    -0.00   0.01  -0.02    -0.00   0.00  -0.01
     3   6     0.07  -0.03  -0.00    -0.02   0.00   0.00    -0.00  -0.00   0.00
     4   6     0.01  -0.06   0.01    -0.01   0.02   0.01     0.00   0.01  -0.00
     5   6    -0.03   0.14  -0.02     0.03  -0.04   0.00     0.00  -0.01   0.00
     6   6    -0.13   0.02   0.03     0.01   0.02   0.00    -0.01   0.02  -0.00
     7   6     0.10  -0.03  -0.01     0.05   0.00   0.14     0.04   0.14  -0.02
     8   6     0.05  -0.01   0.01     0.03  -0.10  -0.10     0.03   0.05  -0.09
     9   6     0.01  -0.05  -0.00     0.01  -0.02   0.08    -0.12  -0.08   0.03
    10   6     0.00   0.05  -0.05    -0.07   0.11  -0.01     0.09  -0.01   0.06
    11   6    -0.07  -0.12   0.01     0.00   0.01  -0.01    -0.01   0.00   0.00
    12   6     0.01   0.04  -0.03     0.02  -0.02   0.02     0.02  -0.01   0.00
    13   1     0.10  -0.02   0.01    -0.06  -0.05  -0.02     0.01  -0.01   0.00
    14   1     0.05   0.18  -0.00     0.01  -0.05  -0.02    -0.00  -0.01   0.00
    15   1    -0.23  -0.19   0.01     0.10   0.09  -0.03     0.02   0.02  -0.00
    16   1    -0.09   0.05  -0.02    -0.00  -0.07  -0.00     0.01  -0.00   0.00
    17   1    -0.00  -0.16  -0.01    -0.02   0.08  -0.02     0.00   0.01   0.00
    18   1     0.13   0.25  -0.22    -0.01  -0.08   0.12    -0.01  -0.02   0.02
    19   1    -0.17   0.10   0.01    -0.09   0.07   0.01    -0.04   0.03   0.00
    20   1    -0.05   0.10   0.18    -0.06   0.10   0.13    -0.12  -0.26  -0.27
    21   1    -0.08  -0.09  -0.23    -0.09  -0.12  -0.38    -0.07  -0.23  -0.12
    22   1    -0.07   0.07   0.06    -0.11  -0.01  -0.17     0.00   0.11   0.41
    23   1     0.07   0.14  -0.01    -0.04   0.01  -0.13    -0.23  -0.41   0.04
    24   1    -0.13  -0.10   0.03    -0.25  -0.31  -0.05     0.09  -0.07  -0.06
    25   1    -0.11  -0.05   0.01     0.16   0.29  -0.12     0.08  -0.05  -0.01
    26   1     0.01  -0.08   0.06    -0.17   0.18  -0.32     0.06  -0.26   0.17
    27   1    -0.13   0.12  -0.11    -0.04   0.05  -0.22    -0.21   0.14  -0.17
    28   1    -0.08   0.03  -0.03     0.16  -0.18   0.08     0.02  -0.22   0.17
    29   1     0.19   0.13  -0.01    -0.06   0.05  -0.01    -0.00   0.00   0.00
    30   1    -0.09  -0.19   0.36    -0.02   0.03  -0.01    -0.01   0.00   0.01
    31   1     0.11   0.14   0.08     0.06  -0.04  -0.07     0.04  -0.01  -0.02
    32   1     0.24  -0.01  -0.01    -0.05   0.05   0.00     0.01   0.02  -0.00
                     31                     32                     33
                      A                      A                      A
 Frequencies --    969.2930               970.7857              1005.4996
 Red. masses --      1.5869                 1.2009                 1.7665
 Frc consts  --      0.8784                 0.6668                 1.0523
 IR Inten    --      5.4664                 0.0256                 0.3779
  Atom  AN      X      Y      Z        X      Y      Z        X      Y      Z
     1   8    -0.02  -0.01   0.00     0.00   0.00  -0.00    -0.00  -0.00  -0.01
     2   6    -0.01   0.04  -0.03     0.00  -0.00   0.00    -0.01  -0.01   0.03
     3   6    -0.02  -0.03  -0.01     0.00  -0.00   0.00    -0.02  -0.02   0.04
     4   6     0.01   0.07   0.04     0.00  -0.00  -0.00     0.01   0.01  -0.05
     5   6     0.02  -0.09  -0.01    -0.01   0.01   0.00     0.03  -0.05  -0.00
     6   6    -0.03   0.09   0.04    -0.01  -0.00  -0.00    -0.11   0.08  -0.06
     7   6     0.02   0.00  -0.03     0.00  -0.01  -0.00     0.01   0.01  -0.04
     8   6    -0.01   0.02   0.01     0.01   0.06  -0.03     0.05   0.01   0.02
     9   6     0.02  -0.04  -0.03     0.03  -0.01   0.07     0.01  -0.03  -0.03
    10   6     0.01  -0.02  -0.02    -0.04  -0.06  -0.04    -0.02  -0.02   0.04
    11   6    -0.07  -0.01  -0.01     0.00  -0.00   0.00    -0.02   0.03   0.12
    12   6     0.09  -0.04   0.03    -0.00   0.00  -0.00     0.08  -0.01  -0.08
    13   1    -0.21  -0.28  -0.09     0.02   0.01   0.01    -0.07   0.32   0.02
    14   1     0.13   0.02  -0.12    -0.01   0.00   0.01    -0.12  -0.11   0.10
    15   1     0.22   0.24  -0.13    -0.02  -0.02   0.01    -0.02  -0.05   0.12
    16   1    -0.10  -0.24  -0.04     0.01   0.02   0.00     0.18   0.22   0.04
    17   1    -0.16   0.06  -0.08     0.01  -0.02   0.01     0.01   0.12  -0.01
    18   1     0.07  -0.09   0.23     0.02   0.02  -0.02     0.17   0.00   0.22
    19   1    -0.12   0.20   0.03     0.01  -0.02  -0.00    -0.06  -0.08  -0.02
    20   1     0.03  -0.04  -0.07    -0.08  -0.23  -0.23    -0.06   0.05   0.13
    21   1     0.04   0.04   0.12    -0.02  -0.14   0.04    -0.06  -0.08  -0.18
[...]
 059472,0.00995132,-0.01514744,0.00559019,0.00065021,-0.00018446,-0.000
 76667,-0.00214367,-0.00144713,0.00214225,-0.10432519,0.09858984,-0.043
 03723,0.00009790,0.00009834,0.00014621,0.00000607,0.00005082,-0.000063
 51,0.00000842,-0.00000775,-0.00002131,0.00002099,-0.00001458,0.0000020
 9,-0.00001124,0.00000778,0.00000695,-0.00000552,0.00000459,0.00000549,
 0.00019928,0.00027437,-0.00002281,-0.00261111,0.00001238,0.00032989,-0
 .00002692,-0.00001957,-0.00006131,-0.00000682,-0.00012700,-0.00025757,
 -0.00008376,0.00014609,0.00001774,0.00015163,0.00023449,0.00001210,0.0
 0033156,0.00002715,0.00035482,0.00085219,-0.00088496,0.00059977,-0.000
 15544,-0.00000072,-0.00004294,-0.01292338,0.02426608,-0.00911333,0.114
 48484,0.00017617,0.00027829,0.00006106,0.00003142,-0.00060770,-0.00020
 967,0.00008998,0.00080797,0.00008234,-0.00000703,0.00003881,-0.0000468
 6,0.00048005,-0.00075448,-0.00065583,0.00119693,-0.00029004,0.00053868
 ,0.00715169,-0.01270190,0.00384274,0.00018084,0.00037108,-0.00100492,-
 0.00328536,-0.00061341,0.00274794,0.09785758,-0.22262148,0.07579118,-0
 .00017736,0.00006172,-0.00006847,0.00001419,0.00007582,0.00007208,0.00
 003183,-0.00003148,-0.00007294,0.00003044,-0.00001575,-0.00000672,-0.0
 0001555,0.00002429,0.00002254,-0.00002757,0.00000061,-0.00000050,-0.00
 022360,0.00004243,-0.00002175,0.00014283,0.00141861,0.00015697,-0.0000
 6810,-0.00008857,-0.00002752,-0.00022857,0.00009762,-0.00003697,-0.000
 07813,0.00002648,0.00000166,-0.00016715,0.00066474,0.00037523,0.000129
 38,0.00024010,-0.00012375,0.00071027,-0.00078016,0.00066230,-0.0000990
 9,0.00042329,-0.00017891,-0.00427982,0.00919983,-0.00386489,-0.1090318
 6,0.24052401,-0.00007510,-0.00014043,-0.00003111,-0.00001346,0.0003090
 5,0.00009548,-0.00011915,-0.00036715,-0.00005889,0.00003049,0.00001714
 ,0.00002447,-0.00008366,0.00054804,0.00038998,-0.00067392,-0.00027323,
 0.00022605,-0.01229264,0.01683526,-0.00785260,-0.00122752,0.00095996,0
 .00104621,0.00346837,0.00159385,-0.00350287,-0.04283432,0.07584394,-0.
 08331907,0.00002544,-0.00004066,-0.00003940,-0.00000539,-0.00007942,-0
 .00002291,0.00003312,0.00002789,-0.00001601,-0.00001220,-0.00000381,-0
 .00000507,0.00000922,-0.00003352,-0.00000088,-0.00000833,-0.00000775,-
 0.00001251,-0.00014818,-0.00021135,-0.00002503,0.00042761,-0.00052366,
 0.00043671,0.00018437,-0.00005265,0.00002665,0.00011052,-0.00025300,0.
 00029125,0.00000678,0.00003823,-0.00010475,0.00054188,-0.00061617,-0.0
 0028395,0.00036470,-0.00034796,0.00013263,-0.00061839,0.00165232,-0.00
 018794,0.00000010,0.00033187,0.00023653,-0.00605477,0.01137950,-0.0052
 1747,0.04645186,-0.08553814,0.08702108,0.00001094,-0.00004251,-0.00000
 751,-0.00003770,0.00010518,0.00001156,-0.00008130,-0.00015081,0.000021
 39,0.00003334,0.00001689,-0.00002456,-0.00011401,0.00019231,-0.0001249
 8,0.00065749,0.00157981,0.00150201,-0.00490240,0.01203964,0.01367621,-
 0.00209074,-0.00255283,0.00197476,0.00029478,0.00060505,-0.00081503,-0
 .05910439,0.03155098,0.03804124,0.00014654,-0.00015949,-0.00020348,0.0
 0000278,-0.00000014,-0.00005501,0.00005562,0.00000340,-0.00004645,0.00
 000830,-0.00001116,0.00000073,0.00000036,-0.00001470,0.00000391,-0.000
 01321,0.00000212,-0.00000724,-0.00018281,-0.00005341,-0.00005544,0.000
 17160,-0.00016229,0.00013019,-0.00030401,-0.00078024,-0.00058836,0.000
 20652,0.00060332,0.00125982,0.00031120,0.00009207,0.00026818,0.0000541
 7,-0.00026587,-0.00028444,0.00000940,-0.00020493,-0.00009026,-0.000208
 77,0.00002670,-0.00016572,0.00041391,-0.00028877,-0.00010980,0.0073075
 3,-0.01848143,-0.02225330,-0.00331908,0.00941232,0.01255980,0.06055204
 ,0.00007835,0.00003349,0.00001409,-0.00004172,-0.00007867,-0.00003169,
 0.00006184,0.00013148,0.00005899,-0.00001540,-0.00001812,-0.00002584,0
 .00000559,-0.00043243,-0.00004148,0.00006821,0.00060878,0.00037092,-0.
 00268839,0.00891437,0.01176245,-0.00142225,-0.00091401,0.00178884,-0.0
 0025808,0.00109062,0.00056216,0.03181268,-0.14843721,-0.12230130,0.000
 21898,0.00012819,0.00022631,0.00000002,0.00003736,-0.00005827,-0.00002
 049,-0.00001770,0.00002074,0.00001027,0.00000222,0.00000339,-0.0000051
 4,0.00001642,0.00000280,0.00000644,0.00000510,0.00000845,0.00017113,0.
 00010447,0.00003574,-0.00002561,0.00020359,-0.00007366,0.00009689,0.00
 017460,0.00001825,-0.00031975,0.00067941,0.00070028,0.00005809,-0.0001
 3447,0.00015197,-0.00027853,0.00013536,0.00010948,0.00009826,-0.000075
 98,-0.00003507,-0.00003078,0.00026185,-0.00018482,-0.00009758,0.000011
 74,-0.00006807,0.00204197,-0.00593136,-0.00566879,0.00363768,-0.015948
 35,-0.02094851,-0.03314044,0.15944487,0.00002168,0.00003627,0.00000080
 ,-0.00002532,-0.00008988,0.00001040,-0.00004054,0.00007125,-0.00007713
 ,-0.00002299,-0.00000065,0.00003232,-0.00003761,-0.00000868,0.00004788
 ,-0.00135546,-0.00100799,0.00017767,0.00346653,-0.01466060,-0.01800155
 ,0.00307054,0.00410760,-0.00273877,-0.00003487,-0.00165343,0.00051575,
 0.03825715,-0.12144028,-0.19934051,-0.00006672,0.00025469,0.00018465,-
 0.00000482,0.00006799,0.00002912,-0.00005271,0.00000560,0.00004853,-0.
 00000686,0.00000418,-0.00000397,-0.00000071,0.00000991,-0.00001124,0.0
 0001211,-0.00000413,0.00001202,0.00007130,-0.00001080,0.00004909,0.000
 08982,0.00004712,-0.00009434,0.00036561,0.00060608,0.00093396,0.000549
 35,-0.00112047,-0.00130834,-0.00008462,0.00024951,0.00044157,0.0000364
 3,-0.00011655,0.00024282,-0.00002788,0.00001766,-0.00015335,-0.0000674
 7,0.00018650,0.00044806,-0.00015664,0.00111192,0.00019471,0.00278045,-
 0.00779058,-0.00989699,-0.00210703,0.00763969,0.01073708,-0.04451721,0
 .13353106,0.21734189,-0.00025410,0.00001974,0.00036096,0.00174468,-0.0
 0113308,-0.00080177,-0.00012038,0.00018427,-0.00035319,0.00008888,0.00
 009523,0.00004738,-0.00013468,0.00031754,-0.00041583,-0.00247614,0.006
 14903,0.01701134,0.00076982,0.00050804,0.00063604,-0.00060762,-0.00069
 280,0.00035378,-0.00021513,0.00006949,0.00054487,0.00002254,0.00001561
 ,-0.00004488,-0.04849310,0.00556329,0.01067521,-0.00114747,-0.01073928
 ,-0.03213538,0.00014804,0.00056783,-0.00012991,0.00000866,-0.00003343,
 -0.00000115,-0.00000820,0.00000981,0.00000466,0.00000313,-0.00004597,0
 .00004170,-0.00000149,-0.00007374,0.00007540,0.00003851,-0.00008693,0.
 00006857,-0.00156197,-0.00312417,0.00243861,-0.00029918,-0.00091990,-0
 .00081887,0.00012477,0.00018343,-0.00021129,0.00008789,0.00016530,-0.0
 0006573,0.00009693,0.00003636,-0.00027527,-0.00044638,0.00036974,-0.00
 016512,0.00015003,-0.00017831,-0.00011109,-0.00005224,-0.00004826,-0.0
 0009181,0.00003670,0.00006038,-0.00003615,0.00013207,-0.00003636,-0.00
 017001,0.05792583,-0.00042669,0.00018234,0.00003122,0.00060459,-0.0002
 3378,0.00065805,0.00023307,-0.00036470,-0.00029077,0.00003992,0.000053
 15,-0.00005942,-0.00020730,0.00077482,-0.00026800,-0.00088927,0.008380
 16,0.02060662,0.00016472,0.00119738,-0.00047063,-0.00049622,-0.0006723
 0,0.00017412,-0.00007570,0.00009064,-0.00072969,0.00030316,-0.00005584
 ,0.00007202,0.00524596,-0.07870391,-0.07667821,-0.00026839,-0.00113279
 ,-0.00367379,0.00080557,-0.00092883,0.00029839,-0.00000414,-0.00002442
 ,-0.00000296,0.00000023,0.00003850,-0.00000515,-0.00003847,0.00002305,
 0.00001685,0.00004379,0.00006350,-0.00014496,0.00006982,0.00003469,0.0
 0000053,-0.00235281,-0.00198632,0.00298146,-0.00091526,-0.00080009,-0.
 00063872,0.00015246,0.00020542,-0.00010794,-0.00002996,-0.00007334,0.0
 0002669,-0.00005715,0.00000152,0.00013311,-0.00003255,-0.00007739,0.00
 018439,0.00000290,-0.00001124,0.00016152,0.00000989,0.00000300,-0.0001
 1094,-0.00000081,-0.00000620,0.00002978,0.00011269,-0.00000212,-0.0001
 1155,-0.00178351,0.08306269,-0.00048317,0.00055957,0.00005178,0.000467
 57,-0.00163711,-0.00012472,-0.00004021,-0.00005199,-0.00090161,-0.0000
 5291,0.00024894,0.00052159,0.00056177,-0.00050261,0.00021991,0.0035824
 7,-0.00589853,-0.01794385,-0.00146503,-0.00070405,-0.00052929,-0.00007
 575,-0.00023329,-0.00053065,0.00020954,0.00033961,-0.00010044,0.000176
 74,-0.00002198,0.00015395,0.01028980,-0.07717931,-0.27428709,-0.001089
 61,-0.00324641,-0.01028289,0.00007881,0.00055592,0.00098518,-0.0000509
 3,0.00002580,-0.00002863,-0.00000723,0.00000531,-0.00002920,0.00011932
 ,-0.00016495,0.00008867,-0.00015305,-0.00000262,0.00021717,-0.00011724
 ,0.00020490,-0.00008069,0.00141124,0.00320113,-0.00151997,-0.00066854,
 -0.00058581,0.00095779,-0.00021901,-0.00001185,0.00043110,-0.00007479,
 -0.00009618,0.00011495,0.00006386,-0.00005632,0.00014232,0.00012727,-0
 .00031921,0.00025375,-0.00024263,0.00004249,0.00016659,0.00013735,0.00
 010451,0.00005750,-0.00004021,-0.00005517,0.00000343,-0.00011376,0.000
 07084,0.00018250,-0.01004185,0.08647897,0.30020511,-0.00262859,0.00275
 187,0.00069162,-0.00339940,-0.00617943,-0.00302257,0.00014649,0.000106
 34,0.00072227,0.00018155,0.00001236,-0.00006864,-0.00197102,-0.0018703
 6,0.00141787,0.00865816,-0.01543992,0.00054354,0.00070744,-0.00000083,
 -0.00009239,-0.00010152,-0.00000489,-0.00007116,-0.00140964,-0.0005813
 1,-0.00108568,0.00003171,0.00013966,0.00009189,-0.10507803,0.11062513,
 -0.00068381,-0.01712920,0.02916416,-0.00083910,0.00002742,0.00023315,-
 0.00010915,0.00004950,-0.00011805,-0.00002443,-0.00000683,0.00010217,-
 0.00001006,-0.00004888,-0.00000300,-0.00002782,0.00009704,-0.00015155,
 0.00012954,0.00056725,-0.00068274,0.00026913,0.00106874,0.00027228,-0.
 00044653,0.00001047,-0.00001652,0.00002997,0.00000036,-0.00002975,-0.0
 0000269,-0.00001142,0.00003856,0.00004933,-0.00009275,-0.00007988,0.00
 021477,-0.00159908,-0.00064856,-0.00025370,-0.00030813,0.00012726,0.00
 009271,-0.00000317,0.00004789,-0.00003226,0.00003605,0.00006002,-0.000
 04535,-0.00000381,-0.00001373,0.00002615,-0.00062416,0.00075419,0.0002
 4727,0.12038765,-0.00029849,0.00054217,0.00023684,-0.00157408,-0.00015
 273,-0.00086935,-0.00052286,0.00057341,0.00005709,0.00010963,0.0001554
 0,0.00000647,-0.00321954,-0.00117301,0.00148202,0.01003801,-0.01778318
 ,0.00032975,0.00096387,-0.00058553,0.00055527,-0.00016552,0.00007453,-
 0.00020935,0.00043434,-0.00012236,0.00069780,-0.00023010,0.00017160,-0
 .00007845,0.10964085,-0.25490007,0.00098188,-0.00351638,0.00637824,-0.
 00025532,-0.00005792,0.00019134,0.00016119,0.00004233,-0.00004659,-0.0
 0001342,-0.00002829,0.00001969,0.00001318,0.00000371,-0.00005147,0.000
 00636,0.00012476,-0.00029950,0.00024899,0.00060951,-0.00085843,0.00057
 169,-0.00001524,0.00157691,0.00012291,0.00004324,-0.00005210,0.0001730
 0,-0.00011001,-0.00009270,0.00000446,-0.00002280,0.00017409,0.00008065
 ,0.00025169,0.00061835,-0.00025592,-0.00006587,0.00025099,-0.00105883,
 -0.00031894,0.00011662,0.00035110,-0.00013868,-0.00002849,0.00002158,0
 .00009297,0.00016386,-0.00012470,-0.00001379,-0.00000797,0.00006023,0.
 00512401,-0.00972647,-0.00065732,-0.11819172,0.27406313,-0.00120554,0.
 00087070,0.00020073,-0.00134622,-0.00166014,-0.00042635,0.00021836,-0.
 00077542,-0.00051146,-0.00004108,0.00011396,0.00031263,0.00329361,0.00
 274785,-0.00123396,-0.00903341,0.01870362,-0.00277447,-0.00017277,-0.0
 0039599,-0.00025724,-0.00015505,-0.00004549,-0.00041880,-0.00032810,-0
 .00013866,0.00080380,-0.00017733,0.00011141,-0.00001795,-0.00078591,0.
 00018213,-0.04942086,-0.00673484,0.01123524,-0.00061541,0.00010743,0.0
 0019733,0.00045927,-0.00003329,0.00001065,-0.00001589,0.00002345,-0.00
 003292,-0.00002397,0.00007380,-0.00009026,0.00004118,-0.00012311,0.000
 08098,-0.00011787,-0.00066251,0.00099739,-0.00057482,-0.00073623,0.000
 12225,0.00078424,0.00000315,-0.00007903,0.00031352,-0.00007882,-0.0001
 1902,0.00013118,-0.00000279,-0.00004968,-0.00002268,0.00007754,0.00001
 490,-0.00017935,-0.00054362,-0.00032646,-0.00037596,0.00021290,-0.0001
 1367,-0.00012720,0.00004378,-0.00006108,0.00001401,-0.00003558,-0.0000
 3485,-0.00000516,0.00001234,-0.00001433,-0.00000264,0.01556798,-0.0284
 8169,0.00044473,0.00146136,-0.00320402,0.05291138,0.00041201,-0.000569
 65,0.00117017,0.00917320,0.01131677,-0.01125953,-0.00109261,0.00160074
 ,0.00108484,0.00048319,0.00050958,0.00008739,-0.00051067,0.00059580,-0
 .00026309,-0.00489550,0.00028300,-0.00474079,-0.00013281,-0.00095250,0
 .00179211,-0.00015577,0.00011271,0.00010388,0.00011594,-0.00019011,0.0
 0010851,-0.00057125,-0.00010801,-0.00055861,-0.01361042,-0.02009675,0.
 01803200,-0.11412616,-0.09020722,0.06979890,0.00005135,0.00034460,0.00
 004205,0.00004467,-0.00009181,0.00001523,-0.00010305,0.00024910,-0.000
 07689,-0.00000276,-0.00004108,0.00000463,0.00004959,-0.00006297,0.0000
 9199,0.00010327,-0.00008328,0.00002242,0.00010069,0.00021395,0.0000758
 8,0.00004257,0.00002624,-0.00004090,-0.00001677,-0.00007786,-0.0000864
 9,0.00000925,-0.00005567,0.00000797,-0.00006727,0.00003059,-0.00004085
 ,0.00004537,0.00002861,-0.00004229,0.00001174,0.00001164,0.00001603,-0
 .00020694,-0.00016209,0.00016762,0.00004053,-0.00003417,0.00001838,0.0
 0002562,0.00002731,0.00000676,0.00133626,0.00006381,-0.00033605,0.0007
 4839,0.00060298,0.00047909,0.12309949,-0.00064731,0.00487634,-0.002687
 31,-0.01629492,-0.02473851,0.01672679,0.00369838,-0.00256734,-0.000929
 34,-0.00099861,-0.00097596,-0.00037951,0.00074022,0.00073564,-0.000500
 55,0.00019583,0.00075600,-0.00043131,0.00007995,0.00014212,0.00022109,
 -0.00001353,-0.00004115,0.00003618,-0.00003367,-0.00003601,-0.00000291
 ,-0.00002658,-0.00002362,-0.00005484,-0.00030175,-0.00118686,0.0002131
 2,-0.08920298,-0.16999204,0.10089273,-0.00024660,-0.00045805,-0.000126
 46,0.00005319,0.00000037,-0.00004711,0.00028723,-0.00042636,0.00015038
 ,-0.00000388,0.00004404,0.00005776,-0.00001014,0.00006972,0.00012596,0
 .00006892,-0.00001187,0.00002130,-0.00016331,0.00001172,0.00008947,0.0
 0000888,0.00000139,-0.00000470,-0.00001463,0.00001342,-0.00000746,0.00
 001292,0.00003319,-0.00000710,-0.00001791,0.00000222,-0.00000806,0.000
 00475,0.00000496,0.00000739,0.00000542,0.00000474,-0.00000570,-0.00000
 476,-0.00000852,0.00001377,0.00001237,0.00000813,-0.00000158,0.0000002
 8,0.00000880,-0.00000018,-0.00008554,-0.00014712,-0.00018284,-0.000157
 15,0.00050339,-0.00033248,0.09729148,0.18482720,-0.00176926,-0.0001270
 5,0.00034018,0.00150658,-0.00426562,0.00005120,0.00041300,-0.00068702,
 0.00027274,-0.00006078,-0.00011812,-0.00004771,-0.00022585,0.00023238,
 -0.00034884,-0.00198816,0.00003210,-0.00066691,-0.00041942,-0.00026414
 ,0.00061045,0.00005182,0.00006758,0.00009108,0.00006274,-0.00003754,0.
 00005701,-0.00020302,-0.00005180,-0.00016370,-0.00602426,-0.01002205,0
 .00768040,0.06908837,0.10016887,-0.12395339,-0.00002462,0.00013377,0.0
 0001151,-0.00000698,-0.00000318,0.00000469,-0.00000387,-0.00005225,0.0
 0001238,-0.00000392,-0.00000433,0.00000143,0.00000875,-0.00012065,0.00
 026052,0.00006339,-0.00000209,0.00010858,-0.00029273,-0.00006776,0.000
 23029,0.00000818,0.00000606,-0.00003109,0.00001164,-0.00000337,0.00000
 087,0.00000073,-0.00002998,-0.00000396,-0.00000092,0.00000457,-0.00000
 980,0.00001099,0.00001620,-0.00001745,0.00000217,-0.00000154,-0.000010
 67,-0.00006351,-0.00006117,0.00005981,0.00000928,-0.00001963,0.0000045
 0,0.00000658,0.00000931,-0.00001358,0.00068166,-0.00018389,0.00051381,
 0.00072186,0.00010861,0.00034034,-0.07642222,-0.10674009,0.13184365,-0
 .00107064,0.00117189,-0.00365840,-0.00216586,0.00413713,0.01887266,-0.
 00045211,0.00061434,-0.00150986,0.00023028,0.00007207,0.00002566,0.000
 40458,0.00004842,0.00019550,0.00198917,0.00044944,-0.00100179,-0.00004
 038,0.00029322,-0.00016783,0.00008092,0.00003671,-0.00020064,0.0000271
 8,0.00009602,-0.00013839,0.00006975,0.00002009,0.00007145,-0.00059327,
 -0.01231127,-0.03215130,-0.04396552,0.00368260,0.01075909,-0.00022589,
 -0.00028960,0.00005979,-0.00000573,-0.00006310,-0.00001962,-0.00000725
 ,0.00008384,-0.00004672,-0.00000451,0.00002637,-0.00000298,0.00005989,
 -0.00025315,-0.00002212,0.00006273,0.00006162,-0.00006502,-0.00030538,
 0.00021030,0.00067779,-0.00005315,0.00002946,0.00024704,-0.00005581,-0
 .00003559,0.00012432,-0.00001205,-0.00005489,0.00002672,-0.00002166,-0
 .00002739,0.00006170,0.00005623,-0.00009868,0.00010298,-0.00005599,0.0
 0001251,0.00004069,0.00004335,0.00001476,-0.00000082,-0.00001241,-0.00
 003293,0.00001589,-0.00003195,0.00000053,0.00002559,-0.00627252,-0.001
 02854,-0.00220104,0.00169742,0.00040832,0.00062140,-0.00040113,0.00576
 342,0.01486176,0.05103172,0.00029541,0.00017697,0.00329119,0.00124357,
 -0.01003525,-0.02994008,0.00161215,-0.00128581,0.00418315,-0.00073212,
 -0.00031262,0.00016503,-0.00041837,-0.00080267,-0.00051149,0.00017282,
 0.00005577,-0.00067388,-0.00008856,0.00003636,0.00008544,0.00008360,0.
 00000632,0.00000498,0.00002085,0.00004676,-0.00000112,0.00000242,-0.00
 001902,0.00001507,-0.00086211,-0.00091760,-0.00296697,0.00305436,-0.07
 483681,-0.08448265,0.00041080,0.00113956,0.00001321,-0.00001610,0.0001
 0774,0.00001689,0.00007861,-0.00022956,0.00009870,0.00006187,-0.000117
 89,0.00002923,-0.00014340,-0.00046456,0.00044959,-0.00016247,0.0001092
 3,0.00027047,-0.00029399,0.00005256,0.00014864,0.00000264,0.00000416,0
 .00003082,0.00000432,0.00001747,0.00004325,0.00000135,-0.00001401,-0.0
 0000355,0.00001675,-0.00002377,0.00001536,0.00000639,-0.00001332,0.000
 03003,-0.00000305,0.00000102,-0.00001650,0.00001956,0.00001332,0.00000
 997,-0.00001023,-0.00000815,-0.00000313,-0.00001995,0.00000567,0.00000
 848,-0.00045781,0.00083601,-0.00023045,-0.00026564,0.00030688,0.000566
 77,-0.00057576,0.00857003,0.02208381,-0.00303793,0.07759520,-0.0005067
 5,-0.00033505,0.00104505,0.00100539,-0.00077995,-0.00029319,0.00048460
 ,-0.00047230,-0.00078363,-0.00006593,-0.00003738,-0.00006368,0.0002235
 8,0.00039125,-0.00028594,0.00061055,0.00084320,0.00060677,-0.00013846,
 0.00004358,0.00012511,0.00015864,0.00011027,-0.00007985,0.00002773,0.0
 0002627,-0.00011260,-0.00002833,0.00000484,-0.00005048,-0.00094270,-0.
 00396786,-0.01138503,0.00702698,-0.07698685,-0.26817920,-0.00007275,0.
 00005685,0.00001730,0.00001103,-0.00000329,-0.00000554,0.00004040,-0.0
 0001498,0.00002520,0.00001837,-0.00003025,0.00002218,0.00013829,0.0000
 4125,0.00041694,0.00011167,0.00002386,0.00018108,-0.00060760,-0.000467
 82,0.00039415,-0.00002840,-0.00000107,0.00010614,-0.00001802,-0.000005
 99,0.00004606,-0.00002097,-0.00004546,0.00001893,-0.00003238,-0.000023
 51,0.00003121,0.00003744,-0.00005286,0.00008656,-0.00002103,0.00000316
 ,0.00002945,-0.00001341,-0.00002227,0.00001597,0.00000261,-0.00002693,
 0.00001357,-0.00000618,0.00000578,0.00001157,-0.00263887,0.00010457,0.
 00064723,0.00010608,0.00045560,0.00036504,0.00074187,-0.00610641,-0.01
 722834,-0.00560348,0.08726975,0.29426197\\0.00001678,0.00000664,-0.000
 07578,-0.00003541,0.00001089,0.00001969,-0.00006233,-0.00005715,-0.000
 00448,0.00001109,-0.00000635,-0.00001321,-0.00001583,0.00003045,-0.000
 03986,-0.00002021,-0.00000743,0.00000856,-0.00000337,-0.00003310,-0.00
 006644,0.00004872,0.00000003,0.00002607,0.00000789,0.00001093,0.000010
 79,0.00000761,0.00000969,0.00003280,0.00004540,0.00003196,0.00000498,0
 .00003409,-0.00000283,-0.00000160,-0.00001020,-0.00000666,-0.00000463,
 0.00000751,0.00001242,0.00002426,0.00001153,0.00000321,-0.00001614,-0.
 00002630,-0.00001177,0.00000436,0.00003512,0.00004059,-0.00001849,-0.0
 0000606,0.00000635,0.00004984,-0.00005673,-0.00000935,-0.00000535,-0.0
 0000379,-0.00000104,0.00001414,0.00000557,0.00000264,0.00000220,0.0000
 0009,-0.00000016,-0.00000417,0.00001228,-0.00001054,-0.00000815,0.0000
 0429,0.00000430,0.00000540,0.00000878,-0.00001426,0.00000649,0.0000065
 3,-0.00000030,-0.00000024,-0.00000613,0.00000880,0.00000771,-0.0000059
 7,0.00000607,-0.00001032,-0.00000207,-0.00001675,0.00000455,0.00001996
 ,0.00000781,0.00000625,0.00000014,0.00001706,0.00003451,-0.00002897,-0
 .00003216,0.00000626\\\@


 A SOLDIER'S LIFE IS A LIFE OF HONOR, BUT A DOG WOULD NOT LEAD IT.
 -- PRINCE RUPERT, FOUNDER OF THE HUDSON'S BAY COMPANY
 Job cpu time:       0 days  0 hours  3 minutes 20.6 seconds.
 Elapsed time:       0 days  0 hours  3 minutes 24.5 seconds.
 File lengths (MBytes):  RWF=    188 Int=      0 D2E=      0 Chk=     16 Scr=      1
 Normal termination of Gaussian 16 at Sat Feb 24 04:39:13 2024.
