 Entering Gaussian System, Link 0=g16
 Input=/Volumes/SSD-PMU3/b3lyp_6-31gd_freq/LYCRAZFAMQOPDJ-DTWKUNHWSA-N_calculating/gaussianinput0.gjf
 Output=/Volumes/SSD-PMU3/b3lyp_6-31gd_freq/LYCRAZFAMQOPDJ-DTWKUNHWSA-N_calculating/gaussianinput0.log
 Initial command:
 /Applications/g16/l1.exe "/Users/macmini_m1_2022/PycharmProjects/sphere_model/sphere_model_lib/Gau-92779.inp" -scrdir="/Users/macmini_m1_2022/PycharmProjects/sphere_model/sphere_model_lib/"
 Entering Link 1 = /Applications/g16/l1.exe PID=     92780.
  
 Copyright (c) 1988,1990,1992,1993,1995,1998,2003,2009,2016,
            Gaussian, Inc.  All Rights Reserved.
  
 This is part of the Gaussian(R) 16 program.  It is based on
 the Gaussian(R) 09 system (copyright 2009, Gaussian, Inc.),
 the Gaussian(R) 03 system (copyright 2003, Gaussian, Inc.),
 the Gaussian(R) 98 system (copyright 1998, Gaussian, Inc.),
 the Gaussian(R) 94 system (copyright 1995, Gaussian, Inc.),
 the Gaussian 92(TM) system (copyright 1992, Gaussian, Inc.),
 the Gaussian 90(TM) system (copyright 1990, Gaussian, Inc.),
 the Gaussian 88(TM) system (copyright 1988, Gaussian, Inc.),
 the Gaussian 86(TM) system (copyright 1986, Carnegie Mellon
 University), and the Gaussian 82(TM) system (copyright 1983,
 Carnegie Mellon University). Gaussian is a federally registered
 trademark of Gaussian, Inc.
  
 This software contains proprietary and confidential information,
 including trade secrets, belonging to Gaussian, Inc.
  
 This software is provided under written license and may be
 used, copied, transmitted, or stored only in accord with that
 written license.
  
 The following legend is applicable only to US Government
 contracts under FAR:
  
                    RESTRICTED RIGHTS LEGEND
  
 Use, reproduction and disclosure by the US Government is
 subject to restrictions as set forth in subparagraphs (a)
 and (c) of the Commercial Computer Software - Restricted
 Rights clause in FAR 52.227-19.
  
 Gaussian, Inc.
 340 Quinnipiac St., Bldg. 40, Wallingford CT 06492
  
  
 ---------------------------------------------------------------
 Warning -- This program may not be used in any manner that
 competes with the business of Gaussian, Inc. or will provide
 assistance to any competitor of Gaussian, Inc.  The licensee
 of this program is prohibited from giving any competitor of
 Gaussian, Inc. access to this program.  By using this program,
 the user acknowledges that Gaussian, Inc. is engaged in the
 business of creating and licensing software in the field of
 computational chemistry and represents and warrants to the
 licensee that it is not a competitor of Gaussian, Inc. and that
 it will not use this program in any manner prohibited above.
 ---------------------------------------------------------------
  

 Cite this work as:
 Gaussian 16, Revision A.03,
 M. J. Frisch, G. W. Trucks, H. B. Schlegel, G. E. Scuseria, 
 M. A. Robb, J. R. Cheeseman, G. Scalmani, V. Barone, 
 G. A. Petersson, H. Nakatsuji, X. Li, M. Caricato, A. V. Marenich, 
 J. Bloino, B. G. Janesko, R. Gomperts, B. Mennucci, H. P. Hratchian, 
 J. V. Ortiz, A. F. Izmaylov, J. L. Sonnenberg, D. Williams-Young, 
 F. Ding, F. Lipparini, F. Egidi, J. Goings, B. Peng, A. Petrone, 
 T. Henderson, D. Ranasinghe, V. G. Zakrzewski, J. Gao, N. Rega, 
 G. Zheng, W. Liang, M. Hada, M. Ehara, K. Toyota, R. Fukuda, 
 J. Hasegawa, M. Ishida, T. Nakajima, Y. Honda, O. Kitao, H. Nakai, 
 T. Vreven, K. Throssell, J. A. Montgomery, Jr., J. E. Peralta, 
 F. Ogliaro, M. J. Bearpark, J. J. Heyd, E. N. Brothers, K. N. Kudin, 
 V. N. Staroverov, T. A. Keith, R. Kobayashi, J. Normand, 
 K. Raghavachari, A. P. Rendell, J. C. Burant, S. S. Iyengar, 
 J. Tomasi, M. Cossi, J. M. Millam, M. Klene, C. Adamo, R. Cammi, 
 J. W. Ochterski, R. L. Martin, K. Morokuma, O. Farkas, 
 J. B. Foresman, and D. J. Fox, Gaussian, Inc., Wallingford CT, 2016.
 
 ******************************************
 Gaussian 16:  EM64M-G16RevA.03 25-Dec-2016
                24-Feb-2024 
 ******************************************
 %nprocshared=10
 Will use up to   10 processors via shared memory.
 %mem=12GB
 %chk= 0.chk
 ---------------------
 # freq b3lyp/6-31g(d)
 ---------------------
 1/10=4,30=1,38=1/1,3;
 2/12=2,17=6,18=5,40=1/2;
 3/5=1,6=6,7=1,11=2,25=1,30=1,71=2,74=-5,140=1/1,2,3;
 4//1;
 5/5=2,38=5,98=1/2;
 8/6=4,10=90,11=11/1;
 11/6=1,8=1,9=11,15=111,16=1/1,2,10;
 10/6=1/2;
 6/7=2,8=2,9=2,10=2,28=1/1;
 7/8=1,10=1,25=1/1,2,3,16;
 1/10=4,30=1/3;
 99//99;
 ---------
 good luck
 ---------
 Symbolic Z-matrix:
 Charge =  0 Multiplicity = 1
 O                     1.2174    0.        0. 
 C                     0.        0.        0. 
 C                    -0.8074   -1.29805   0.0093 
 C                    -1.25902  -1.62709   1.44864 
 C                    -1.98687  -1.23652  -0.99274 
 C                    -2.86327   0.0291   -0.85764 
 C                    -4.13134   0.02848  -1.78398 
 C                    -5.01541  -1.1954   -1.45718 
 C                    -3.76763  -0.00866  -3.28268 
 C                    -4.9762    1.2928   -1.51125 
 C                    -1.95649   1.26758  -1.024 
 C                    -0.81177   1.28715   0.0093 
 H                    -0.11384  -2.08585  -0.30664 
 H                    -0.39553  -1.69127   2.11932 
 H                    -1.7754   -2.59387   1.46715 
 H                    -1.94596  -0.87647   1.85413 
 H                    -1.57406  -1.27555  -2.00977 
 H                    -2.58632  -2.14492  -0.86685 
 H                    -3.25814   0.05575   0.17064 
 H                    -5.26011  -1.23622  -0.3881 
 H                    -5.96007  -1.14003  -2.01107 
 H                    -4.53636  -2.14134  -1.72952 
 H                    -3.16661   0.8578   -3.58055 
 H                    -3.21016  -0.91368  -3.54821 
 H                    -4.67941   0.00241  -3.89207 
 H                    -5.21265   1.39202  -0.44411 
 H                    -5.92572   1.23983  -2.05696 
 H                    -4.47085   2.20968  -1.83133 
 H                    -1.52228   1.27523  -2.03295 
 H                    -2.52965   2.19454  -0.92401 
 H                    -0.12786   2.12531  -0.15486 
 H                    -1.24074   1.40793   1.01582 
 

 GradGradGradGradGradGradGradGradGradGradGradGradGradGradGradGradGradGrad
 Berny optimization.
 Initialization pass.
 Trust Radius=3.00D-01 FncErr=1.00D-07 GrdErr=1.00D-07 EigMax=2.50D+02 EigMin=1.00D-04
 Number of steps in this run=      2 maximum allowed number of steps=      2.
 GradGradGradGradGradGradGradGradGradGradGradGradGradGradGradGradGradGrad

                          Input orientation:                          
 ---------------------------------------------------------------------
 Center     Atomic      Atomic             Coordinates (Angstroms)
 Number     Number       Type             X           Y           Z
 ---------------------------------------------------------------------
      1          8           0        1.217395    0.000000    0.000000
      2          6           0        0.000000    0.000000    0.000000
      3          6           0       -0.807395   -1.298046    0.009295
      4          6           0       -1.259018   -1.627087    1.448637
      5          6           0       -1.986874   -1.236524   -0.992736
      6          6           0       -2.863274    0.029097   -0.857637
      7          6           0       -4.131339    0.028481   -1.783978
      8          6           0       -5.015412   -1.195399   -1.457181
      9          6           0       -3.767633   -0.008660   -3.282675
     10          6           0       -4.976196    1.292796   -1.511254
     11          6           0       -1.956491    1.267582   -1.023997
     12          6           0       -0.811771    1.287146    0.009295
     13          1           0       -0.113840   -2.085846   -0.306641
     14          1           0       -0.395532   -1.691272    2.119322
     15          1           0       -1.775404   -2.593867    1.467147
     16          1           0       -1.945959   -0.876474    1.854130
     17          1           0       -1.574061   -1.275550   -2.009775
     18          1           0       -2.586320   -2.144918   -0.866846
     19          1           0       -3.258139    0.055751    0.170641
     20          1           0       -5.260108   -1.236222   -0.388095
     21          1           0       -5.960068   -1.140029   -2.011066
     22          1           0       -4.536356   -2.141339   -1.729515
     23          1           0       -3.166614    0.857802   -3.580552
     24          1           0       -3.210157   -0.913681   -3.548211
     25          1           0       -4.679413    0.002406   -3.892065
     26          1           0       -5.212648    1.392021   -0.444106
     27          1           0       -5.925717    1.239829   -2.056958
     28          1           0       -4.470851    2.209676   -1.831331
     29          1           0       -1.522281    1.275229   -2.032954
     30          1           0       -2.529655    2.194539   -0.924007
     31          1           0       -0.127857    2.125307   -0.154864
     32          1           0       -1.240744    1.407933    1.015825
 ---------------------------------------------------------------------
                    Distance matrix (angstroms):
                    1          2          3          4          5
     1  O    0.000000
     2  C    1.217395   0.000000
     3  C    2.405158   1.528691   0.000000
     4  C    3.298270   2.516165   1.544000   0.000000
     5  C    3.575172   2.542083   1.548878   2.577327   0.000000
     6  C    4.169922   2.989101   2.596058   3.261209   1.545356
     7  C    5.638470   4.500150   4.003012   4.630436   2.612476
     8  C    6.511547   5.357865   4.457409   4.768714   3.064220
     9  C    5.968797   4.997108   4.611138   5.594441   3.150012
    10  C    6.505058   5.358893   5.138427   5.577104   3.949983
    11  C    3.567756   2.546211   2.995089   3.870335   2.504485
    12  C    2.402987   1.521776   2.585196   3.280928   2.958689
    13  H    2.493385   2.111336   1.096113   2.145435   2.168025
    14  H    3.154910   2.740141   2.185514   1.095238   3.524779
    15  H    4.223448   3.468822   2.177505   1.096203   2.817468
    16  H    3.769988   2.827147   2.208499   1.095323   2.869836
    17  H    3.668576   2.853750   2.159844   3.490479   1.098320
    18  H    4.452004   3.470035   2.156244   2.718702   1.095611
    19  H    4.479133   3.263081   2.804451   2.908901   2.153958
    20  H    6.605824   5.417342   4.470838   4.419851   3.328611
    21  H    7.540559   6.392688   5.536864   5.857187   4.102752
    22  H    6.378260   5.306136   4.199971   4.594132   2.803817
    23  H    5.725008   4.856297   4.806308   5.925060   3.531965
    24  H    5.746985   4.871316   4.310087   5.411505   2.851509
    25  H    7.065446   6.086467   5.648390   6.548087   4.146182
    26  H    6.593967   5.413562   5.181533   5.322469   4.197125
    27  H    7.536067   6.393933   6.075149   6.502806   4.772775
    28  H    6.371231   5.312716   5.395640   5.982877   4.330090
    29  H    3.642106   2.841910   3.362081   4.540289   2.758043
    30  H    4.439614   3.474039   4.004420   4.674268   3.474410
    31  H    2.520043   2.134774   3.494004   4.234525   3.931906
    32  H    3.009422   2.133922   2.919455   3.065780   3.403554
                    6          7          8          9         10
     6  C    0.000000
     7  C    1.570381   0.000000
     8  C    2.547654   1.544754   0.000000
     9  C    2.588455   1.542645   2.509528   0.000000
    10  C    2.547271   1.544880   2.489091   2.508455   0.000000
    11  C    1.543948   2.615895   3.951066   3.163962   3.058868
    12  C    2.557914   3.977386   5.097468   4.610130   4.433344
    13  H    3.512260   4.774223   5.112929   5.149921   6.042253
    14  H    4.232222   5.670058   5.863493   6.586639   6.562639
    15  H    3.669880   4.795514   4.583128   5.763079   5.849965
    16  H    3.002533   4.339431   4.526371   5.518910   5.021342
    17  H    2.166009   2.879436   3.486356   2.834968   4.291788
    18  H    2.191604   2.819907   2.674055   3.434433   4.236112
    19  H    1.101810   2.140971   2.702441   3.491293   2.703844
    20  H    2.750694   2.195924   1.097491   3.480371   2.781730
    21  H    3.505337   2.182025   1.096462   2.775564   2.671414
    22  H    2.875790   2.207968   1.094743   2.748010   3.469060
    23  H    2.862348   2.201396   3.484594   1.095770   2.783128
    24  H    2.871993   2.201991   2.776818   1.095606   3.483766
    25  H    3.536499   2.178324   2.734281   1.096732   2.724233
    26  H    2.747386   2.196299   2.785671   3.479576   1.097524
    27  H    3.504683   2.182126   2.668094   2.778207   1.096444
    28  H    2.878769   2.207968   3.468583   2.742614   1.094756
    29  H    2.175426   2.902336   4.317115   2.872591   3.493137
    30  H    2.191996   2.827852   4.237327   3.456876   2.672744
    31  H    3.517171   4.804015   6.050728   5.252141   5.102868
    32  H    2.836133   4.254095   5.209723   5.183532   4.511428
                   11         12         13         14         15
    11  C    0.000000
    12  C    1.542225   0.000000
    13  H    3.892999   3.458901   0.000000
    14  H    4.590410   3.673750   2.473931   0.000000
    15  H    4.598845   4.256311   2.482983   1.773149   0.000000
    16  H    3.588970   3.061217   3.080288   1.771453   1.768695
    17  H    2.754184   3.350394   2.385265   4.314070   3.723907
    18  H    3.473692   3.961781   2.535838   3.731293   2.511307
    19  H    2.142424   2.743553   3.834169   3.878655   3.301501
    20  H    4.193720   5.129621   5.216567   5.491658   4.174720
    21  H    4.774885   6.039702   6.162631   6.951837   5.632320
    22  H    4.332921   5.352616   4.646106   5.671202   4.248092
    23  H    2.858022   4.314699   5.357517   6.831196   6.271264
    24  H    3.563880   4.822006   4.633457   6.375554   5.480452
    25  H    4.152203   5.641792   6.169321   7.573437   6.625334
    26  H    3.309731   4.425414   6.173516   6.267573   5.599539
    27  H    4.101528   5.515803   6.921101   7.524335   6.658952
    28  H    2.803807   4.198551   6.305532   6.887182   6.420235
    29  H    1.098449   2.162348   4.032454   5.226001   5.223474
    30  H    1.094424   2.155352   4.953685   5.377347   5.405122
    31  H    2.198860   1.094167   4.213911   4.450825   5.255086
    32  H    2.166302   1.100777   3.901964   3.396640   4.062506
                   16         17         18         19         20
    16  H    0.000000
    17  H    3.902221   0.000000
    18  H    3.069645   1.756917   0.000000
    19  H    2.329162   3.059852   2.524017   0.000000
    20  H    4.017533   4.027199   2.864275   2.447296   0.000000
    21  H    5.578734   4.388100   3.701515   3.672895   1.770094
    22  H    4.599190   3.098924   2.132335   3.173584   1.772699
    23  H    5.833822   3.091077   4.088676   3.837071   4.354243
    24  H    5.548411   2.274763   3.015764   3.843431   3.780564
    25  H    6.423625   3.849597   4.259576   4.304468   3.761544
    26  H    4.593388   4.775622   4.425635   2.446147   2.629268
    27  H    5.967732   5.026556   4.901474   3.671541   3.059243
    28  H    5.429735   4.535420   4.841919   3.180873   3.818386
    29  H    4.463043   2.551410   3.766881   3.058784   4.794194
    30  H    4.182089   3.759464   4.340203   2.510649   4.417318
    31  H    4.043790   4.134976   4.978532   3.766654   6.139566
    32  H    2.533495   4.057886   4.240021   2.571500   5.011770
                   21         22         23         24         25
    21  H    0.000000
    22  H    1.763193   0.000000
    23  H    3.775977   3.781187   0.000000
    24  H    3.158490   2.563904   1.772313   0.000000
    25  H    2.546251   3.048398   1.765589   1.765266   0.000000
    26  H    3.070061   3.820246   3.782716   4.354503   3.755501
    27  H    2.380548   3.670128   3.174891   3.773024   2.540100
    28  H    3.670231   4.352699   2.566782   3.780527   3.026907
    29  H    5.052515   4.566143   2.296331   3.152183   3.878641
    30  H    4.905994   4.845155   3.041351   4.124386   4.270395
    31  H    6.937045   6.333929   4.751416   5.500075   6.260195
    32  H    6.158425   5.567341   5.013811   5.486247   6.155269
                   26         27         28         29         30
    26  H    0.000000
    27  H    1.770006   0.000000
    28  H    1.772912   1.762993   0.000000
    29  H    4.019563   4.403644   3.099663   0.000000
    30  H    2.841266   3.705170   2.142827   1.757753   0.000000
    31  H    5.145529   6.165810   4.656099   2.488830   2.522897
    32  H    4.231746   5.605286   4.379804   3.064625   2.458249
                   31         32
    31  H    0.000000
    32  H    1.767387   0.000000
 Stoichiometry    C11H20O
 Framework group  C1[X(C11H20O)]
 Deg. of freedom    90
 Full point group                 C1      NOp   1
 Largest Abelian subgroup         C1      NOp   1
 Largest concise Abelian subgroup C1      NOp   1
                         Standard orientation:                         
 ---------------------------------------------------------------------
 Center     Atomic      Atomic             Coordinates (Angstroms)
 Number     Number       Type             X           Y           Z
 ---------------------------------------------------------------------
      1          8           0        3.453110   -0.774332    0.664109
      2          6           0        2.380030   -0.458204    0.183889
      3          6           0        1.790686    0.939438    0.374070
      4          6           0        2.089552    1.810187   -0.865451
      5          6           0        0.281062    0.874135    0.714355
      6          6           0       -0.543921   -0.011211   -0.246733
      7          6           0       -2.090902    0.027044    0.020630
      8          6           0       -2.607439    1.476830   -0.111939
      9          6           0       -2.461473   -0.505252    1.420306
     10          6           0       -2.824184   -0.821979   -1.041496
     11          6           0        0.065656   -1.429725   -0.243912
     12          6           0        1.551755   -1.419584   -0.656060
     13          1           0        2.327245    1.379112    1.222747
     14          1           0        3.167328    1.855676   -1.054858
     15          1           0        1.730868    2.832731   -0.699890
     16          1           0        1.603706    1.430936   -1.770909
     17          1           0        0.177162    0.482423    1.735175
     18          1           0       -0.106382    1.898745    0.734979
     19          1           0       -0.417868    0.390673   -1.264861
     20          1           0       -2.323971    1.914167   -1.077791
     21          1           0       -3.701833    1.497233   -0.047794
     22          1           0       -2.225365    2.130304    0.678917
     23          1           0       -2.148534   -1.546126    1.559448
     24          1           0       -2.010845    0.092641    2.220187
     25          1           0       -3.548583   -0.470411    1.561021
     26          1           0       -2.547082   -0.515250   -2.058202
     27          1           0       -3.909224   -0.698831   -0.942950
     28          1           0       -2.610449   -1.891026   -0.941762
     29          1           0       -0.019881   -1.867059    0.760087
     30          1           0       -0.477513   -2.095682   -0.921579
     31          1           0        2.002305   -2.414055   -0.583725
     32          1           0        1.629106   -1.101628   -1.707074
 ---------------------------------------------------------------------
 Rotational constants (GHZ):           1.6247555           0.5682542           0.5070737
 Standard basis: 6-31G(d) (6D, 7F)
 There are   220 symmetry adapted cartesian basis functions of A   symmetry.
 There are   220 symmetry adapted basis functions of A   symmetry.
   220 basis functions,   416 primitive gaussians,   220 cartesian basis functions
    47 alpha electrons       47 beta electrons
       nuclear repulsion energy       768.2570412260 Hartrees.
 NAtoms=   32 NActive=   32 NUniq=   32 SFac= 1.00D+00 NAtFMM=   60 NAOKFM=F Big=F
 Integral buffers will be    131072 words long.
 Raffenetti 2 integral format.
 Two-electron integral symmetry is turned on.
 One-electron integrals computed using PRISM.
 NBasis=   220 RedAO= T EigKep=  2.71D-03  NBF=   220
 NBsUse=   220 1.00D-06 EigRej= -1.00D+00 NBFU=   220
 ExpMin= 1.61D-01 ExpMax= 5.48D+03 ExpMxC= 8.25D+02 IAcc=3 IRadAn=         5 AccDes= 0.00D+00
 Harris functional with IExCor=  402 and IRadAn=       5 diagonalized for initial guess.
 HarFok:  IExCor=  402 AccDes= 0.00D+00 IRadAn=         5 IDoV= 1 UseB2=F ITyADJ=14
 ICtDFT=  3500011 ScaDFX=  1.000000  1.000000  1.000000  1.000000
 FoFCou: FMM=F IPFlag=           0 FMFlag=      100000 FMFlg1=           0
         NFxFlg=           0 DoJE=T BraDBF=F KetDBF=T FulRan=T
         wScrn=  0.000000 ICntrl=       500 IOpCl=  0 I1Cent=   200000004 NGrid=           0
         NMat0=    1 NMatS0=      1 NMatT0=    0 NMatD0=    1 NMtDS0=    0 NMtDT0=    0
 Petite list used in FoFCou.
 Requested convergence on RMS density matrix=1.00D-08 within 128 cycles.
 Requested convergence on MAX density matrix=1.00D-06.
 Requested convergence on             energy=1.00D-06.
 No special actions if energy rises.
 Integral accuracy reduced to 1.0D-05 until final iterations.
 Initial convergence to 1.0D-05 achieved.  Increase integral accuracy.
 SCF Done:  E(RB3LYP) =  -506.452055937     A.U. after   14 cycles
            NFock= 14  Conv=0.26D-08     -V/T= 2.0098
 DoSCS=F DFT=T ScalE2(SS,OS)=  1.000000  1.000000
 Range of M.O.s used for correlation:     1   220
 NBasis=   220 NAE=    47 NBE=    47 NFC=     0 NFV=     0
 NROrb=    220 NOA=    47 NOB=    47 NVA=   173 NVB=   173
 Symmetrizing basis deriv contribution to polar:
 IMax=3 JMax=2 DiffMx= 0.00D+00
 G2DrvN: will do    33 centers at a time, making    1 passes.
 Calling FoFCou, ICntrl=  3107 FMM=F I1Cent=   0 AccDes= 0.00D+00.
 End of G2Drv F.D. properties file   721 does not exist.
 End of G2Drv F.D. properties file   722 does not exist.
 End of G2Drv F.D. properties file   788 does not exist.
          IDoAtm=11111111111111111111111111111111
          Differentiating once with respect to electric field.
                with respect to dipole field.
          Differentiating once with respect to nuclear coordinates.
 Keep R1 ints in memory in canonical form, NReq=306010873.
          There are    99 degrees of freedom in the 1st order CPHF.  IDoFFX=6 NUNeed=     3.
     96 vectors produced by pass  0 Test12= 8.21D-15 1.01D-09 XBig12= 8.21D+01 2.46D+00.
 AX will form    96 AO Fock derivatives at one time.
     96 vectors produced by pass  1 Test12= 8.21D-15 1.01D-09 XBig12= 1.15D+01 1.07D+00.
     96 vectors produced by pass  2 Test12= 8.21D-15 1.01D-09 XBig12= 8.92D-02 3.58D-02.
     96 vectors produced by pass  3 Test12= 8.21D-15 1.01D-09 XBig12= 2.66D-04 2.18D-03.
     96 vectors produced by pass  4 Test12= 8.21D-15 1.01D-09 XBig12= 2.66D-07 5.60D-05.
     44 vectors produced by pass  5 Test12= 8.21D-15 1.01D-09 XBig12= 1.46D-10 9.04D-07.
      4 vectors produced by pass  6 Test12= 8.21D-15 1.01D-09 XBig12= 7.97D-14 2.31D-08.
 InvSVY:  IOpt=1 It=  1 EMax= 1.95D-14
 Solved reduced A of dimension   528 with    99 vectors.
 Isotropic polarizability for W=    0.000000      113.73 Bohr**3.
 End of Minotr F.D. properties file   721 does not exist.
 End of Minotr F.D. properties file   722 does not exist.
 End of Minotr F.D. properties file   788 does not exist.

 **********************************************************************

            Population analysis using the SCF density.

 **********************************************************************

 Orbital symmetries:
       Occupied  (A) (A) (A) (A) (A) (A) (A) (A) (A) (A) (A) (A)
                 (A) (A) (A) (A) (A) (A) (A) (A) (A) (A) (A) (A)
                 (A) (A) (A) (A) (A) (A) (A) (A) (A) (A) (A) (A)
                 (A) (A) (A) (A) (A) (A) (A) (A) (A) (A) (A)
       Virtual   (A) (A) (A) (A) (A) (A) (A) (A) (A) (A) (A) (A)
                 (A) (A) (A) (A) (A) (A) (A) (A) (A) (A) (A) (A)
                 (A) (A) (A) (A) (A) (A) (A) (A) (A) (A) (A) (A)
                 (A) (A) (A) (A) (A) (A) (A) (A) (A) (A) (A) (A)
                 (A) (A) (A) (A) (A) (A) (A) (A) (A) (A) (A) (A)
                 (A) (A) (A) (A) (A) (A) (A) (A) (A) (A) (A) (A)
                 (A) (A) (A) (A) (A) (A) (A) (A) (A) (A) (A) (A)
                 (A) (A) (A) (A) (A) (A) (A) (A) (A) (A) (A) (A)
                 (A) (A) (A) (A) (A) (A) (A) (A) (A) (A) (A) (A)
                 (A) (A) (A) (A) (A) (A) (A) (A) (A) (A) (A) (A)
                 (A) (A) (A) (A) (A) (A) (A) (A) (A) (A) (A) (A)
                 (A) (A) (A) (A) (A) (A) (A) (A) (A) (A) (A) (A)
                 (A) (A) (A) (A) (A) (A) (A) (A) (A) (A) (A) (A)
                 (A) (A) (A) (A) (A) (A) (A) (A) (A) (A) (A) (A)
                 (A) (A) (A) (A) (A)
 The electronic state is 1-A.
 Alpha  occ. eigenvalues --  -19.12982 -10.26393 -10.20200 -10.19380 -10.19300
 Alpha  occ. eigenvalues --  -10.18924 -10.18842 -10.18662 -10.18585 -10.17511
 Alpha  occ. eigenvalues --  -10.17503 -10.17482  -1.02852  -0.84528  -0.80445
 Alpha  occ. eigenvalues --   -0.76788  -0.72214  -0.68739  -0.68621  -0.67005
 Alpha  occ. eigenvalues --   -0.61297  -0.60078  -0.53720  -0.51603  -0.47651
 Alpha  occ. eigenvalues --   -0.45984  -0.45043  -0.44366  -0.43778  -0.43546
 Alpha  occ. eigenvalues --   -0.42128  -0.41497  -0.40598  -0.39877  -0.37728
 Alpha  occ. eigenvalues --   -0.37570  -0.37290  -0.36825  -0.35984  -0.34778
 Alpha  occ. eigenvalues --   -0.34487  -0.33869  -0.33042  -0.31204  -0.30406
 Alpha  occ. eigenvalues --   -0.30178  -0.23055
 Alpha virt. eigenvalues --   -0.01040   0.07035   0.08943   0.10121   0.11530
 Alpha virt. eigenvalues --    0.11759   0.12597   0.13970   0.14647   0.15266
 Alpha virt. eigenvalues --    0.15477   0.16166   0.16820   0.17294   0.17987
 Alpha virt. eigenvalues --    0.18297   0.19441   0.19746   0.20208   0.20806
 Alpha virt. eigenvalues --    0.21225   0.22788   0.23676   0.23934   0.24294
 Alpha virt. eigenvalues --    0.25746   0.26947   0.27715   0.28111   0.29062
 Alpha virt. eigenvalues --    0.29918   0.33551   0.37222   0.48974   0.49298
 Alpha virt. eigenvalues --    0.50421   0.50980   0.51869   0.52768   0.54806
 Alpha virt. eigenvalues --    0.55446   0.56944   0.58965   0.60694   0.62880
 Alpha virt. eigenvalues --    0.64539   0.65507   0.67126   0.67419   0.68572
 Alpha virt. eigenvalues --    0.70201   0.70631   0.71393   0.72827   0.74745
 Alpha virt. eigenvalues --    0.74876   0.77206   0.79372   0.82340   0.83505
 Alpha virt. eigenvalues --    0.84677   0.85525   0.85979   0.87218   0.88395
 Alpha virt. eigenvalues --    0.88815   0.89182   0.89866   0.91111   0.91752
 Alpha virt. eigenvalues --    0.92056   0.92385   0.92440   0.92912   0.94432
 Alpha virt. eigenvalues --    0.95449   0.95676   0.96916   0.98203   0.99171
 Alpha virt. eigenvalues --    1.00393   1.01733   1.02409   1.03551   1.03979
 Alpha virt. eigenvalues --    1.06237   1.08306   1.11090   1.13546   1.21278
 Alpha virt. eigenvalues --    1.22415   1.30293   1.32022   1.36975   1.40165
 Alpha virt. eigenvalues --    1.42150   1.47424   1.49078   1.51053   1.52077
 Alpha virt. eigenvalues --    1.58747   1.62049   1.66223   1.66327   1.68603
 Alpha virt. eigenvalues --    1.69622   1.71350   1.74244   1.76574   1.79971
 Alpha virt. eigenvalues --    1.80820   1.83135   1.83688   1.85891   1.86651
 Alpha virt. eigenvalues --    1.88006   1.88540   1.91863   1.92544   1.95619
 Alpha virt. eigenvalues --    1.96809   1.97752   2.00299   2.03235   2.04228
 Alpha virt. eigenvalues --    2.05229   2.07238   2.08773   2.09358   2.11704
 Alpha virt. eigenvalues --    2.13975   2.16963   2.19322   2.19905   2.25494
 Alpha virt. eigenvalues --    2.26271   2.26756   2.28523   2.29421   2.29839
 Alpha virt. eigenvalues --    2.33869   2.34739   2.37871   2.40642   2.43501
 Alpha virt. eigenvalues --    2.44728   2.47380   2.52115   2.53604   2.59037
 Alpha virt. eigenvalues --    2.62304   2.64397   2.67560   2.69587   2.74081
 Alpha virt. eigenvalues --    2.78052   2.79496   2.81691   2.85472   2.99040
 Alpha virt. eigenvalues --    3.03029   4.04582   4.10011   4.19156   4.23979
 Alpha virt. eigenvalues --    4.30833   4.31079   4.34023   4.38544   4.58032
 Alpha virt. eigenvalues --    4.60684   4.67468   4.71513
          Condensed to atoms (all electrons):
               1          2          3          4          5          6
     1  O    8.016836   0.576263  -0.076481  -0.001092   0.002445   0.000114
     2  C    0.576263   4.498315   0.333833  -0.037340  -0.022579  -0.016584
     3  C   -0.076481   0.333833   5.199626   0.350317   0.317583  -0.028413
     4  C   -0.001092  -0.037340   0.350317   5.119986  -0.043985  -0.004372
     5  C    0.002445  -0.022579   0.317583  -0.043985   5.133423   0.372332
     6  C    0.000114  -0.016584  -0.028413  -0.004372   0.372332   4.968726
     7  C    0.000001   0.000275   0.003243   0.000082  -0.033140   0.382071
     8  C   -0.000000  -0.000009   0.000160  -0.000008  -0.006900  -0.050147
     9  C   -0.000000  -0.000025   0.000146  -0.000002  -0.007627  -0.051233
    10  C   -0.000000  -0.000008  -0.000109  -0.000001   0.004352  -0.050571
    11  C    0.001481  -0.021379  -0.000909  -0.001464  -0.050422   0.372576
    12  C   -0.079038   0.325689  -0.134540   0.002031  -0.003866  -0.032492
    13  H    0.004498  -0.033994   0.349302  -0.035297  -0.035040   0.003848
    14  H    0.002185   0.000024  -0.034973   0.371710   0.004963   0.000061
    15  H   -0.000077   0.003687  -0.027575   0.370535  -0.005091  -0.000237
    16  H   -0.000037  -0.005841  -0.035199   0.372420  -0.005155   0.002120
    17  H    0.000221  -0.001558  -0.037175   0.005298   0.366450  -0.038124
    18  H   -0.000083   0.003253  -0.029225  -0.008242   0.359185  -0.032728
    19  H   -0.000010  -0.001764  -0.003426   0.002608  -0.052043   0.365853
    20  H   -0.000000   0.000000  -0.000068   0.000019  -0.000538  -0.005409
    21  H   -0.000000   0.000000  -0.000000  -0.000000   0.000245   0.004891
    22  H   -0.000000  -0.000004  -0.000044   0.000001   0.000504  -0.005555
    23  H   -0.000000  -0.000003  -0.000009  -0.000000  -0.000049  -0.005690
    24  H   -0.000000  -0.000000  -0.000055   0.000000   0.001765  -0.005729
    25  H    0.000000   0.000000  -0.000000   0.000000   0.000087   0.005269
    26  H   -0.000000  -0.000001  -0.000000  -0.000002   0.000033  -0.005535
    27  H   -0.000000   0.000000   0.000001   0.000000  -0.000116   0.004912
    28  H   -0.000000  -0.000004  -0.000001  -0.000000  -0.000043  -0.005524
    29  H    0.000393  -0.002722   0.000368   0.000050  -0.007106  -0.037934
    30  H   -0.000068   0.002991  -0.000149  -0.000023   0.005379  -0.031414
    31  H    0.004705  -0.024204   0.006501  -0.000056  -0.000185   0.003500
    32  H    0.001160  -0.029093   0.002182   0.000903  -0.001276  -0.003994
               7          8          9         10         11         12
     1  O    0.000001  -0.000000  -0.000000  -0.000000   0.001481  -0.079038
     2  C    0.000275  -0.000009  -0.000025  -0.000008  -0.021379   0.325689
     3  C    0.003243   0.000160   0.000146  -0.000109  -0.000909  -0.134540
     4  C    0.000082  -0.000008  -0.000002  -0.000001  -0.001464   0.002031
     5  C   -0.033140  -0.006900  -0.007627   0.004352  -0.050422  -0.003866
     6  C    0.382071  -0.050147  -0.051233  -0.050571   0.372576  -0.032492
     7  C    4.752098   0.380587   0.382524   0.380585  -0.033633   0.003435
     8  C    0.380587   5.168856  -0.063796  -0.063336   0.004459  -0.000118
     9  C    0.382524  -0.063796   5.161438  -0.064003  -0.007623   0.000169
    10  C    0.380585  -0.063336  -0.064003   5.169673  -0.006815   0.000143
    11  C   -0.033633   0.004459  -0.007623  -0.006815   5.090804   0.318793
    12  C    0.003435  -0.000118   0.000169   0.000143   0.318793   5.321441
    13  H   -0.000102   0.000001  -0.000002   0.000002  -0.000189   0.007473
    14  H    0.000002   0.000000   0.000000  -0.000000  -0.000011   0.000520
    15  H   -0.000032  -0.000010   0.000001  -0.000000   0.000062  -0.000291
    16  H   -0.000124   0.000004   0.000000   0.000008  -0.000174   0.002541
    17  H   -0.006108  -0.000382   0.002835   0.000026  -0.007947   0.000484
    18  H   -0.006268   0.002962  -0.000394   0.000075   0.005655  -0.000300
    19  H   -0.040207  -0.007187   0.006298  -0.006913  -0.052540  -0.003006
    20  H   -0.029980   0.365333   0.005837  -0.004028   0.000033  -0.000003
    21  H   -0.028020   0.364879  -0.004113  -0.006941  -0.000119   0.000001
    22  H   -0.027299   0.366317  -0.005019   0.005735  -0.000047  -0.000001
    23  H   -0.028513   0.005628   0.367276  -0.004727   0.002002  -0.000055
    24  H   -0.028340  -0.004824   0.367323   0.005622  -0.000008  -0.000009
    25  H   -0.029654  -0.005129   0.367538  -0.005259   0.000060  -0.000001
    26  H   -0.029796  -0.004019   0.005866   0.364988  -0.000601  -0.000053
    27  H   -0.027962  -0.006996  -0.004084   0.364960   0.000243  -0.000000
    28  H   -0.027230   0.005735  -0.005068   0.366355   0.000593  -0.000060
    29  H   -0.005457   0.000013   0.002629  -0.000396   0.370683  -0.042234
    30  H   -0.006260   0.000072  -0.000279   0.003223   0.365461  -0.028177
    31  H   -0.000094   0.000001   0.000001  -0.000000  -0.025954   0.344436
    32  H    0.000011  -0.000004   0.000002  -0.000015  -0.035414   0.350772
              13         14         15         16         17         18
     1  O    0.004498   0.002185  -0.000077  -0.000037   0.000221  -0.000083
     2  C   -0.033994   0.000024   0.003687  -0.005841  -0.001558   0.003253
     3  C    0.349302  -0.034973  -0.027575  -0.035199  -0.037175  -0.029225
     4  C   -0.035297   0.371710   0.370535   0.372420   0.005298  -0.008242
     5  C   -0.035040   0.004963  -0.005091  -0.005155   0.366450   0.359185
     6  C    0.003848   0.000061  -0.000237   0.002120  -0.038124  -0.032728
     7  C   -0.000102   0.000002  -0.000032  -0.000124  -0.006108  -0.006268
     8  C    0.000001   0.000000  -0.000010   0.000004  -0.000382   0.002962
     9  C   -0.000002   0.000000   0.000001   0.000000   0.002835  -0.000394
    10  C    0.000002  -0.000000  -0.000000   0.000008   0.000026   0.000075
    11  C   -0.000189  -0.000011   0.000062  -0.000174  -0.007947   0.005655
    12  C    0.007473   0.000520  -0.000291   0.002541   0.000484  -0.000300
    13  H    0.599772  -0.002568  -0.005095   0.005288  -0.004324  -0.002064
    14  H   -0.002568   0.552816  -0.028483  -0.029957  -0.000161  -0.000044
    15  H   -0.005095  -0.028483   0.564351  -0.030649   0.000005   0.005796
    16  H    0.005288  -0.029957  -0.030649   0.571241  -0.000015  -0.000107
    17  H   -0.004324  -0.000161   0.000005  -0.000015   0.600427  -0.036716
    18  H   -0.002064  -0.000044   0.005796  -0.000107  -0.036716   0.600016
    19  H   -0.000017  -0.000131   0.000256   0.003502   0.006327  -0.003587
    20  H    0.000000   0.000000   0.000024   0.000012   0.000070   0.000498
    21  H   -0.000000   0.000000   0.000000  -0.000000  -0.000032  -0.000108
    22  H    0.000004  -0.000000  -0.000008   0.000002   0.000303   0.003747
    23  H    0.000000  -0.000000   0.000000  -0.000000   0.000071   0.000032
    24  H    0.000005  -0.000000   0.000000  -0.000000   0.003386   0.000248
    25  H   -0.000000  -0.000000  -0.000000  -0.000000  -0.000081  -0.000033
    26  H    0.000000   0.000000   0.000000  -0.000004   0.000004  -0.000009
    27  H   -0.000000   0.000000  -0.000000  -0.000000   0.000002  -0.000004
    28  H    0.000000  -0.000000  -0.000000   0.000000  -0.000003  -0.000002
    29  H   -0.000099  -0.000000   0.000002  -0.000003   0.005368   0.000018
    30  H    0.000019   0.000001  -0.000001   0.000015   0.000013  -0.000188
    31  H   -0.000193  -0.000027   0.000004  -0.000063  -0.000036   0.000019
    32  H   -0.000104  -0.000090   0.000028   0.001530   0.000077  -0.000012
              19         20         21         22         23         24
     1  O   -0.000010  -0.000000  -0.000000  -0.000000  -0.000000  -0.000000
     2  C   -0.001764   0.000000   0.000000  -0.000004  -0.000003  -0.000000
     3  C   -0.003426  -0.000068  -0.000000  -0.000044  -0.000009  -0.000055
     4  C    0.002608   0.000019  -0.000000   0.000001  -0.000000   0.000000
     5  C   -0.052043  -0.000538   0.000245   0.000504  -0.000049   0.001765
     6  C    0.365853  -0.005409   0.004891  -0.005555  -0.005690  -0.005729
     7  C   -0.040207  -0.029980  -0.028020  -0.027299  -0.028513  -0.028340
     8  C   -0.007187   0.365333   0.364879   0.366317   0.005628  -0.004824
     9  C    0.006298   0.005837  -0.004113  -0.005019   0.367276   0.367323
    10  C   -0.006913  -0.004028  -0.006941   0.005735  -0.004727   0.005622
    11  C   -0.052540   0.000033  -0.000119  -0.000047   0.002002  -0.000008
    12  C   -0.003006  -0.000003   0.000001  -0.000001  -0.000055  -0.000009
    13  H   -0.000017   0.000000  -0.000000   0.000004   0.000000   0.000005
    14  H   -0.000131   0.000000   0.000000  -0.000000  -0.000000  -0.000000
    15  H    0.000256   0.000024   0.000000  -0.000008   0.000000   0.000000
    16  H    0.003502   0.000012  -0.000000   0.000002  -0.000000  -0.000000
    17  H    0.006327   0.000070  -0.000032   0.000303   0.000071   0.003386
    18  H   -0.003587   0.000498  -0.000108   0.003747   0.000032   0.000248
    19  H    0.652602   0.006027  -0.000058  -0.000090  -0.000027  -0.000031
    20  H    0.006027   0.583561  -0.030218  -0.031459  -0.000192  -0.000034
    21  H   -0.000058  -0.030218   0.580815  -0.030214  -0.000080  -0.000156
    22  H   -0.000090  -0.031459  -0.030214   0.575046  -0.000017   0.003878
    23  H   -0.000027  -0.000192  -0.000080  -0.000017   0.574769  -0.030933
    24  H   -0.000031  -0.000034  -0.000156   0.003878  -0.030933   0.574296
    25  H   -0.000151  -0.000040   0.003934  -0.000132  -0.030499  -0.030522
    26  H    0.006273   0.003351  -0.000104  -0.000074  -0.000041  -0.000192
    27  H   -0.000078  -0.000102   0.005374   0.000023  -0.000161  -0.000082
    28  H   -0.000112  -0.000072   0.000019  -0.000195   0.003862  -0.000014
    29  H    0.006304   0.000003   0.000002  -0.000002   0.003296   0.000021
    30  H   -0.003770  -0.000009  -0.000003  -0.000002   0.000182   0.000023
    31  H    0.000035   0.000000  -0.000000   0.000000   0.000006   0.000000
    32  H    0.004682   0.000000   0.000000   0.000000   0.000000  -0.000000
              25         26         27         28         29         30
     1  O    0.000000  -0.000000  -0.000000  -0.000000   0.000393  -0.000068
     2  C    0.000000  -0.000001   0.000000  -0.000004  -0.002722   0.002991
     3  C   -0.000000  -0.000000   0.000001  -0.000001   0.000368  -0.000149
     4  C    0.000000  -0.000002   0.000000  -0.000000   0.000050  -0.000023
     5  C    0.000087   0.000033  -0.000116  -0.000043  -0.007106   0.005379
     6  C    0.005269  -0.005535   0.004912  -0.005524  -0.037934  -0.031414
     7  C   -0.029654  -0.029796  -0.027962  -0.027230  -0.005457  -0.006260
     8  C   -0.005129  -0.004019  -0.006996   0.005735   0.000013   0.000072
     9  C    0.367538   0.005866  -0.004084  -0.005068   0.002629  -0.000279
    10  C   -0.005259   0.364988   0.364960   0.366355  -0.000396   0.003223
    11  C    0.000060  -0.000601   0.000243   0.000593   0.370683   0.365461
    12  C   -0.000001  -0.000053  -0.000000  -0.000060  -0.042234  -0.028177
    13  H   -0.000000   0.000000  -0.000000   0.000000  -0.000099   0.000019
    14  H   -0.000000   0.000000   0.000000  -0.000000  -0.000000   0.000001
    15  H   -0.000000   0.000000  -0.000000  -0.000000   0.000002  -0.000001
    16  H   -0.000000  -0.000004  -0.000000   0.000000  -0.000003   0.000015
    17  H   -0.000081   0.000004   0.000002  -0.000003   0.005368   0.000013
    18  H   -0.000033  -0.000009  -0.000004  -0.000002   0.000018  -0.000188
    19  H   -0.000151   0.006273  -0.000078  -0.000112   0.006304  -0.003770
    20  H   -0.000040   0.003351  -0.000102  -0.000072   0.000003  -0.000009
    21  H    0.003934  -0.000104   0.005374   0.000019   0.000002  -0.000003
    22  H   -0.000132  -0.000074   0.000023  -0.000195  -0.000002  -0.000002
    23  H   -0.030499  -0.000041  -0.000161   0.003862   0.003296   0.000182
    24  H   -0.030522  -0.000192  -0.000082  -0.000014   0.000021   0.000023
    25  H    0.580227  -0.000033   0.003975  -0.000125  -0.000076  -0.000032
    26  H   -0.000033   0.583970  -0.030171  -0.031575   0.000080   0.000529
    27  H    0.003975  -0.030171   0.580469  -0.030251  -0.000030  -0.000108
    28  H   -0.000125  -0.031575  -0.030251   0.575313   0.000302   0.003550
    29  H   -0.000076   0.000080  -0.000030   0.000302   0.598081  -0.037663
    30  H   -0.000032   0.000529  -0.000108   0.003550  -0.037663   0.591382
    31  H   -0.000000   0.000000  -0.000000   0.000003  -0.002923  -0.002388
    32  H    0.000000   0.000016  -0.000000   0.000006   0.005580  -0.006193
              31         32
     1  O    0.004705   0.001160
     2  C   -0.024204  -0.029093
     3  C    0.006501   0.002182
     4  C   -0.000056   0.000903
     5  C   -0.000185  -0.001276
     6  C    0.003500  -0.003994
     7  C   -0.000094   0.000011
     8  C    0.000001  -0.000004
     9  C    0.000001   0.000002
    10  C   -0.000000  -0.000015
    11  C   -0.025954  -0.035414
    12  C    0.344436   0.350772
    13  H   -0.000193  -0.000104
    14  H   -0.000027  -0.000090
    15  H    0.000004   0.000028
    16  H   -0.000063   0.001530
    17  H   -0.000036   0.000077
    18  H    0.000019  -0.000012
    19  H    0.000035   0.004682
    20  H    0.000000   0.000000
    21  H   -0.000000   0.000000
    22  H    0.000000   0.000000
    23  H    0.000006   0.000000
    24  H    0.000000  -0.000000
    25  H   -0.000000   0.000000
    26  H    0.000000   0.000016
    27  H   -0.000000  -0.000000
    28  H    0.000003   0.000006
    29  H   -0.002923   0.005580
    30  H   -0.002388  -0.006193
    31  H    0.561614  -0.026889
    32  H   -0.026889   0.579960
 Mulliken charges:
               1
     1  O   -0.453417
     2  C    0.452782
     3  C   -0.154909
     4  C   -0.464074
     5  C   -0.293584
     6  C   -0.074586
     7  C    0.103305
     8  C   -0.452145
     9  C   -0.456616
    10  C   -0.452623
    11  C   -0.287655
    12  C   -0.353685
    13  H    0.148877
    14  H    0.164163
    15  H    0.152799
    16  H    0.148644
    17  H    0.141296
    18  H    0.138611
    19  H    0.114382
    20  H    0.137382
    21  H    0.140005
    22  H    0.144603
    23  H    0.143872
    24  H    0.144363
    25  H    0.140680
    26  H    0.137101
    27  H    0.140185
    28  H    0.144540
    29  H    0.143453
    30  H    0.143888
    31  H    0.162187
    32  H    0.156176
 Sum of Mulliken charges =  -0.00000
 Mulliken charges with hydrogens summed into heavy atoms:
               1
     1  O   -0.453417
     2  C    0.452782
     3  C   -0.006033
     4  C    0.001532
     5  C   -0.013678
     6  C    0.039797
     7  C    0.103305
     8  C   -0.030155
     9  C   -0.027701
    10  C   -0.030797
    11  C   -0.000314
    12  C   -0.035321
 APT charges:
               1
     1  O   -0.646755
     2  C    0.704086
     3  C   -0.017471
     4  C    0.065148
     5  C    0.082377
     6  C    0.065284
     7  C    0.143584
     8  C    0.034270
     9  C    0.027707
    10  C    0.035698
    11  C    0.104001
    12  C   -0.039121
    13  H   -0.059707
    14  H   -0.012064
    15  H   -0.019716
    16  H   -0.009667
    17  H   -0.036788
    18  H   -0.035815
    19  H   -0.061941
    20  H   -0.024589
    21  H   -0.032208
    22  H   -0.017623
    23  H   -0.018252
    24  H   -0.017864
    25  H   -0.027044
    26  H   -0.024833
    27  H   -0.032431
    28  H   -0.017993
    29  H   -0.033081
    30  H   -0.037087
    31  H   -0.032110
    32  H   -0.007998
 Sum of APT charges =   0.00000
 APT charges with hydrogens summed into heavy atoms:
               1
     1  O   -0.646755
     2  C    0.704086
     3  C   -0.077178
     4  C    0.023701
     5  C    0.009774
     6  C    0.003343
     7  C    0.143584
     8  C   -0.040149
     9  C   -0.035453
    10  C   -0.039558
    11  C    0.033834
    12  C   -0.079229
 Electronic spatial extent (au):  <R**2>=           2474.2794
 Charge=             -0.0000 electrons
 Dipole moment (field-independent basis, Debye):
    X=             -2.7817    Y=              0.8614    Z=             -1.1159  Tot=              3.1185
 Quadrupole moment (field-independent basis, Debye-Ang):
   XX=            -89.3899   YY=            -75.2858   ZZ=            -75.9954
   XY=              4.1683   XZ=             -4.4059   YZ=              1.2251
 Traceless Quadrupole moment (field-independent basis, Debye-Ang):
   XX=             -9.1662   YY=              4.9379   ZZ=              4.2283
   XY=              4.1683   XZ=             -4.4059   YZ=              1.2251
 Octapole moment (field-independent basis, Debye-Ang**2):
  XXX=            -45.7355  YYY=             -3.9342  ZZZ=              1.1941  XYY=              5.5530
  XXY=             15.5682  XXZ=            -14.4285  XZZ=              4.9291  YZZ=             -0.0731
  YYZ=              0.8295  XYZ=              3.6958
 Hexadecapole moment (field-independent basis, Debye-Ang**3):
 XXXX=          -2382.2126 YYYY=           -698.0180 ZZZZ=           -400.4228 XXXY=             51.7208
 XXXZ=            -55.6116 YYYX=             -4.8634 YYYZ=              2.0834 ZZZX=              9.1878
 ZZZY=              0.0115 XXYY=           -496.4784 XXZZ=           -445.7533 YYZZ=           -186.5615
 XXYZ=             11.4132 YYXZ=             -0.0002 ZZXY=             -4.1286
 N-N= 7.682570412260D+02 E-N=-2.709955444619D+03  KE= 5.015131384037D+02
  Exact polarizability: 131.330  -1.074 110.239   2.328   0.493  99.631
 Approx polarizability: 170.470  -4.733 155.796   7.902  -1.487 153.903
 Calling FoFJK, ICntrl=    100127 FMM=F ISym2X=0 I1Cent= 0 IOpClX= 0 NMat=1 NMatS=1 NMatT=0.
 Full mass-weighted force constant matrix:
 Low frequencies ---   -7.8184    0.0004    0.0005    0.0007    4.0873    5.9706
 Low frequencies ---   34.0450   57.3044  115.5016
 Diagonal vibrational polarizability:
        7.1036254       9.6301939      24.0731188
 Harmonic frequencies (cm**-1), IR intensities (KM/Mole), Raman scattering
 activities (A**4/AMU), depolarization ratios for plane and unpolarized
 incident light, reduced masses (AMU), force constants (mDyne/A),
 and normal coordinates:
                      1                      2                      3
                      A                      A                      A
 Frequencies --     34.0210                57.3026               115.5000
 Red. masses --      2.5657                 5.3585                 2.6433
 Frc consts  --      0.0017                 0.0104                 0.0208
 IR Inten    --      0.1332                 3.2603                 0.2979
  Atom  AN      X      Y      Z        X      Y      Z        X      Y      Z
     1   8    -0.01   0.03   0.06    -0.20  -0.13   0.33     0.01  -0.01  -0.07
     2   6    -0.00   0.01   0.03    -0.03   0.00   0.04    -0.02  -0.01  -0.00
     3   6     0.00   0.03  -0.07     0.03   0.04  -0.07     0.01  -0.00   0.03
     4   6     0.01  -0.06  -0.13     0.04  -0.03  -0.10     0.25   0.03   0.11
     5   6     0.00   0.06  -0.06     0.02   0.04  -0.08    -0.04   0.12  -0.14
     6   6    -0.00  -0.01  -0.00     0.00   0.05  -0.08    -0.03   0.02  -0.05
     7   6     0.00  -0.01   0.00     0.02  -0.01   0.03    -0.03  -0.02  -0.00
     8   6     0.02   0.01   0.17    -0.05  -0.04   0.06    -0.09  -0.05   0.02
     9   6    -0.01  -0.17  -0.06     0.14  -0.02   0.06     0.03  -0.04   0.01
    10   6    -0.00   0.13  -0.10    -0.02  -0.05   0.09    -0.04  -0.05   0.03
    11   6     0.00  -0.00   0.09     0.03   0.06  -0.20    -0.02   0.02   0.06
    12   6     0.00  -0.03   0.07     0.05   0.11  -0.15    -0.04   0.00   0.00
    13   1     0.01   0.08  -0.10     0.01   0.07  -0.07    -0.05  -0.08   0.11
    14   1     0.01  -0.08  -0.13     0.04  -0.04  -0.10     0.27  -0.12   0.21
    15   1     0.01  -0.05  -0.20     0.05  -0.01  -0.15     0.39   0.07   0.14
    16   1     0.00  -0.12  -0.10     0.04  -0.06  -0.09     0.27   0.15   0.05
    17   1    -0.01   0.15  -0.03     0.02   0.04  -0.08    -0.16   0.29  -0.08
    18   1     0.01   0.07  -0.15     0.02   0.04  -0.07     0.01   0.14  -0.33
    19   1    -0.01  -0.06  -0.02    -0.07   0.11  -0.07    -0.06  -0.06  -0.09
    20   1     0.10   0.16   0.26    -0.17  -0.04   0.03    -0.14  -0.03   0.01
    21   1     0.01   0.01   0.08    -0.05  -0.08   0.18    -0.09  -0.09   0.05
    22   1    -0.05  -0.11   0.30     0.00  -0.01   0.01    -0.09  -0.03   0.01
    23   1    -0.12  -0.22  -0.22     0.23   0.01   0.06     0.04  -0.04  -0.01
    24   1     0.08  -0.32   0.01     0.14   0.03   0.03     0.05  -0.04  -0.00
    25   1    -0.00  -0.07  -0.02     0.15  -0.10   0.12     0.04  -0.05   0.05
    26   1    -0.05   0.30  -0.06    -0.09  -0.07   0.07    -0.11  -0.04   0.02
    27   1    -0.01   0.06  -0.04    -0.02  -0.08   0.16    -0.04  -0.11   0.09
    28   1     0.04   0.12  -0.28     0.01  -0.04   0.11     0.01  -0.05   0.01
    29   1     0.02   0.07   0.12     0.01  -0.04  -0.25     0.02   0.12   0.10
    30   1    -0.00  -0.05   0.14     0.06   0.13  -0.28    -0.04  -0.04   0.14
    31   1    -0.00  -0.03   0.13     0.03   0.09  -0.24    -0.05   0.00  -0.02
    32   1    -0.00  -0.09   0.06     0.09   0.23  -0.11    -0.07   0.02   0.01
                      4                      5                      6
                      A                      A                      A
 Frequencies --    158.4867               180.7847               221.2571
 Red. masses --      2.5618                 2.0132                 1.0765
 Frc consts  --      0.0379                 0.0388                 0.0310
 IR Inten    --      0.9832                 0.0873                 0.1220
  Atom  AN      X      Y      Z        X      Y      Z        X      Y      Z
     1   8    -0.10  -0.11   0.02    -0.03   0.03   0.05    -0.00  -0.02  -0.01
     2   6    -0.02  -0.00  -0.09    -0.01   0.02  -0.02     0.01   0.01  -0.01
     3   6     0.03   0.02  -0.04    -0.03   0.01  -0.02     0.00   0.00   0.01
     4   6    -0.02   0.08  -0.01    -0.02   0.11   0.06     0.03  -0.02  -0.00
     5   6     0.03   0.05   0.02    -0.03  -0.05  -0.07    -0.00  -0.00   0.00
     6   6     0.02  -0.02   0.09    -0.00  -0.10  -0.05    -0.01  -0.00   0.01
     7   6     0.02  -0.02   0.02     0.01  -0.02  -0.01    -0.01  -0.00   0.01
     8   6     0.04  -0.02  -0.04     0.13   0.03  -0.02    -0.00  -0.00  -0.00
     9   6    -0.07  -0.01  -0.01     0.03   0.03   0.02    -0.03   0.00   0.00
    10   6     0.10  -0.03  -0.03    -0.11   0.02   0.05     0.00  -0.01   0.00
    11   6     0.04  -0.01   0.18     0.03  -0.09   0.01     0.01   0.01   0.02
    12   6    -0.05   0.07  -0.13     0.03  -0.02  -0.02    -0.01   0.03  -0.03
    13   1     0.08  -0.03  -0.04    -0.07  -0.03   0.03    -0.02   0.02   0.01
    14   1    -0.04  -0.01  -0.14    -0.01   0.15   0.08     0.07   0.40   0.35
    15   1     0.10   0.11   0.12    -0.05   0.08   0.14    -0.45  -0.15  -0.26
    16   1    -0.18   0.21   0.02     0.01   0.17   0.01     0.49  -0.34  -0.12
    17   1     0.05   0.12   0.05    -0.04  -0.03  -0.07     0.00   0.00   0.01
    18   1     0.03   0.05  -0.04    -0.07  -0.06  -0.11     0.00   0.00   0.01
    19   1     0.04  -0.10   0.07    -0.00  -0.15  -0.07    -0.00  -0.01   0.01
    20   1     0.13  -0.02  -0.01     0.38   0.08   0.07     0.04   0.01   0.02
    21   1     0.03  -0.01  -0.14     0.12   0.10  -0.27    -0.00   0.00  -0.05
    22   1    -0.03  -0.02  -0.00     0.00  -0.05   0.11    -0.03  -0.01   0.02
    23   1    -0.09  -0.02   0.01    -0.19  -0.04  -0.05    -0.06  -0.01   0.00
    24   1    -0.10  -0.02   0.02     0.24  -0.09  -0.01    -0.02  -0.01   0.01
    25   1    -0.08   0.00  -0.06     0.05   0.28   0.13    -0.03   0.03  -0.00
    26   1     0.21  -0.06  -0.01    -0.34   0.15   0.03    -0.00   0.00   0.01
    27   1     0.09  -0.00  -0.15    -0.10  -0.09   0.28     0.00  -0.02   0.01
    28   1     0.06  -0.03   0.02     0.01   0.03  -0.10     0.02  -0.00  -0.00
    29   1     0.27   0.12   0.26     0.06  -0.05   0.03     0.05   0.02   0.03
    30   1    -0.05  -0.12   0.37     0.04  -0.13   0.04    -0.00  -0.02   0.05
    31   1     0.01   0.08  -0.31     0.08   0.00  -0.03     0.01   0.04  -0.09
    32   1    -0.27   0.20  -0.10    -0.01  -0.01  -0.02    -0.05   0.07  -0.02
                      7                      8                      9
                      A                      A                      A
 Frequencies --    231.0320               248.6578               256.5588
 Red. masses --      1.6592                 1.4494                 1.4153
 Frc consts  --      0.0522                 0.0528                 0.0549
 IR Inten    --      0.1754                 0.1486                 0.0173
  Atom  AN      X      Y      Z        X      Y      Z        X      Y      Z
     1   8    -0.04  -0.02   0.02     0.00  -0.06  -0.01    -0.03  -0.02  -0.01
     2   6    -0.02  -0.01  -0.03     0.01  -0.02  -0.00    -0.03  -0.01  -0.01
     3   6     0.00   0.01  -0.05     0.02  -0.01   0.01     0.01   0.02  -0.03
     4   6    -0.04   0.13   0.03    -0.05   0.01   0.01     0.01   0.07   0.00
     5   6     0.01  -0.02  -0.04     0.02   0.01   0.04     0.02   0.02   0.00
     6   6     0.02  -0.01  -0.04     0.01   0.05   0.00     0.01   0.04  -0.00
     7   6     0.03   0.01  -0.02     0.01   0.02  -0.03     0.02   0.00   0.01
     8   6     0.01   0.00   0.02    -0.09  -0.02  -0.06    -0.01  -0.01   0.02
     9   6     0.10  -0.02  -0.01     0.08   0.01  -0.01     0.02  -0.01   0.01
    10   6    -0.00   0.04  -0.03     0.02   0.00  -0.02     0.08  -0.06   0.01
    11   6    -0.03  -0.03   0.05    -0.01   0.04   0.04    -0.06   0.02  -0.05
    12   6    -0.03  -0.08   0.05    -0.02  -0.01   0.02    -0.04  -0.05   0.05
    13   1    -0.00  -0.03  -0.02     0.05  -0.01  -0.00     0.03  -0.01  -0.03
    14   1    -0.03   0.33   0.12    -0.06   0.07  -0.03     0.01   0.12   0.04
    15   1    -0.23   0.06   0.08    -0.11  -0.01   0.03    -0.05   0.04   0.03
    16   1     0.09   0.12  -0.03    -0.06  -0.01   0.02     0.05   0.08  -0.03
    17   1     0.02  -0.03  -0.04     0.04  -0.05   0.02     0.05   0.00  -0.00
    18   1     0.01  -0.02  -0.02     0.04   0.01   0.10     0.01   0.02   0.03
    19   1     0.04  -0.05  -0.05     0.05   0.06   0.01    -0.01   0.07   0.01
    20   1    -0.30  -0.09  -0.11    -0.20  -0.06  -0.11     0.21   0.10   0.13
    21   1     0.03   0.02   0.37    -0.09  -0.10   0.03    -0.02  -0.04  -0.24
    22   1     0.26   0.08  -0.16    -0.07   0.06  -0.13    -0.21  -0.08   0.18
    23   1     0.31   0.05   0.03    -0.12  -0.07  -0.13    -0.26  -0.11  -0.12
    24   1    -0.04   0.11  -0.03     0.33  -0.15  -0.04     0.28  -0.20   0.01
    25   1     0.09  -0.24  -0.04     0.11   0.23   0.15     0.05   0.29   0.13
    26   1     0.12  -0.06  -0.02    -0.29   0.28  -0.02     0.30  -0.26   0.01
    27   1     0.01   0.19  -0.12     0.01  -0.32   0.25     0.08   0.08  -0.20
    28   1    -0.15   0.02   0.05     0.33   0.04  -0.28    -0.06  -0.07   0.22
    29   1    -0.03   0.04   0.08    -0.01   0.09   0.06    -0.16  -0.03  -0.08
    30   1    -0.05  -0.07   0.10    -0.02   0.02   0.08    -0.05   0.10  -0.13
    31   1    -0.03  -0.08   0.16    -0.05  -0.02   0.05    -0.07  -0.06   0.17
    32   1    -0.02  -0.20   0.02    -0.02  -0.05   0.01     0.04  -0.16   0.02
                     10                     11                     12
                      A                      A                      A
 Frequencies --    264.8313               281.3308               325.6842
 Red. masses --      1.2225                 2.2084                 2.6349
 Frc consts  --      0.0505                 0.1030                 0.1647
 IR Inten    --      0.0825                 0.3631                 0.4850
  Atom  AN      X      Y      Z        X      Y      Z        X      Y      Z
     1   8    -0.02  -0.01  -0.02    -0.02   0.03  -0.04    -0.12   0.10  -0.03
     2   6    -0.03  -0.01   0.00    -0.06   0.01   0.04    -0.13   0.06  -0.02
     3   6    -0.02  -0.01   0.02    -0.08  -0.02   0.10    -0.06   0.06  -0.03
     4   6    -0.04  -0.01   0.01    -0.07  -0.13   0.04     0.14  -0.02  -0.04
     5   6    -0.02   0.02  -0.00    -0.08   0.04   0.00    -0.01  -0.05   0.09
     6   6     0.01   0.02  -0.02     0.00   0.00  -0.02     0.00  -0.03   0.07
     7   6     0.02   0.01  -0.01     0.04   0.01  -0.03     0.04  -0.02   0.04
     8   6     0.00   0.01   0.01     0.08   0.02  -0.03     0.10  -0.02  -0.05
     9   6     0.08   0.02   0.01     0.18  -0.03  -0.02     0.04  -0.04   0.04
    10   6     0.05  -0.01  -0.01    -0.00   0.01  -0.01     0.09   0.02  -0.02
    11   6    -0.02   0.01   0.00     0.01   0.01   0.04    -0.08  -0.05  -0.03
    12   6    -0.02  -0.02   0.01    -0.03   0.06  -0.04    -0.09  -0.00   0.01
    13   1    -0.01  -0.02   0.01    -0.08   0.00   0.09    -0.02   0.03  -0.03
    14   1    -0.04   0.01   0.01    -0.08  -0.17   0.01     0.18  -0.19   0.12
    15   1    -0.07  -0.02   0.00    -0.05  -0.11  -0.06     0.28   0.05  -0.15
    16   1    -0.03  -0.03   0.02    -0.09  -0.21   0.08     0.23  -0.00  -0.09
    17   1    -0.06   0.04  -0.00    -0.18   0.12   0.02     0.15  -0.17   0.06
    18   1    -0.02   0.02  -0.04    -0.05   0.05  -0.11    -0.10  -0.09   0.24
    19   1     0.02   0.01  -0.02     0.04  -0.02  -0.03     0.03   0.02   0.09
    20   1     0.31   0.16   0.17     0.03  -0.03  -0.07     0.03  -0.17  -0.14
    21   1    -0.02  -0.04  -0.35     0.09   0.07   0.05     0.11   0.07   0.06
    22   1    -0.29  -0.10   0.24     0.16   0.04  -0.09     0.23   0.07  -0.19
    23   1     0.43   0.14   0.15     0.07  -0.08  -0.16     0.08  -0.03   0.03
    24   1    -0.18   0.26  -0.03     0.39  -0.16  -0.04     0.02  -0.03   0.04
    25   1     0.06  -0.34  -0.08     0.21   0.10   0.18     0.04  -0.09   0.04
    26   1    -0.06   0.10  -0.01     0.19  -0.20  -0.01    -0.03   0.23   0.01
    27   1     0.04  -0.15   0.07     0.01   0.24  -0.17     0.08  -0.17   0.08
    28   1     0.18   0.01  -0.10    -0.23  -0.02   0.18     0.25   0.03  -0.21
    29   1    -0.02   0.02   0.01     0.08   0.08   0.08    -0.13  -0.16  -0.08
    30   1    -0.02   0.01   0.01    -0.03  -0.04   0.12    -0.07   0.05  -0.13
    31   1    -0.03  -0.02   0.04     0.01   0.06  -0.15    -0.03   0.03   0.03
    32   1    -0.00  -0.05   0.00    -0.08   0.16  -0.01    -0.10  -0.02  -0.00
                     13                     14                     15
                      A                      A                      A
 Frequencies --    332.2892               344.4989               391.1313
 Red. masses --      2.3669                 1.8718                 2.0437
 Frc consts  --      0.1540                 0.1309                 0.1842
 IR Inten    --      0.3112                 0.0898                 0.1685
  Atom  AN      X      Y      Z        X      Y      Z        X      Y      Z
     1   8    -0.01   0.06   0.01    -0.01  -0.03  -0.03     0.03  -0.04  -0.01
     2   6    -0.02  -0.01  -0.01    -0.03  -0.02   0.01     0.02  -0.01   0.02
     3   6    -0.06  -0.04   0.00    -0.02  -0.01   0.03     0.03   0.01   0.00
     4   6    -0.00  -0.03   0.02    -0.08  -0.00   0.03    -0.02   0.02  -0.00
     5   6    -0.05  -0.04  -0.06    -0.03   0.11  -0.07     0.00   0.07  -0.02
     6   6    -0.00  -0.07  -0.02     0.01   0.02  -0.01    -0.01  -0.04   0.07
     7   6     0.01  -0.00   0.01     0.04  -0.01   0.04    -0.02  -0.04   0.10
     8   6    -0.09  -0.02   0.11     0.12   0.01   0.03    -0.04  -0.07  -0.12
     9   6     0.00   0.17   0.08    -0.09  -0.02   0.01     0.02  -0.04   0.12
    10   6     0.14   0.04  -0.10     0.10  -0.05   0.04    -0.02   0.14  -0.04
    11   6     0.03  -0.09  -0.01    -0.01   0.02  -0.07    -0.00  -0.04  -0.05
    12   6     0.03  -0.02  -0.05     0.00  -0.03   0.01     0.02  -0.00   0.01
    13   1    -0.08  -0.05   0.02    -0.01  -0.02   0.03     0.03   0.02  -0.00
    14   1     0.00  -0.05   0.06    -0.09   0.09  -0.01    -0.03   0.09  -0.03
    15   1     0.02  -0.02   0.03    -0.16  -0.03   0.04    -0.08   0.00   0.02
    16   1     0.01  -0.01   0.00    -0.08  -0.04   0.05    -0.03   0.01   0.01
    17   1    -0.08   0.01  -0.04    -0.19   0.33  -0.00    -0.04   0.27   0.05
    18   1    -0.07  -0.05  -0.13     0.04   0.14  -0.32     0.01   0.08  -0.24
    19   1    -0.01  -0.10  -0.04    -0.05   0.02  -0.02    -0.07  -0.04   0.06
    20   1    -0.25   0.08   0.11    -0.03  -0.10  -0.07     0.09  -0.25  -0.16
    21   1    -0.08  -0.15   0.25     0.14   0.12   0.25    -0.05  -0.10  -0.30
    22   1    -0.07  -0.04   0.12     0.34   0.03  -0.10    -0.18   0.09  -0.19
    23   1    -0.16   0.14   0.22    -0.15  -0.03   0.03     0.05  -0.04   0.11
    24   1     0.15   0.22  -0.04    -0.16  -0.05   0.07     0.06  -0.03   0.09
    25   1     0.02   0.39   0.14    -0.11   0.02  -0.12     0.03  -0.06   0.19
    26   1     0.26   0.16  -0.03    -0.04   0.08   0.04     0.15   0.28   0.04
    27   1     0.12  -0.05  -0.24     0.08  -0.26   0.14    -0.01   0.30  -0.16
    28   1     0.21   0.05  -0.18     0.30  -0.01  -0.06    -0.19   0.09  -0.21
    29   1     0.06  -0.08  -0.00    -0.08  -0.05  -0.10    -0.06  -0.19  -0.12
    30   1     0.05  -0.12   0.01     0.00   0.10  -0.14     0.01   0.08  -0.18
    31   1     0.08  -0.00  -0.10    -0.03  -0.03   0.07     0.02  -0.00  -0.01
    32   1    -0.01   0.03  -0.04     0.07  -0.07  -0.00     0.05   0.03   0.02
                     16                     17                     18
                      A                      A                      A
 Frequencies --    417.1000               443.1083               466.4531
 Red. masses --      3.3605                 2.6026                 2.5463
 Frc consts  --      0.3445                 0.3011                 0.3264
 IR Inten    --      5.7720                 0.3563                 1.1963
  Atom  AN      X      Y      Z        X      Y      Z        X      Y      Z
     1   8     0.06  -0.15  -0.07     0.05   0.00   0.01     0.07   0.02   0.05
     2   6     0.02   0.06   0.14     0.02  -0.00   0.05     0.07  -0.04  -0.01
     3   6     0.08   0.11   0.03     0.01  -0.01  -0.01    -0.03  -0.08  -0.06
     4   6    -0.00   0.05  -0.05    -0.01   0.01  -0.00     0.00   0.00   0.01
     5   6     0.03  -0.03  -0.04    -0.00  -0.09  -0.10    -0.04  -0.08  -0.06
     6   6    -0.03  -0.06  -0.03    -0.04  -0.07  -0.03    -0.12   0.08  -0.08
     7   6    -0.02  -0.07  -0.05    -0.01   0.14   0.06    -0.10  -0.04   0.06
     8   6     0.07  -0.05   0.06    -0.08   0.15  -0.05     0.08   0.01  -0.02
     9   6     0.03   0.06   0.00     0.00  -0.09  -0.02    -0.00  -0.04   0.12
    10   6    -0.02  -0.06  -0.09     0.13   0.03   0.11     0.04  -0.02  -0.06
    11   6    -0.11  -0.04   0.01    -0.05  -0.10   0.01    -0.03   0.16   0.02
    12   6    -0.11   0.18   0.14    -0.03   0.06   0.02    -0.02   0.03  -0.00
    13   1    -0.02   0.24   0.03    -0.07   0.04   0.01    -0.10  -0.06  -0.03
    14   1    -0.02   0.06  -0.16    -0.01   0.03  -0.03     0.01   0.02   0.04
    15   1    -0.01   0.06  -0.09    -0.02   0.00   0.04     0.01  -0.01   0.10
    16   1    -0.09  -0.01   0.02    -0.03   0.04  -0.00     0.01   0.10  -0.04
    17   1     0.05  -0.06  -0.05    -0.02  -0.08  -0.10     0.01  -0.28  -0.14
    18   1    -0.02  -0.06  -0.01    -0.04  -0.10  -0.11     0.05  -0.05   0.18
    19   1    -0.02  -0.11  -0.05    -0.05  -0.15  -0.07    -0.24   0.10  -0.08
    20   1     0.03   0.02   0.08    -0.09   0.07  -0.09     0.21  -0.14  -0.05
    21   1     0.07   0.04   0.16    -0.09   0.07  -0.10     0.08   0.24  -0.07
    22   1     0.19  -0.16   0.10    -0.16   0.27  -0.11     0.20  -0.00  -0.07
    23   1     0.03   0.08   0.15     0.08  -0.10  -0.29     0.04  -0.03   0.13
    24   1     0.08   0.18  -0.12    -0.05  -0.26   0.14     0.06  -0.00   0.06
    25   1     0.04   0.09   0.06    -0.00  -0.22  -0.04     0.01  -0.06   0.23
    26   1    -0.02  -0.02  -0.08     0.15  -0.03   0.10     0.18   0.10   0.01
    27   1    -0.03  -0.08  -0.09     0.11  -0.14   0.04     0.02  -0.12  -0.23
    28   1    -0.00  -0.06  -0.13     0.29   0.08   0.23     0.13  -0.01  -0.14
    29   1    -0.24  -0.15  -0.05    -0.06  -0.14  -0.01     0.03   0.35   0.11
    30   1     0.03   0.01  -0.16     0.05  -0.12  -0.05    -0.02  -0.02   0.19
    31   1    -0.02   0.20  -0.12     0.02   0.07  -0.20    -0.16  -0.04  -0.03
    32   1    -0.16   0.42   0.21    -0.11   0.26   0.08     0.01   0.03   0.00
                     19                     20                     21
                      A                      A                      A
 Frequencies --    506.1286               527.8833               595.4731
 Red. masses --      2.4311                 2.6446                 3.0195
 Frc consts  --      0.3669                 0.4342                 0.6308
 IR Inten    --      4.2788                 1.6394                 0.1280
  Atom  AN      X      Y      Z        X      Y      Z        X      Y      Z
     1   8     0.07   0.13   0.08     0.01   0.11   0.04    -0.08   0.07   0.02
     2   6     0.03  -0.09   0.00    -0.03  -0.03   0.03    -0.00   0.12  -0.11
     3   6     0.05  -0.10  -0.06     0.05  -0.05   0.00     0.20   0.04   0.13
     4   6    -0.01   0.01   0.01    -0.02  -0.03   0.03    -0.01  -0.08   0.10
     5   6     0.06   0.07   0.04     0.08  -0.04  -0.07     0.17  -0.02  -0.07
     6   6    -0.02  -0.00   0.13     0.07   0.04  -0.10    -0.00  -0.03  -0.05
     7   6    -0.06   0.00  -0.05     0.16  -0.03   0.02    -0.08   0.00   0.01
     8   6     0.00   0.04   0.01     0.01  -0.15  -0.00    -0.02   0.05  -0.01
     9   6     0.04   0.02  -0.04    -0.03   0.01  -0.02    -0.02  -0.02   0.06
    10   6    -0.04  -0.07  -0.06     0.02   0.08   0.07    -0.03  -0.05  -0.05
    11   6    -0.09  -0.04   0.01    -0.09   0.04   0.01    -0.05  -0.04  -0.02
    12   6    -0.06  -0.03  -0.05    -0.12   0.02  -0.01    -0.04   0.01  -0.04
    13   1     0.12  -0.14  -0.09     0.06  -0.08   0.01     0.21  -0.07   0.18
    14   1    -0.01   0.13   0.01    -0.04   0.05  -0.03    -0.07  -0.00  -0.20
    15   1    -0.09  -0.04   0.15    -0.09  -0.06   0.10    -0.13  -0.10  -0.04
    16   1     0.02   0.10  -0.04    -0.06  -0.02   0.05    -0.20  -0.34   0.30
    17   1     0.06   0.30   0.13     0.02  -0.15  -0.12     0.06   0.00  -0.07
    18   1     0.16   0.11  -0.17     0.09  -0.04   0.02     0.18  -0.01  -0.10
    19   1     0.05  -0.01   0.13     0.03   0.01  -0.12    -0.08  -0.08  -0.08
    20   1     0.01   0.09   0.04    -0.02  -0.13  -0.00     0.05   0.02  -0.00
    21   1     0.01   0.13   0.06     0.01  -0.34  -0.06    -0.02   0.16  -0.03
    22   1     0.10  -0.06   0.05    -0.14  -0.07   0.00     0.04   0.02  -0.01
    23   1     0.12   0.04  -0.05    -0.18  -0.02   0.10     0.04  -0.01   0.03
    24   1     0.13   0.06  -0.12    -0.19   0.01   0.07     0.03  -0.01   0.02
    25   1     0.06  -0.04   0.11    -0.07   0.12  -0.29    -0.01  -0.07   0.16
    26   1    -0.08  -0.09  -0.08    -0.05   0.09   0.05     0.03  -0.02  -0.03
    27   1    -0.05  -0.15  -0.04     0.05   0.26   0.20    -0.04  -0.12  -0.14
    28   1     0.03  -0.06  -0.03    -0.16   0.03  -0.01     0.04  -0.03  -0.05
    29   1    -0.14  -0.25  -0.09    -0.14   0.16   0.06     0.00   0.03   0.02
    30   1    -0.09   0.13  -0.16    -0.14   0.02   0.07    -0.05  -0.12   0.05
    31   1    -0.11  -0.07  -0.39    -0.14  -0.01  -0.26     0.02   0.06   0.28
    32   1    -0.19   0.26   0.03    -0.21   0.24   0.05    -0.04  -0.33  -0.14
                     22                     23                     24
                      A                      A                      A
 Frequencies --    693.3909               717.0457               783.4257
 Red. masses --      3.7108                 3.3418                 2.4382
 Frc consts  --      1.0512                 1.0123                 0.8817
 IR Inten    --      0.4873                 1.7817                 1.7291
  Atom  AN      X      Y      Z        X      Y      Z        X      Y      Z
     1   8     0.09  -0.05   0.11    -0.10  -0.00  -0.04    -0.00  -0.02   0.03
     2   6     0.25   0.11  -0.20    -0.04   0.08  -0.10     0.07   0.03  -0.12
     3   6    -0.03   0.04   0.03    -0.02  -0.19  -0.13    -0.07   0.00  -0.02
     4   6     0.00  -0.01   0.02    -0.02  -0.09   0.06    -0.03  -0.03   0.03
     5   6    -0.13  -0.04   0.02     0.06  -0.08  -0.06    -0.03   0.02  -0.00
     6   6    -0.10  -0.04   0.07    -0.04  -0.03   0.09     0.13   0.04  -0.06
     7   6     0.04   0.00  -0.01    -0.00   0.00  -0.00     0.09   0.00  -0.02
     8   6     0.03  -0.08   0.01     0.00  -0.03   0.00    -0.02   0.12  -0.01
     9   6     0.04   0.04  -0.10     0.01   0.02  -0.06    -0.01  -0.06   0.16
    10   6     0.05   0.05   0.06     0.00   0.02   0.02    -0.04  -0.07  -0.09
    11   6    -0.14   0.02   0.03     0.07   0.09   0.04     0.01  -0.00   0.07
    12   6    -0.07   0.03  -0.06     0.05   0.20   0.16     0.00  -0.00   0.06
    13   1    -0.14   0.07   0.09    -0.02  -0.19  -0.13    -0.05  -0.03  -0.02
    14   1     0.01  -0.16   0.04    -0.01   0.00   0.17    -0.00  -0.14   0.14
    15   1     0.11   0.06  -0.18    -0.06  -0.15   0.35     0.07   0.02  -0.05
    16   1     0.02  -0.12   0.06     0.04   0.15  -0.07     0.05  -0.02  -0.02
    17   1    -0.17   0.13   0.08     0.08   0.12   0.02    -0.09  -0.08  -0.05
    18   1    -0.11  -0.03  -0.18     0.23  -0.01  -0.22    -0.05   0.01   0.05
    19   1    -0.04  -0.04   0.08    -0.03  -0.04   0.09     0.23  -0.04  -0.08
    20   1    -0.01  -0.06   0.01    -0.01  -0.01   0.01    -0.09   0.16  -0.01
    21   1     0.04  -0.15   0.03     0.00  -0.06  -0.00    -0.02   0.02   0.00
    22   1     0.00  -0.07   0.01    -0.01  -0.04   0.01    -0.08   0.16  -0.01
    23   1     0.02   0.04  -0.10     0.04   0.03  -0.08    -0.12  -0.09   0.24
    24   1     0.02   0.04  -0.09     0.04   0.03  -0.08    -0.12  -0.08   0.23
    25   1     0.04   0.05  -0.13     0.02   0.00  -0.03    -0.04   0.00  -0.01
    26   1     0.01   0.04   0.05    -0.01   0.00   0.01    -0.12  -0.10  -0.12
    27   1     0.06   0.08   0.12     0.01   0.05   0.04    -0.03   0.00  -0.01
    28   1     0.02   0.04   0.06    -0.01   0.02   0.04    -0.12  -0.09  -0.11
    29   1    -0.17  -0.12  -0.04    -0.07  -0.15  -0.08    -0.34  -0.18  -0.05
    30   1    -0.08   0.10  -0.10     0.27   0.19  -0.22     0.09   0.25  -0.24
    31   1    -0.19  -0.01   0.24     0.08   0.22   0.32     0.09   0.02  -0.17
    32   1    -0.20  -0.42  -0.20     0.06   0.03   0.11    -0.34   0.09   0.06
                     25                     26                     27
                      A                      A                      A
 Frequencies --    821.2084               879.1536               893.5814
 Red. masses --      1.8488                 2.2612                 2.1334
 Frc consts  --      0.7346                 1.0297                 1.0037
 IR Inten    --      3.2172                 1.8959                 9.3172
  Atom  AN      X      Y      Z        X      Y      Z        X      Y      Z
     1   8    -0.03  -0.00  -0.00    -0.02   0.01   0.01     0.04  -0.04   0.01
     2   6     0.01  -0.02  -0.07     0.02   0.03  -0.07     0.04   0.08   0.04
     3   6     0.01   0.03  -0.00     0.06  -0.09   0.03    -0.09   0.04  -0.09
     4   6    -0.00  -0.02   0.05     0.02   0.03  -0.08    -0.08  -0.09   0.08
     5   6    -0.01   0.11  -0.03    -0.07   0.00   0.18     0.11   0.08   0.01
     6   6    -0.05   0.07  -0.05    -0.02   0.02  -0.15     0.00   0.05  -0.04
     7   6    -0.08   0.00   0.01    -0.03   0.00  -0.03    -0.01   0.02  -0.00
     8   6     0.01  -0.08   0.01    -0.00  -0.03  -0.00    -0.00  -0.03  -0.00
     9   6    -0.00   0.02  -0.06     0.00  -0.01   0.03    -0.01  -0.00   0.01
    10   6     0.02   0.05   0.06     0.01   0.04   0.04    -0.00   0.00  -0.00
    11   6     0.04  -0.06   0.07    -0.03  -0.09  -0.04    -0.09  -0.12  -0.04
    12   6     0.07  -0.06   0.05     0.02   0.04   0.08     0.01   0.01  -0.04
    13   1     0.04  -0.10   0.05     0.30  -0.16  -0.09    -0.09   0.31  -0.22
    14   1    -0.02  -0.03  -0.04     0.03   0.08  -0.05    -0.01  -0.19   0.45
    15   1    -0.03  -0.01  -0.07     0.01   0.00   0.03     0.09  -0.06   0.27
    16   1    -0.05  -0.14   0.12     0.06   0.12  -0.13     0.14   0.20  -0.16
    17   1     0.10  -0.26  -0.16    -0.36   0.25   0.24     0.23   0.04   0.01
    18   1     0.00   0.10   0.40     0.09   0.07  -0.18     0.17   0.11   0.11
    19   1    -0.13  -0.09  -0.11     0.09   0.24  -0.04     0.02   0.09  -0.02
    20   1     0.11  -0.14   0.01     0.04  -0.03   0.01     0.05  -0.04   0.01
    21   1     0.01   0.07  -0.01     0.00   0.05  -0.01    -0.00   0.04  -0.01
    22   1     0.10  -0.13   0.00     0.05  -0.08   0.01     0.05  -0.06   0.00
    23   1     0.06   0.04  -0.10    -0.04  -0.02   0.06     0.00  -0.00  -0.01
    24   1     0.06   0.04  -0.11    -0.03  -0.01   0.04    -0.01  -0.01   0.02
    25   1     0.01  -0.02   0.04    -0.00   0.02  -0.01    -0.01  -0.02   0.01
    26   1     0.11   0.07   0.09     0.08   0.02   0.05    -0.01  -0.01  -0.01
    27   1    -0.00  -0.02  -0.06    -0.01  -0.04  -0.05    -0.00  -0.02  -0.00
    28   1     0.10   0.07   0.08     0.09   0.06   0.08     0.01   0.01   0.01
    29   1    -0.23  -0.23  -0.04    -0.11   0.22   0.08     0.05   0.09   0.07
    30   1     0.15   0.12  -0.20     0.12  -0.36   0.10    -0.16  -0.27   0.17
    31   1     0.22  -0.02  -0.27     0.20   0.11  -0.03     0.17   0.09   0.09
    32   1    -0.23   0.17   0.10    -0.10   0.12   0.09     0.06  -0.08  -0.06
                     28                     29                     30
                      A                      A                      A
 Frequencies --    919.3179               940.7264               940.9456
 Red. masses --      2.0081                 1.7629                 1.7365
 Frc consts  --      0.9999                 0.9192                 0.9058
 IR Inten    --      2.5980                 0.5097                 0.5998
  Atom  AN      X      Y      Z        X      Y      Z        X      Y      Z
     1   8    -0.01  -0.00  -0.00    -0.01  -0.00  -0.00     0.01   0.00   0.00
     2   6     0.00  -0.00  -0.00     0.00   0.00  -0.02    -0.00  -0.00   0.01
     3   6    -0.05   0.04   0.02    -0.02   0.01   0.01     0.01  -0.02   0.01
     4   6    -0.05   0.03   0.00    -0.02   0.02   0.01     0.02  -0.01  -0.02
     5   6     0.07  -0.12  -0.02     0.03  -0.04   0.00    -0.03   0.02  -0.00
     6   6     0.16   0.00  -0.01     0.00   0.02   0.01    -0.00  -0.00  -0.00
     7   6    -0.11   0.03  -0.03     0.02   0.05   0.13     0.00   0.14  -0.03
     8   6    -0.02  -0.08  -0.01     0.03  -0.02   0.08     0.09  -0.11  -0.01
     9   6    -0.06   0.00   0.00     0.07   0.08  -0.06    -0.04   0.04   0.09
    10   6    -0.00   0.06   0.04    -0.10  -0.08  -0.05    -0.05   0.03  -0.07
    11   6     0.03   0.07   0.00    -0.01   0.00  -0.01    -0.00  -0.01   0.02
    12   6    -0.02  -0.05   0.01     0.03  -0.03   0.03    -0.01   0.02  -0.02
    13   1    -0.10   0.10   0.03    -0.02  -0.01   0.02     0.02  -0.02  -0.00
    14   1    -0.00  -0.20   0.18    -0.00  -0.09   0.06     0.00   0.08  -0.07
    15   1     0.13   0.12  -0.20     0.06   0.07  -0.13    -0.04  -0.04   0.08
    16   1     0.09  -0.03  -0.05     0.03  -0.05   0.01    -0.03   0.04  -0.01
    17   1    -0.07   0.18   0.08    -0.04   0.09   0.04    -0.02  -0.08  -0.04
    18   1     0.05  -0.12  -0.39     0.03  -0.04  -0.15    -0.04   0.02   0.10
    19   1     0.25   0.11   0.04    -0.06   0.12   0.04     0.05  -0.09  -0.03
    20   1     0.08  -0.06   0.03     0.08  -0.34  -0.06    -0.13   0.05   0.00
    21   1    -0.01   0.14   0.01     0.01  -0.11  -0.12     0.09  -0.46   0.07
    22   1     0.13  -0.22   0.03    -0.13   0.30  -0.11    -0.10  -0.08   0.06
    23   1     0.13   0.05  -0.10    -0.03   0.02  -0.27     0.12   0.04  -0.31
    24   1     0.12   0.02  -0.11    -0.13  -0.12   0.20    -0.02  -0.22   0.28
    25   1    -0.02  -0.12   0.31     0.03   0.04  -0.35    -0.04  -0.21   0.19
    26   1     0.07  -0.00   0.05     0.14   0.06   0.06    -0.08  -0.24  -0.16
    27   1    -0.03  -0.10  -0.07    -0.14  -0.21  -0.33    -0.08  -0.22  -0.09
    28   1     0.15   0.10   0.16     0.04  -0.06  -0.16     0.19   0.11   0.25
    29   1    -0.09   0.09   0.00    -0.05   0.10   0.03     0.04  -0.10  -0.02
    30   1    -0.01   0.14  -0.03    -0.00  -0.05   0.04     0.01   0.03  -0.03
    31   1    -0.05  -0.07  -0.15     0.08  -0.02  -0.12    -0.04   0.02   0.09
    32   1    -0.14   0.08   0.04    -0.04   0.11   0.06     0.04  -0.08  -0.05
                     31                     32                     33
                      A                      A                      A
 Frequencies --    963.8308               969.4469               980.1871
 Red. masses --      1.6240                 1.2242                 2.1779
 Frc consts  --      0.8889                 0.6779                 1.2328
 IR Inten    --      0.7574                 0.4440                11.6380
  Atom  AN      X      Y      Z        X      Y      Z        X      Y      Z
     1   8     0.02   0.00   0.01    -0.00  -0.00  -0.00    -0.01  -0.01  -0.02
     2   6     0.00   0.01   0.04    -0.00   0.01   0.00    -0.02   0.07   0.06
     3   6     0.01  -0.03   0.03    -0.00  -0.01   0.01    -0.01  -0.08   0.08
     4   6     0.01  -0.03  -0.05     0.00   0.01  -0.01     0.05   0.02  -0.09
     5   6    -0.04   0.05   0.02     0.00  -0.02  -0.01    -0.02  -0.08  -0.06
     6   6     0.10  -0.04  -0.06    -0.01   0.02   0.01     0.03   0.12   0.04
     7   6    -0.04  -0.02   0.03     0.00  -0.00  -0.00    -0.01   0.03   0.01
     8   6    -0.03  -0.00   0.02    -0.01  -0.01  -0.08    -0.03  -0.03   0.03
     9   6     0.02   0.02  -0.03     0.01   0.06   0.03     0.01  -0.01  -0.00
    10   6    -0.04  -0.01   0.05     0.01  -0.06   0.04     0.02  -0.00  -0.03
    11   6     0.05   0.00   0.04    -0.02  -0.01   0.01    -0.11  -0.03   0.09
    12   6    -0.09   0.05  -0.05     0.03  -0.01  -0.00     0.12  -0.02  -0.09
    13   1     0.09   0.11  -0.10    -0.03  -0.01   0.03    -0.20   0.06   0.12
    14   1     0.02   0.13   0.03     0.00   0.00  -0.02     0.02   0.20  -0.19
    15   1    -0.04  -0.10   0.27     0.00   0.01  -0.03    -0.08  -0.06   0.15
    16   1     0.03   0.23  -0.16    -0.00  -0.01   0.00    -0.04   0.14  -0.09
    17   1    -0.11  -0.12  -0.05    -0.03   0.00  -0.00    -0.16  -0.06  -0.06
    18   1    -0.06   0.03   0.14     0.05   0.00  -0.02     0.13  -0.02  -0.08
    19   1     0.19  -0.23  -0.13    -0.01   0.02   0.01     0.09   0.05   0.03
    20   1     0.10  -0.12   0.01    -0.07   0.37   0.08     0.15  -0.21  -0.00
    21   1    -0.03   0.19  -0.04     0.00   0.06   0.16    -0.03   0.19  -0.07
[...]
 00053371,-0.00067453,-0.00100809,-0.00098017,0.00319406,0.00224486,-0.
 01651351,-0.00124333,-0.00969648,0.00039461,-0.00184749,-0.00012851,-0
 .00004295,-0.00072650,-0.00108793,-0.24313023,-0.01393280,-0.11306510,
 0.00043428,0.00015812,-0.00021380,-0.00005587,0.00014264,0.00012430,-0
 .00014480,0.00001375,-0.00013714,-0.00000986,0.00000693,-0.00003013,0.
 00001137,0.00002019,-0.00000063,0.00000653,-0.00000343,0.00002183,-0.0
 0007609,0.00002005,0.00006741,0.00004506,0.00015705,-0.00002210,0.0002
 3410,-0.00005036,-0.00009880,0.00002917,0.00004574,0.00008292,0.001093
 92,0.00045744,0.00016626,0.00034572,-0.00015997,0.00037593,-0.00002783
 ,0.00007976,-0.00002533,0.00047249,-0.00001475,0.00023576,0.00034148,0
 .00028986,0.00101686,0.00766927,0.00042821,0.00374217,0.26400933,-0.00
 001586,0.00018996,0.00001472,-0.00012092,-0.00043800,-0.00010475,0.000
 24666,-0.00045295,-0.00024596,0.00004023,0.00002469,-0.00001649,0.0013
 3629,0.00067181,0.00121693,0.00210122,-0.00500477,-0.00187893,0.023418
 44,-0.00000162,0.01429256,0.00187103,0.00083081,0.00095772,-0.00025760
 ,0.00060838,0.00101151,-0.01515418,-0.04850597,-0.00851511,-0.00035427
 ,-0.00092180,-0.00030041,-0.00004784,0.00046931,0.00004820,0.00018217,
 0.00000190,0.00016163,-0.00000366,-0.00000934,0.00003024,-0.00000315,-
 0.00000242,-0.00000488,-0.00002031,0.00000106,0.00000115,0.00002865,-0
 .00000435,-0.00008221,-0.00007529,0.00002831,0.00004537,-0.00021131,-0
 .00005707,-0.00013218,-0.00011255,-0.00010410,0.00002572,-0.00044887,-
 0.00069627,-0.00032671,-0.00018022,0.00041518,-0.00010759,-0.00008403,
 -0.00001616,-0.00012934,-0.00029296,-0.00000772,0.00017719,-0.00017475
 ,0.00018759,-0.00048395,-0.00203139,-0.00102404,-0.00064098,0.01397346
 ,0.05411167,-0.00005136,0.00002248,-0.00000367,0.00008413,-0.00005952,
 0.00001694,0.00003188,-0.00002734,0.00001231,0.00001841,-0.00003266,-0
 .00002263,0.00008666,-0.00023795,0.00056234,0.00034320,-0.00023879,-0.
 00016336,0.00543402,0.00050995,0.00161567,-0.00017870,-0.00008312,-0.0
 0005453,0.00087220,0.00001314,0.00068856,-0.11329570,-0.00784208,-0.11
 533677,0.00023298,0.00001695,0.00018963,0.00000798,-0.00005000,-0.0000
 2476,0.00000195,-0.00000188,-0.00000126,-0.00001245,0.00000933,0.00000
 083,0.00000016,0.00000770,0.00000433,-0.00000372,0.00000749,0.00001904
 ,-0.00010567,0.00013824,0.00000963,0.00000855,0.00005135,-0.00002019,0
 .00015762,-0.00015346,0.00057581,-0.00016701,0.00001987,-0.00007866,0.
 00020011,0.00034989,0.00039246,0.00036497,0.00008410,0.00001023,0.0000
 7308,-0.00001460,-0.00004372,-0.00011744,0.00015736,0.00010614,-0.0000
 1079,-0.00025524,0.00006405,-0.02864139,-0.00243967,-0.01521226,0.1248
 5155,0.00993856,0.12131990,0.00007466,-0.00002694,-0.00000150,-0.00008
 770,0.00007481,-0.00000661,0.00001466,-0.00006685,-0.00003169,0.000005
 03,0.00000920,-0.00000290,0.00000384,0.00000140,0.00020123,0.00081144,
 -0.00043273,-0.00025551,0.00979402,0.01471385,-0.00587955,-0.00193026,
 0.00235755,0.00047560,0.00086329,0.00000480,-0.00064940,-0.10777956,-0
 .10395527,0.03800008,-0.00158797,-0.00012412,-0.00078822,-0.00004999,0
 .00006227,-0.00001490,0.00002136,-0.00000511,0.00001983,0.00000527,-0.
 00000256,0.00000649,-0.00000352,-0.00000394,0.00000028,-0.00000113,-0.
 00000163,-0.00000893,0.00000758,-0.00000582,-0.00000263,0.00004017,-0.
 00008826,0.00001768,-0.00010494,0.00004673,-0.00005692,-0.00017042,0.0
 0001472,-0.00007463,0.00035603,0.00020021,0.00035444,0.00093034,0.0009
 3795,-0.00005560,0.00008622,-0.00013255,0.00012039,0.00003561,-0.00004
 882,-0.00031929,-0.00010409,-0.00015564,0.00010591,-0.00365248,-0.0044
 5379,0.00095595,-0.01327214,-0.02347855,0.00982123,0.11841141,-0.00014
 634,0.00026858,0.00004027,-0.00002423,-0.00061666,-0.00018290,0.000054
 78,0.00006958,-0.00001446,0.00001353,-0.00000043,0.00003631,0.00014315
 ,0.00011428,0.00004313,-0.00106695,-0.00018001,-0.00034653,-0.01435408
 ,-0.02084707,0.00771603,0.00482124,-0.00420239,-0.00188845,-0.00119142
 ,0.00086104,0.00136925,-0.10287929,-0.23070380,0.06482682,-0.00032887,
 -0.00076465,-0.00050231,-0.00007180,0.00085648,0.00007242,0.00003766,0
 .00001516,0.00002521,0.00001019,-0.00000461,0.00001056,-0.00000012,0.0
 0003690,-0.00002121,-0.00001976,-0.00001743,-0.00000405,0.00002792,-0.
 00003263,-0.00003150,-0.00010338,0.00022029,-0.00006374,0.00006199,0.0
 0000894,-0.00007187,0.00007529,0.00026555,0.00016129,0.00017369,0.0004
 0111,-0.00011286,-0.00102530,-0.00169428,0.00050977,0.00071436,0.00041
 084,-0.00089481,0.00020767,0.00043230,0.00007475,0.00001677,-0.0000941
 4,-0.00011613,0.00199739,0.00346190,-0.00064615,-0.00097903,-0.0011187
 1,0.00008540,0.11412163,0.25138346,0.00014761,-0.00016068,-0.00003469,
 -0.00006992,0.00037930,0.00011232,0.00001309,0.00000197,-0.00001863,-0
 .00001145,-0.00001556,-0.00003129,-0.00023441,-0.00013386,0.00008071,0
 .00035037,0.00058227,-0.00021680,-0.00353537,-0.00509628,0.00019686,0.
 00033664,-0.00127875,-0.00019078,-0.00067118,-0.00085716,0.00061417,0.
 03743848,0.06516036,-0.07300851,-0.00049568,0.00094443,0.00032968,0.00
 013102,-0.00045846,-0.00010473,-0.00000597,-0.00002204,-0.00000193,-0.
 00000245,0.00000683,-0.00000236,-0.00000283,-0.00001801,0.00000744,0.0
 0001434,0.00001595,0.00000158,0.00000052,0.00002994,0.00000420,0.00002
 020,-0.00008231,-0.00001167,-0.00001621,0.00003813,0.00012044,-0.00010
 932,-0.00032716,0.00031923,0.00036844,0.00008225,0.00001489,-0.0000309
 9,-0.00041284,0.00067632,0.00028536,-0.00002631,0.00007348,-0.00013777
 ,0.00020161,0.00003416,-0.00011799,-0.00008400,-0.00004895,0.01588099,
 0.02764369,-0.00829699,-0.00780131,-0.01514608,0.00547040,-0.04096601,
 -0.07031128,0.07418674,-0.00019537,-0.00029858,0.00033170,0.00176310,-
 0.00065718,-0.00046432,-0.00001767,-0.00000700,-0.00024789,0.00004184,
 0.00009886,0.00008575,0.00025966,0.00142141,-0.00043007,-0.00927255,-0
 .00044447,0.01945529,0.00067933,0.00036701,0.00125245,-0.00005120,-0.0
 0008073,-0.00026328,-0.00052792,-0.00096626,0.00015358,-0.00026184,-0.
 00005306,-0.00015697,-0.08968649,0.00218480,0.09407098,0.00888844,0.00
 001921,-0.02518510,0.00007767,0.00002398,0.00005094,0.00004603,-0.0000
 7321,-0.00001053,-0.00000339,0.00005475,0.00002128,-0.00007379,-0.0000
 6408,-0.00005254,0.00061285,-0.00035302,-0.00038889,-0.00004242,0.0000
 7125,-0.00027342,-0.00190502,-0.00379724,0.00002871,0.00017113,0.00014
 401,-0.00018055,-0.00008162,-0.00004032,-0.00010920,0.00000771,-0.0000
 2975,-0.00000026,-0.00043200,0.00029197,-0.00137947,0.00005779,0.00007
 353,-0.00006911,0.00029098,0.00036183,-0.00015488,0.00029704,-0.000028
 33,-0.00017315,-0.00011477,-0.00000952,-0.00008538,-0.00004118,0.00008
 254,0.00017003,0.09904771,-0.00021042,0.00015908,-0.00014751,-0.000225
 61,-0.00026663,0.00072555,0.00012808,-0.00014406,-0.00022056,-0.000065
 40,0.00018513,0.00012528,-0.00060541,0.00176182,0.00142337,-0.01111738
 ,-0.00100044,0.02574387,0.00064932,0.00062547,0.00025370,0.00001773,-0
 .00001060,0.00006090,-0.00015494,0.00018756,-0.00029871,0.00009340,-0.
 00002858,0.00002613,0.00261987,-0.05259513,-0.00038041,-0.00024634,-0.
 00000429,0.00004059,0.00005809,-0.00001976,0.00003920,0.00006727,-0.00
 004419,-0.00004737,-0.00000847,0.00002848,-0.00003638,0.00002896,-0.00
 009079,-0.00012002,0.00036807,-0.00036443,-0.00061979,0.00003285,0.000
 32507,-0.00036932,-0.00346988,-0.00421831,0.00092963,0.00011942,0.0000
 7756,-0.00012606,-0.00002293,-0.00001467,-0.00013357,0.00000566,-0.000
 03114,-0.00002605,-0.00027304,0.00016942,-0.00039160,-0.00006989,-0.00
 014731,-0.00010576,0.00011349,0.00001633,-0.00005485,-0.00001688,-0.00
 014231,0.00005486,0.00002375,0.00010463,0.00002051,-0.00004851,0.00004
 929,-0.00015088,0.00162334,0.05362669,-0.00123827,0.00034983,0.0003356
 8,0.00198166,-0.00147849,-0.00045579,-0.00020940,0.00024726,-0.0003311
 7,0.00024317,-0.00002174,-0.00002997,-0.00001780,-0.00069169,0.0001292
 4,0.00285806,0.00082747,-0.00365339,-0.00027505,0.00030253,-0.00046634
 ,0.00019268,-0.00004789,0.00008757,-0.00061007,0.00020610,-0.00092847,
 0.00012025,0.00007107,0.00011474,0.09382736,-0.00077846,-0.26011974,0.
 00643612,0.00046050,-0.02092030,0.00000026,0.00012484,-0.00002390,-0.0
 0001057,-0.00001664,0.00004427,-0.00002555,0.00009045,0.00000896,-0.00
 013918,0.00004291,0.00010240,-0.00034401,0.00064683,0.00043027,-0.0001
 4363,0.00007065,0.00036734,0.00024162,0.00071481,0.00104085,-0.0000265
 5,-0.00002023,0.00009159,0.00006999,0.00008001,0.00000418,-0.00000261,
 0.00002849,0.00000045,-0.00122623,-0.00103422,-0.00033995,0.00004141,0
 .00002766,0.00002974,-0.00024677,-0.00024400,0.00024645,-0.00009476,-0
 .00000674,0.00006091,0.00006669,0.00002662,0.00002511,0.00006963,0.000
 02095,-0.00006619,-0.09905578,0.00075367,0.28801569,-0.00183681,0.0018
 2528,0.00084428,-0.00109399,-0.00464755,-0.00400994,-0.00015706,0.0001
 2128,0.00051604,0.00001220,-0.00003900,0.00014942,-0.00262968,-0.00289
 858,0.00038465,0.01255640,-0.01674774,-0.00253379,0.00073712,0.0004499
 5,-0.00034948,0.00014086,0.00005405,0.00026494,-0.00000922,0.00006108,
 -0.00008289,-0.00208038,-0.00015840,-0.00103623,-0.12093632,0.11814447
 ,0.01760294,-0.01503381,0.02190402,-0.00077092,0.00007532,0.00010467,0
 .00009709,0.00000554,-0.00002671,0.00004670,0.00002489,0.00005246,-0.0
 0006565,-0.00001843,-0.00000917,-0.00003625,-0.00004608,-0.00002753,-0
 .00016200,0.00086044,-0.00123941,-0.00005334,0.00069774,0.00082872,-0.
 00004289,0.00000129,-0.00002510,0.00000315,0.00004405,0.00007339,0.000
 00566,0.00004552,0.00010559,0.00001718,-0.00001367,0.00003406,-0.00001
 692,-0.00002191,-0.00000703,0.00007756,0.00003657,0.00002703,-0.000033
 63,-0.00005984,0.00011741,0.00011373,-0.00000203,-0.00016378,0.0000745
 3,-0.00271857,-0.00041329,-0.00090072,-0.00718526,0.01077933,0.0013324
 4,0.13676740,0.00005531,0.00005199,0.00014686,-0.00059221,0.00081331,-
 0.00032269,-0.00048100,0.00064707,-0.00022460,0.00011980,-0.00002355,-
 0.00003326,-0.00536816,-0.00359584,0.00136551,0.01449053,-0.02172473,-
 0.00379913,0.00143934,-0.00040417,0.00033596,-0.00005999,0.00017228,0.
 00003747,-0.00030425,0.00001496,-0.00012159,0.00059526,-0.00054673,0.0
 0076911,0.11637081,-0.23594399,-0.02260185,-0.00050195,0.00178836,-0.0
 0007079,0.00012753,0.00004869,0.00007621,0.00001827,-0.00000946,0.0000
 8571,-0.00001480,0.00002394,-0.00004786,-0.00003409,0.00000437,-0.0000
 0531,-0.00006226,0.00034412,-0.00006002,0.00115561,-0.00171776,-0.0001
 1518,0.00004336,0.00098148,0.00043522,0.00004977,-0.00002037,-0.000005
 74,-0.00015036,0.00003202,-0.00005241,0.00009419,0.00021828,0.00006867
 ,0.00007155,-0.00006362,-0.00013034,0.00001057,0.00016796,0.00018514,-
 0.00005264,0.00000603,-0.00010984,-0.00023812,-0.00008849,0.00010261,0
 .00029732,0.00073297,0.00000312,0.00048754,0.00144395,-0.00054859,-0.0
 0028889,0.00069113,-0.00064897,-0.12754126,0.25533065,-0.00224780,0.00
 175997,0.00086987,-0.00180627,-0.00338994,-0.00356039,0.00014428,-0.00
 015871,0.00017960,-0.00002884,-0.00000447,0.00018408,0.00056561,0.0002
 8809,0.00017424,-0.00227437,0.00438089,-0.00049025,0.00029149,-0.00061
 392,0.00017391,-0.00017459,0.00009453,-0.00002849,-0.00018812,-0.00004
 647,-0.00003151,-0.00072191,-0.00065134,0.00051749,0.01722816,-0.02286
 307,-0.05293468,-0.01507968,0.02195677,-0.00049433,0.00001810,0.000098
 99,0.00003649,0.00000350,-0.00001969,0.00001677,0.00002607,0.00002858,
 -0.00003817,0.00000870,-0.00001354,-0.00003310,-0.00024967,0.00037041,
 0.00037358,-0.00004734,0.00015985,0.00060070,-0.00054985,-0.00007025,0
 .00024600,0.00001623,0.00001954,-0.00002206,-0.00001718,-0.00004335,-0
 .00001672,0.00001706,0.00005434,-0.00001779,0.00018203,-0.00007908,-0.
 00006471,0.00007780,0.00017691,0.00005519,-0.00006103,0.00000500,-0.00
 001491,0.00022363,0.00011286,-0.00019951,0.00012286,0.00016097,-0.0001
 5455,-0.00108552,0.00024839,-0.00020735,0.01667120,-0.02655407,-0.0025
 8482,-0.01256508,0.02455608,0.05548445,0.00174845,-0.00110288,0.000167
 54,0.01134120,0.01552634,-0.00357733,-0.00218694,0.00256249,0.00056833
 ,-0.00011226,0.00000848,0.00026265,-0.00027775,0.00022554,-0.00007710,
 -0.00268517,0.00198793,-0.00429617,-0.00000074,-0.00150281,0.00057991,
 -0.00037298,0.00021750,-0.00039367,-0.00017005,-0.00000277,0.00009388,
 0.00007540,-0.00016614,-0.00000955,-0.01364849,-0.01756268,0.00483515,
 -0.15349980,-0.13029307,0.02718461,0.00055140,0.00086782,0.00008345,0.
 00003267,-0.00003260,0.00000838,0.00005031,-0.00001044,-0.00006156,0.0
 0005766,-0.00007441,-0.00012311,0.00006045,-0.00005661,-0.00000148,0.0
 0006378,-0.00012241,0.00001840,0.00029203,0.00042455,-0.00005623,0.000
 01653,0.00001224,0.00002877,-0.00015077,-0.00017293,0.00001431,0.00002
 087,-0.00003703,-0.00000495,0.00004070,0.00002807,-0.00000350,0.000017
 35,-0.00001780,-0.00001542,-0.00001251,0.00000072,-0.00009990,0.000010
 71,0.00000458,0.00001857,-0.00005795,0.00003075,-0.00002042,0.00003138
 ,0.00003684,-0.00000852,0.00121584,0.00020895,0.00002825,0.00023144,0.
 00034095,0.00060295,0.16495506,-0.00005089,0.00606904,-0.00100893,-0.0
 2202134,-0.02725406,0.00567389,0.00489539,-0.00286622,-0.00081633,0.00
 023051,0.00024400,-0.00046429,0.00045567,0.00035156,0.00040904,0.00060
 359,0.00087781,0.00019195,0.00020195,0.00014717,0.00017054,0.00003609,
 -0.00001030,-0.00001979,-0.00003234,-0.00003434,-0.00000998,-0.0000329
 8,-0.00000022,-0.00004532,0.00157824,0.00217009,-0.00112394,-0.1260934
 4,-0.20465417,0.03402130,-0.00075375,-0.00149421,0.00000638,0.00000090
 ,-0.00003452,0.00007295,-0.00012739,0.00003032,0.00009458,-0.00008295,
 0.00013122,0.00012624,-0.00002831,-0.00001885,-0.00008487,-0.00011703,
 0.00002953,-0.00005378,-0.00000880,-0.00003759,0.00006877,0.00000762,-
 0.00000278,-0.00000027,0.00000470,0.00001764,-0.00000025,0.00000367,0.
 00001749,0.00002010,0.00000427,0.00001840,-0.00000070,-0.00000097,0.00
 000686,0.00001983,-0.00000106,0.00001172,-0.00000748,-0.00000056,-0.00
 000211,0.00000410,-0.00002065,0.00000996,0.00000178,0.00000517,-0.0000
 0107,0.00000803,-0.00008016,0.00011126,-0.00039998,-0.00021219,0.00043
 289,-0.00041256,0.13825712,0.22167638,-0.00091147,0.00023283,-0.001132
 49,0.00065369,-0.00307469,-0.00036544,0.00007048,-0.00016043,0.0010464
 6,0.00014047,-0.00021896,0.00003860,-0.00007657,0.00045879,-0.00002825
 ,-0.00278258,0.00154537,-0.00353167,-0.00045750,-0.00123563,0.00074824
 ,-0.00037200,0.00015595,-0.00037593,0.00000197,-0.00001587,0.00015627,
 0.00008459,-0.00012100,-0.00003447,-0.01434108,-0.01927032,0.00397358,
 0.02670575,0.03440870,-0.05713503,0.00013217,0.00005053,0.00016570,-0.
 00003603,0.00001977,0.00001270,-0.00015519,0.00012484,0.00009941,-0.00
 027961,-0.00006599,0.00021586,0.00002931,-0.00003630,-0.00001157,0.000
 08219,-0.00008142,0.00004746,-0.00025310,-0.00002874,0.00032628,0.0000
 0769,0.00001834,0.00001810,-0.00013837,-0.00016203,0.00001652,0.000017
 97,-0.00002983,-0.00000543,0.00002563,0.00003934,-0.00002076,0.0000062
 4,-0.00001488,-0.00001777,-0.00000244,0.00001264,-0.00003471,-0.000007
 58,0.00001099,0.00001262,-0.00004081,0.00002226,-0.00000217,0.00001927
 ,0.00002853,0.00000701,0.00085843,-0.00037789,0.00080782,0.00067725,0.
 00032339,0.00067406,-0.02764995,-0.03627649,0.05876080,-0.00111502,0.0
 0364719,-0.00343609,-0.01034176,-0.00008857,0.01772759,0.00011868,0.00
 026036,-0.00116213,0.00006132,0.00000519,0.00023622,-0.00012111,-0.000
 27595,0.00002644,0.00174358,0.00057967,-0.00053100,0.00005541,0.000326
 36,-0.00014183,0.00004847,-0.00003194,0.00010175,-0.00004503,0.0001084
 8,-0.00016257,0.00004984,0.00002966,0.00000990,0.00864905,-0.00356803,
 -0.02598409,-0.08414082,0.00980334,0.09792397,-0.00008186,-0.00008772,
 -0.00013383,-0.00010249,0.00008989,0.00003360,0.00011981,-0.00011621,-
 0.00020819,0.00042380,-0.00029299,-0.00007736,-0.00010030,0.00009076,0
 .00002475,0.00000342,0.00001021,-0.00001320,-0.00032468,-0.00007080,0.
 00044430,-0.00002044,-0.00002127,0.00001002,0.00003304,0.00003496,0.00
 000354,-0.00000345,0.00001477,0.00000097,-0.00004032,-0.00012123,0.000
 14087,-0.00000244,-0.00000414,0.00001714,-0.00005473,-0.00009022,0.000
 03269,-0.00005425,-0.00000320,0.00003161,0.00001787,0.00001212,0.00002
 485,0.00001164,0.00000722,-0.00003899,-0.00356463,-0.00040250,-0.00384
 334,0.00160629,-0.00007770,0.00089761,-0.00763779,0.00337989,0.0179911
 7,0.09480888,0.00244149,-0.00272965,0.00361342,0.01126712,0.00134281,-
 0.02933241,-0.00123291,-0.00022851,0.00356095,-0.00001119,-0.00176910,
 -0.00033046,0.00033412,0.00013049,0.00013712,0.00037599,0.00004550,-0.
 00102035,-0.00009244,0.00004208,0.00008402,0.00002128,-0.00002468,-0.0
 0000527,0.00004417,-0.00004032,0.00001716,-0.00000571,0.00003188,-0.00
 000730,-0.00066533,0.00052047,0.00114223,0.01114981,-0.05453897,-0.030
 90479,0.00019280,0.00035185,0.00027475,0.00002690,-0.00002380,0.000023
 77,-0.00017508,0.00006250,0.00056016,-0.00051492,-0.00051842,0.0003621
 6,-0.00000793,0.00009002,0.00005522,0.00002571,-0.00002710,-0.00000970
 ,-0.00036555,0.00001976,0.00003028,-0.00002012,-0.00000363,0.00000716,
 0.00001583,0.00000748,0.00001755,-0.00000600,-0.00000452,-0.00000178,-
 0.00000980,0.00001329,-0.00000282,-0.00000241,-0.00000127,-0.00000792,
 0.00001389,0.00000104,0.00002231,0.00000414,0.00002255,-0.00001416,0.0
 0000950,-0.00002295,-0.00000090,-0.00000674,-0.00002177,0.00003547,0.0
 0045333,0.00100373,0.00029639,-0.00052604,0.00019225,0.00044827,-0.009
 58629,0.00405710,0.02371822,-0.01314763,0.05201988,-0.00085419,-0.0005
 9953,-0.00065601,0.00108763,-0.00043508,0.00074140,0.00067638,-0.00069
 813,-0.00065044,0.00081143,0.00054647,-0.00035388,-0.00021494,-0.00004
 881,-0.00006014,0.00163313,0.00075397,0.00039757,-0.00021627,0.0001050
 8,0.00020505,-0.00003222,-0.00000086,0.00000087,0.00015024,0.00020976,
 -0.00009270,0.00003097,0.00007092,-0.00009062,0.00739702,-0.00245085,-
 0.02408083,0.09337262,-0.02467938,-0.25086371,-0.00004703,-0.00013019,
 0.00004351,-0.00012065,0.00003364,0.00002905,-0.00023636,0.00029020,-0
 .00002062,-0.00039617,0.00049851,0.00050361,-0.00002740,0.00017099,0.0
 0013494,0.00000377,-0.00006143,0.00001398,-0.00076105,-0.00065991,0.00
 065191,-0.00002684,-0.00001655,0.00002565,-0.00000428,-0.00000406,0.00
 000416,0.00000195,0.00000603,-0.00000250,-0.00003373,-0.00016602,0.000
 15464,-0.00000768,-0.00000769,0.00001656,-0.00007793,-0.00007863,0.000
 08187,-0.00006237,-0.00000927,0.00005717,-0.00001778,-0.00001576,0.000
 03518,0.00003181,-0.00006083,-0.00000876,-0.00446955,-0.00003645,-0.00
 202323,0.00045215,0.00040710,0.00130692,0.00190372,-0.00016449,-0.0044
 3179,-0.09994638,0.02723127,0.27893117\\0.00009911,0.00001562,-0.00002
 816,-0.00005800,-0.00002190,0.00003400,0.00003930,0.00002102,0.0000486
 7,0.00000276,0.00001806,-0.00000684,-0.00007085,-0.00000140,-0.0000557
 0,-0.00000187,-0.00000527,-0.00000961,0.00002279,0.00003721,-0.0000052
 8,0.00001102,0.00000900,0.00003797,0.00001612,-0.00001605,0.00000050,-
 0.00003423,0.00001020,-0.00000776,-0.00001329,-0.00000059,0.00001207,0
 .00001830,0.00002294,0.00002275,-0.00000431,-0.00000099,-0.00000838,-0
 .00000714,-0.00000036,-0.00000236,0.00000170,0.00000375,-0.00002065,-0
 .00002147,0.00000609,-0.00000148,-0.00000300,0.00000913,0.00001901,-0.
 00005100,-0.00001322,-0.00001084,0.00002913,-0.00001369,-0.00002740,-0
 .00001505,-0.00000413,0.00000457,-0.00000115,0.00000683,-0.00000437,0.
 00002480,-0.00000445,0.00000090,0.00001722,0.00000869,0.00001667,-0.00
 000946,-0.00000468,0.00000050,0.00000318,-0.00000622,0.00000979,-0.000
 00185,-0.00000106,-0.00000271,0.00000353,-0.00000995,-0.00000262,-0.00
 003486,-0.00002145,-0.00001329,0.00000776,0.00000581,0.00001090,0.0000
 3555,-0.00002434,0.00000454,0.00000473,-0.00001804,-0.00000707,-0.0000
 0948,-0.00000657,-0.00000834\\\@


 Everything starts as somebody's daydream.
                           -- Larry Niven
 Job cpu time:       0 days  0 hours  3 minutes 12.3 seconds.
 Elapsed time:       0 days  0 hours  3 minutes 29.0 seconds.
 File lengths (MBytes):  RWF=    188 Int=      0 D2E=      0 Chk=     16 Scr=      1
 Normal termination of Gaussian 16 at Sat Feb 24 04:35:44 2024.
