 Entering Gaussian System, Link 0=g16
 Input=/Volumes/SSD-PMU3/b3lyp_6-31gd_freq/USMNOWBWPHYOEA-KHQFGBGNSA-N_calculating/gaussianinput1.gjf
 Output=/Volumes/SSD-PMU3/b3lyp_6-31gd_freq/USMNOWBWPHYOEA-KHQFGBGNSA-N_calculating/gaussianinput1.log
 Initial command:
 /Applications/g16/l1.exe "/Users/macmini_m1_2022/PycharmProjects/sphere_model/sphere_model_lib/Gau-59063.inp" -scrdir="/Users/macmini_m1_2022/PycharmProjects/sphere_model/sphere_model_lib/"
 Entering Link 1 = /Applications/g16/l1.exe PID=     59064.
  
 Copyright (c) 1988,1990,1992,1993,1995,1998,2003,2009,2016,
            Gaussian, Inc.  All Rights Reserved.
  
 This is part of the Gaussian(R) 16 program.  It is based on
 the Gaussian(R) 09 system (copyright 2009, Gaussian, Inc.),
 the Gaussian(R) 03 system (copyright 2003, Gaussian, Inc.),
 the Gaussian(R) 98 system (copyright 1998, Gaussian, Inc.),
 the Gaussian(R) 94 system (copyright 1995, Gaussian, Inc.),
 the Gaussian 92(TM) system (copyright 1992, Gaussian, Inc.),
 the Gaussian 90(TM) system (copyright 1990, Gaussian, Inc.),
 the Gaussian 88(TM) system (copyright 1988, Gaussian, Inc.),
 the Gaussian 86(TM) system (copyright 1986, Carnegie Mellon
 University), and the Gaussian 82(TM) system (copyright 1983,
 Carnegie Mellon University). Gaussian is a federally registered
 trademark of Gaussian, Inc.
  
 This software contains proprietary and confidential information,
 including trade secrets, belonging to Gaussian, Inc.
  
 This software is provided under written license and may be
 used, copied, transmitted, or stored only in accord with that
 written license.
  
 The following legend is applicable only to US Government
 contracts under FAR:
  
                    RESTRICTED RIGHTS LEGEND
  
 Use, reproduction and disclosure by the US Government is
 subject to restrictions as set forth in subparagraphs (a)
 and (c) of the Commercial Computer Software - Restricted
 Rights clause in FAR 52.227-19.
  
 Gaussian, Inc.
 340 Quinnipiac St., Bldg. 40, Wallingford CT 06492
  
  
 ---------------------------------------------------------------
 Warning -- This program may not be used in any manner that
 competes with the business of Gaussian, Inc. or will provide
 assistance to any competitor of Gaussian, Inc.  The licensee
 of this program is prohibited from giving any competitor of
 Gaussian, Inc. access to this program.  By using this program,
 the user acknowledges that Gaussian, Inc. is engaged in the
 business of creating and licensing software in the field of
 computational chemistry and represents and warrants to the
 licensee that it is not a competitor of Gaussian, Inc. and that
 it will not use this program in any manner prohibited above.
 ---------------------------------------------------------------
  

 Cite this work as:
 Gaussian 16, Revision A.03,
 M. J. Frisch, G. W. Trucks, H. B. Schlegel, G. E. Scuseria, 
 M. A. Robb, J. R. Cheeseman, G. Scalmani, V. Barone, 
 G. A. Petersson, H. Nakatsuji, X. Li, M. Caricato, A. V. Marenich, 
 J. Bloino, B. G. Janesko, R. Gomperts, B. Mennucci, H. P. Hratchian, 
 J. V. Ortiz, A. F. Izmaylov, J. L. Sonnenberg, D. Williams-Young, 
 F. Ding, F. Lipparini, F. Egidi, J. Goings, B. Peng, A. Petrone, 
 T. Henderson, D. Ranasinghe, V. G. Zakrzewski, J. Gao, N. Rega, 
 G. Zheng, W. Liang, M. Hada, M. Ehara, K. Toyota, R. Fukuda, 
 J. Hasegawa, M. Ishida, T. Nakajima, Y. Honda, O. Kitao, H. Nakai, 
 T. Vreven, K. Throssell, J. A. Montgomery, Jr., J. E. Peralta, 
 F. Ogliaro, M. J. Bearpark, J. J. Heyd, E. N. Brothers, K. N. Kudin, 
 V. N. Staroverov, T. A. Keith, R. Kobayashi, J. Normand, 
 K. Raghavachari, A. P. Rendell, J. C. Burant, S. S. Iyengar, 
 J. Tomasi, M. Cossi, J. M. Millam, M. Klene, C. Adamo, R. Cammi, 
 J. W. Ochterski, R. L. Martin, K. Morokuma, O. Farkas, 
 J. B. Foresman, and D. J. Fox, Gaussian, Inc., Wallingford CT, 2016.
 
 ******************************************
 Gaussian 16:  EM64M-G16RevA.03 25-Dec-2016
                22-Feb-2024 
 ******************************************
 %nprocshared=8
 Will use up to    8 processors via shared memory.
 %mem=4GB
 %chk= 1.chk
 ---------------------
 # freq b3lyp/6-31g(d)
 ---------------------
 1/10=4,30=1,38=1/1,3;
 2/12=2,17=6,18=5,40=1/2;
 3/5=1,6=6,7=1,11=2,25=1,30=1,71=2,74=-5,140=1/1,2,3;
 4//1;
 5/5=2,38=5,98=1/2;
 8/6=4,10=90,11=11/1;
 11/6=1,8=1,9=11,15=111,16=1/1,2,10;
 10/6=1/2;
 6/7=2,8=2,9=2,10=2,28=1/1;
 7/8=1,10=1,25=1/1,2,3,16;
 1/10=4,30=1/3;
 99//99;
 ---------
 good luck
 ---------
 Symbolic Z-matrix:
 Charge =  0 Multiplicity = 1
 O                     1.21159   0.        0. 
 C                     0.        0.        0. 
 C                    -0.88468  -1.2612   -0.00184 
 C                    -0.26638  -2.41802  -0.79077 
 C                    -2.23887  -0.75076  -0.46866 
 C                    -2.28299   0.05063  -1.74952 
 C                    -2.28012   0.7746   -0.41932 
 C                    -3.48374   1.56916   0.1037 
 C                    -4.80292   1.26414  -0.62196 
 C                    -3.66256   1.37463   1.62087 
 C                    -0.88943   1.24937  -0.00184 
 H                    -0.9688   -1.56263   1.05615 
 H                    -0.23593  -2.18772  -1.8615 
 H                     0.75952  -2.59691  -0.45449 
 H                    -0.84533  -3.33832  -0.65907 
 H                    -3.12313  -1.32756  -0.20755 
 H                    -1.38908   0.10392  -2.37067 
 H                    -3.20421   0.01777  -2.32183 
 H                    -3.25942   2.63277  -0.07184 
 H                    -5.0784    0.20511  -0.53613 
 H                    -5.61882   1.84805  -0.18145 
 H                    -4.75234   1.5171   -1.68582 
 H                    -2.75246   1.61535   2.1813 
 H                    -4.4629    2.01821   2.00388 
 H                    -3.92963   0.33564   1.85006 
 H                    -0.46022   2.01636  -0.65714 
 H                    -0.88877   1.6658    1.01525 
 

 GradGradGradGradGradGradGradGradGradGradGradGradGradGradGradGradGradGrad
 Berny optimization.
 Initialization pass.
 Trust Radius=3.00D-01 FncErr=1.00D-07 GrdErr=1.00D-07 EigMax=2.50D+02 EigMin=1.00D-04
 Number of steps in this run=      2 maximum allowed number of steps=      2.
 GradGradGradGradGradGradGradGradGradGradGradGradGradGradGradGradGradGrad

                          Input orientation:                          
 ---------------------------------------------------------------------
 Center     Atomic      Atomic             Coordinates (Angstroms)
 Number     Number       Type             X           Y           Z
 ---------------------------------------------------------------------
      1          8           0        1.211587    0.000000    0.000000
      2          6           0        0.000000    0.000000    0.000000
      3          6           0       -0.884676   -1.261199   -0.001840
      4          6           0       -0.266378   -2.418017   -0.790772
      5          6           0       -2.238874   -0.750762   -0.468664
      6          6           0       -2.282988    0.050630   -1.749523
      7          6           0       -2.280115    0.774596   -0.419323
      8          6           0       -3.483735    1.569160    0.103700
      9          6           0       -4.802920    1.264143   -0.621960
     10          6           0       -3.662556    1.374630    1.620870
     11          6           0       -0.889432    1.249370   -0.001840
     12          1           0       -0.968797   -1.562625    1.056154
     13          1           0       -0.235932   -2.187716   -1.861502
     14          1           0        0.759519   -2.596907   -0.454493
     15          1           0       -0.845330   -3.338316   -0.659071
     16          1           0       -3.123130   -1.327555   -0.207545
     17          1           0       -1.389080    0.103916   -2.370672
     18          1           0       -3.204207    0.017772   -2.321834
     19          1           0       -3.259417    2.632765   -0.071835
     20          1           0       -5.078398    0.205107   -0.536134
     21          1           0       -5.618816    1.848052   -0.181448
     22          1           0       -4.752337    1.517102   -1.685819
     23          1           0       -2.752462    1.615352    2.181297
     24          1           0       -4.462901    2.018213    2.003882
     25          1           0       -3.929634    0.335643    1.850060
     26          1           0       -0.460218    2.016365   -0.657141
     27          1           0       -0.888768    1.665796    1.015253
 ---------------------------------------------------------------------
                    Distance matrix (angstroms):
                    1          2          3          4          5
     1  O    0.000000
     2  C    1.211587   0.000000
     3  C    2.446415   1.540545   0.000000
     4  C    2.942194   2.557945   1.530665   0.000000
     5  C    3.562158   2.407456   1.520632   2.602736   0.000000
     6  C    3.908382   2.876704   2.594334   3.328684   1.511547
     7  C    3.601085   2.444331   2.503199   3.792873   1.526713
     8  C    4.951673   3.822228   3.844110   5.200870   2.694312
     9  C    6.177312   5.005290   4.702610   5.845256   3.264609
    10  C    5.317339   4.234518   4.159014   5.633313   3.303076
    11  C    2.444424   1.533629   2.510574   3.802675   2.457529
    12  H    2.882938   2.120336   1.103307   2.153189   2.144129
    13  H    3.216613   2.882179   2.176613   1.095641   2.831362
    14  H    2.674856   2.743603   2.166192   1.094326   3.521195
    15  H    3.976133   3.506182   2.178971   1.095208   2.945107
    16  H    4.538199   3.399914   2.248865   3.112924   1.087558
    17  H    3.520561   2.749623   2.780167   3.180674   2.251724
    18  H    4.989035   3.957041   3.521131   4.111941   2.226376
    19  H    5.189074   4.190514   4.561496   5.914859   3.556295
    20  H    6.316124   5.110737   4.474687   5.486452   2.996854
    21  H    7.078321   5.917712   5.666726   6.871624   4.273211
    22  H    6.380594   5.265766   5.051093   6.034078   3.597523
    23  H    4.804280   3.865678   4.065619   5.593020   3.589507
    24  H    6.347325   5.292090   5.251777   6.715730   4.327471
    25  H    5.474261   4.356306   3.905279   5.289242   3.068457
    26  H    2.700462   2.170107   3.369274   4.440628   3.294865
    27  H    2.866550   2.143717   3.098676   4.508506   3.140788
                    6          7          8          9         10
     6  C    0.000000
     7  C    1.514453   0.000000
     8  C    2.679956   1.534140   0.000000
     9  C    3.015637   2.577841   1.536186   0.000000
    10  C    3.875014   2.536449   1.540008   2.518516   0.000000
    11  C    2.536409   1.527646   2.616068   3.962342   3.215446
    12  H    3.493066   3.059279   4.127973   5.050464   4.025259
    13  H    3.035320   3.877352   5.340820   5.857403   6.046402
    14  H    4.235965   4.539564   5.972679   6.773218   6.295632
    15  H    3.839388   4.362583   5.623728   6.070134   5.945314
    16  H    2.232247   2.274767   2.935620   3.116141   3.306945
    17  H    1.089833   2.247558   3.557673   4.007296   4.766111
    18  H    1.085018   2.246392   2.892776   2.645543   4.194766
    19  H    3.230398   2.128984   1.101084   2.134986   2.147248
    20  H    3.051310   2.858033   2.193850   1.097639   2.832853
    21  H    4.100894   3.515084   2.172018   1.095759   2.701746
    22  H    2.872679   2.875275   2.194183   1.094688   3.484553
    23  H    4.256772   2.773663   2.203021   3.490842   1.095580
    24  H    4.765653   3.490424   2.184286   2.753049   1.096106
    25  H    3.968586   2.839664   2.184070   2.781299   1.096974
    26  H    2.894806   2.215981   3.149687   4.407509   3.981975
    27  H    3.492363   2.188171   2.752112   4.261734   2.854023
                   11         12         13         14         15
    11  C    0.000000
    12  H    3.005489   0.000000
    13  H    3.962192   3.072547   0.000000
    14  H    4.209249   2.517711   1.771450   0.000000
    15  H    4.634734   2.471906   1.772311   1.779629   0.000000
    16  H    3.416469   2.508654   3.436766   4.092334   3.071711
    17  H    2.678260   3.833684   2.615451   3.947488   3.882551
    18  H    3.501055   4.348047   3.726492   5.102414   4.426331
    19  H    2.745088   4.911272   5.965015   6.606644   6.467339
    20  H    4.350102   4.748587   5.561626   6.476050   5.521759
    21  H    4.770509   5.898055   6.934367   7.779163   7.064892
    22  H    4.222499   5.596276   5.844181   6.987259   6.316170
    23  H    2.893253   3.814046   6.094298   6.084778   6.020272
    24  H    4.169379   5.092087   7.106216   7.390305   6.990747
    25  H    3.675222   3.605588   5.812613   5.991575   5.413561
    26  H    1.096324   4.000400   4.378937   4.776097   5.368512
    27  H    1.099040   3.229672   4.852986   4.800796   5.276967
                   16         17         18         19         20
    16  H    0.000000
    17  H    3.120121   0.000000
    18  H    2.507328   1.817826   0.000000
    19  H    3.964987   3.895881   3.450179   0.000000
    20  H    2.506012   4.121509   2.595460   3.068842   0.000000
    21  H    4.039011   5.072019   3.709651   2.488886   1.765537
    22  H    3.596065   3.711821   2.247045   2.465453   1.774661
    23  H    3.808499   4.986348   4.799430   2.523636   3.844893
    24  H    4.228423   5.678876   4.929289   2.476822   3.180860
    25  H    2.765938   4.931804   4.246409   3.069143   2.651532
    26  H    4.298260   2.730647   3.780880   2.925414   4.962145
    27  H    3.930364   3.762216   4.383308   2.781504   4.700363
                   21         22         23         24         25
    21  H    0.000000
    22  H    1.767327   0.000000
    23  H    3.721921   4.354738   0.000000
    24  H    2.478056   3.734806   1.766175   0.000000
    25  H    3.044297   3.817738   1.770058   1.771744   0.000000
    26  H    5.183218   4.441816   3.670412   4.806508   4.598666
    27  H    4.882485   4.716467   2.198990   3.725052   3.422437
                   26         27
    26  H    0.000000
    27  H    1.761663   0.000000
 Stoichiometry    C10H16O
 Framework group  C1[X(C10H16O)]
 Deg. of freedom    75
 Full point group                 C1      NOp   1
 Largest Abelian subgroup         C1      NOp   1
 Largest concise Abelian subgroup C1      NOp   1
                         Standard orientation:                         
 ---------------------------------------------------------------------
 Center     Atomic      Atomic             Coordinates (Angstroms)
 Number     Number       Type             X           Y           Z
 ---------------------------------------------------------------------
      1          8           0        2.694529    1.420769   -0.391187
      2          6           0        1.652162    0.858530   -0.135646
      3          6           0        1.519655   -0.408562    0.730493
      4          6           0        2.712824   -1.355776    0.581937
      5          6           0        0.150454   -0.956670    0.360103
      6          6           0       -0.149088   -1.163201   -1.107001
      7          6           0       -0.650364    0.086996   -0.414688
      8          6           0       -2.138016    0.365383   -0.163728
      9          6           0       -3.042952   -0.867076   -0.312059
     10          6           0       -2.358057    1.014732    1.215239
     11          6           0        0.264635    1.292226   -0.624212
     12          1           0        1.483720   -0.049357    1.773069
     13          1           0        2.739390   -1.795391   -0.421288
     14          1           0        3.648415   -0.809486    0.736165
     15          1           0        2.659125   -2.173680    1.308319
     16          1           0       -0.350979   -1.609515    1.070836
     17          1           0        0.660204   -1.066087   -1.830431
     18          1           0       -0.863737   -1.939011   -1.361284
     19          1           0       -2.456111    1.090956   -0.928414
     20          1           0       -2.761502   -1.664396    0.387854
     21          1           0       -4.083198   -0.598664   -0.096353
     22          1           0       -3.011090   -1.278063   -1.326169
     23          1           0       -1.755273    1.919610    1.349939
     24          1           0       -3.408475    1.298084    1.348590
     25          1           0       -2.094784    0.316581    2.019369
     26          1           0        0.322192    1.638373   -1.662862
     27          1           0       -0.051640    2.154416   -0.020484
 ---------------------------------------------------------------------
 Rotational constants (GHZ):           2.0144354           0.7485469           0.6608453
 Standard basis: 6-31G(d) (6D, 7F)
 There are   197 symmetry adapted cartesian basis functions of A   symmetry.
 There are   197 symmetry adapted basis functions of A   symmetry.
   197 basis functions,   372 primitive gaussians,   197 cartesian basis functions
    42 alpha electrons       42 beta electrons
       nuclear repulsion energy       645.7754696847 Hartrees.
 NAtoms=   27 NActive=   27 NUniq=   27 SFac= 1.00D+00 NAtFMM=   60 NAOKFM=F Big=F
 Integral buffers will be    131072 words long.
 Raffenetti 2 integral format.
 Two-electron integral symmetry is turned on.
 One-electron integrals computed using PRISM.
 NBasis=   197 RedAO= T EigKep=  1.78D-03  NBF=   197
 NBsUse=   197 1.00D-06 EigRej= -1.00D+00 NBFU=   197
 ExpMin= 1.61D-01 ExpMax= 5.48D+03 ExpMxC= 8.25D+02 IAcc=3 IRadAn=         5 AccDes= 0.00D+00
 Harris functional with IExCor=  402 and IRadAn=       5 diagonalized for initial guess.
 HarFok:  IExCor=  402 AccDes= 0.00D+00 IRadAn=         5 IDoV= 1 UseB2=F ITyADJ=14
 ICtDFT=  3500011 ScaDFX=  1.000000  1.000000  1.000000  1.000000
 FoFCou: FMM=F IPFlag=           0 FMFlag=      100000 FMFlg1=           0
         NFxFlg=           0 DoJE=T BraDBF=F KetDBF=T FulRan=T
         wScrn=  0.000000 ICntrl=       500 IOpCl=  0 I1Cent=   200000004 NGrid=           0
         NMat0=    1 NMatS0=      1 NMatT0=    0 NMatD0=    1 NMtDS0=    0 NMtDT0=    0
 Petite list used in FoFCou.
 Requested convergence on RMS density matrix=1.00D-08 within 128 cycles.
 Requested convergence on MAX density matrix=1.00D-06.
 Requested convergence on             energy=1.00D-06.
 No special actions if energy rises.
 Integral accuracy reduced to 1.0D-05 until final iterations.
 Initial convergence to 1.0D-05 achieved.  Increase integral accuracy.
 SCF Done:  E(RB3LYP) =  -465.901647159     A.U. after   13 cycles
            NFock= 13  Conv=0.94D-08     -V/T= 2.0098
 DoSCS=F DFT=T ScalE2(SS,OS)=  1.000000  1.000000
 Range of M.O.s used for correlation:     1   197
 NBasis=   197 NAE=    42 NBE=    42 NFC=     0 NFV=     0
 NROrb=    197 NOA=    42 NOB=    42 NVA=   155 NVB=   155
 Symmetrizing basis deriv contribution to polar:
 IMax=3 JMax=2 DiffMx= 0.00D+00
 G2DrvN: will do    28 centers at a time, making    1 passes.
 Calling FoFCou, ICntrl=  3107 FMM=F I1Cent=   0 AccDes= 0.00D+00.
 End of G2Drv F.D. properties file   721 does not exist.
 End of G2Drv F.D. properties file   722 does not exist.
 End of G2Drv F.D. properties file   788 does not exist.
          IDoAtm=111111111111111111111111111
          Differentiating once with respect to electric field.
                with respect to dipole field.
          Differentiating once with respect to nuclear coordinates.
 Keep R1 ints in memory in canonical form, NReq=198402016.
          There are    84 degrees of freedom in the 1st order CPHF.  IDoFFX=6 NUNeed=     3.
     81 vectors produced by pass  0 Test12= 7.75D-15 1.19D-09 XBig12= 7.16D+01 2.02D+00.
 AX will form    81 AO Fock derivatives at one time.
     81 vectors produced by pass  1 Test12= 7.75D-15 1.19D-09 XBig12= 1.22D+01 1.05D+00.
     81 vectors produced by pass  2 Test12= 7.75D-15 1.19D-09 XBig12= 1.15D-01 4.25D-02.
     81 vectors produced by pass  3 Test12= 7.75D-15 1.19D-09 XBig12= 3.05D-04 1.45D-03.
     81 vectors produced by pass  4 Test12= 7.75D-15 1.19D-09 XBig12= 2.90D-07 4.96D-05.
     38 vectors produced by pass  5 Test12= 7.75D-15 1.19D-09 XBig12= 2.21D-10 1.41D-06.
      4 vectors produced by pass  6 Test12= 7.75D-15 1.19D-09 XBig12= 1.79D-13 4.95D-08.
 InvSVY:  IOpt=1 It=  1 EMax= 1.07D-14
 Solved reduced A of dimension   447 with    84 vectors.
 Isotropic polarizability for W=    0.000000       99.90 Bohr**3.
 End of Minotr F.D. properties file   721 does not exist.
 End of Minotr F.D. properties file   722 does not exist.
 End of Minotr F.D. properties file   788 does not exist.

 **********************************************************************

            Population analysis using the SCF density.

 **********************************************************************

 Orbital symmetries:
       Occupied  (A) (A) (A) (A) (A) (A) (A) (A) (A) (A) (A) (A)
                 (A) (A) (A) (A) (A) (A) (A) (A) (A) (A) (A) (A)
                 (A) (A) (A) (A) (A) (A) (A) (A) (A) (A) (A) (A)
                 (A) (A) (A) (A) (A) (A)
       Virtual   (A) (A) (A) (A) (A) (A) (A) (A) (A) (A) (A) (A)
                 (A) (A) (A) (A) (A) (A) (A) (A) (A) (A) (A) (A)
                 (A) (A) (A) (A) (A) (A) (A) (A) (A) (A) (A) (A)
                 (A) (A) (A) (A) (A) (A) (A) (A) (A) (A) (A) (A)
                 (A) (A) (A) (A) (A) (A) (A) (A) (A) (A) (A) (A)
                 (A) (A) (A) (A) (A) (A) (A) (A) (A) (A) (A) (A)
                 (A) (A) (A) (A) (A) (A) (A) (A) (A) (A) (A) (A)
                 (A) (A) (A) (A) (A) (A) (A) (A) (A) (A) (A) (A)
                 (A) (A) (A) (A) (A) (A) (A) (A) (A) (A) (A) (A)
                 (A) (A) (A) (A) (A) (A) (A) (A) (A) (A) (A) (A)
                 (A) (A) (A) (A) (A) (A) (A) (A) (A) (A) (A) (A)
                 (A) (A) (A) (A) (A) (A) (A) (A) (A) (A) (A) (A)
                 (A) (A) (A) (A) (A) (A) (A) (A) (A) (A) (A)
 The electronic state is 1-A.
 Alpha  occ. eigenvalues --  -19.13766 -10.27022 -10.20186 -10.19800 -10.19697
 Alpha  occ. eigenvalues --  -10.19407 -10.19078 -10.18826 -10.17948 -10.17820
 Alpha  occ. eigenvalues --  -10.17533  -1.03690  -0.88965  -0.79439  -0.76024
 Alpha  occ. eigenvalues --   -0.73805  -0.68548  -0.65600  -0.61686  -0.58206
 Alpha  occ. eigenvalues --   -0.54196  -0.51523  -0.50148  -0.45590  -0.45156
 Alpha  occ. eigenvalues --   -0.44893  -0.43855  -0.42327  -0.41664  -0.39745
 Alpha  occ. eigenvalues --   -0.39398  -0.38341  -0.37162  -0.36945  -0.35734
 Alpha  occ. eigenvalues --   -0.34875  -0.34384  -0.33352  -0.33087  -0.28267
 Alpha  occ. eigenvalues --   -0.26703  -0.23723
 Alpha virt. eigenvalues --   -0.01625   0.07764   0.10020   0.11213   0.11732
 Alpha virt. eigenvalues --    0.12009   0.12592   0.14194   0.14884   0.15325
 Alpha virt. eigenvalues --    0.16077   0.16894   0.17277   0.18401   0.19196
 Alpha virt. eigenvalues --    0.19558   0.19816   0.20773   0.22922   0.23980
 Alpha virt. eigenvalues --    0.24275   0.24891   0.25183   0.26338   0.28454
 Alpha virt. eigenvalues --    0.30002   0.33061   0.36104   0.37958   0.47743
 Alpha virt. eigenvalues --    0.50472   0.50965   0.51418   0.53220   0.54531
 Alpha virt. eigenvalues --    0.56000   0.56540   0.58369   0.60043   0.61725
 Alpha virt. eigenvalues --    0.63220   0.65299   0.65488   0.67396   0.68134
 Alpha virt. eigenvalues --    0.68933   0.69212   0.72814   0.73895   0.75374
 Alpha virt. eigenvalues --    0.77150   0.78855   0.80765   0.82199   0.83310
 Alpha virt. eigenvalues --    0.84213   0.84865   0.85614   0.86996   0.88273
 Alpha virt. eigenvalues --    0.90064   0.90340   0.91064   0.91720   0.92195
 Alpha virt. eigenvalues --    0.92802   0.94260   0.95159   0.96945   0.97860
 Alpha virt. eigenvalues --    0.99471   1.00804   1.01220   1.02001   1.04437
 Alpha virt. eigenvalues --    1.08040   1.10713   1.13961   1.15722   1.19631
 Alpha virt. eigenvalues --    1.25434   1.26918   1.30675   1.38295   1.41069
 Alpha virt. eigenvalues --    1.46009   1.49423   1.52274   1.55745   1.61610
 Alpha virt. eigenvalues --    1.65179   1.68918   1.70496   1.73723   1.75459
 Alpha virt. eigenvalues --    1.77103   1.78426   1.79974   1.80514   1.81260
 Alpha virt. eigenvalues --    1.82291   1.85423   1.87234   1.90708   1.92710
 Alpha virt. eigenvalues --    1.93684   1.99960   2.00397   2.02442   2.02563
 Alpha virt. eigenvalues --    2.03029   2.06065   2.08464   2.10435   2.11602
 Alpha virt. eigenvalues --    2.15252   2.17646   2.19573   2.23428   2.24992
 Alpha virt. eigenvalues --    2.26448   2.28394   2.31227   2.32033   2.34545
 Alpha virt. eigenvalues --    2.38419   2.40435   2.40745   2.45535   2.48434
 Alpha virt. eigenvalues --    2.49688   2.56435   2.57741   2.60050   2.60920
 Alpha virt. eigenvalues --    2.69593   2.70791   2.73932   2.80334   2.83110
 Alpha virt. eigenvalues --    2.84665   2.86234   2.99983   3.07910   4.04900
 Alpha virt. eigenvalues --    4.12733   4.18744   4.27903   4.28407   4.33172
 Alpha virt. eigenvalues --    4.44625   4.48199   4.63224   4.68810   4.70639
          Condensed to atoms (all electrons):
               1          2          3          4          5          6
     1  O    8.018519   0.565337  -0.079723  -0.000493   0.003823  -0.000061
     2  C    0.565337   4.557046   0.315193  -0.030436  -0.035544  -0.000143
     3  C   -0.079723   0.315193   5.210332   0.350261   0.336861  -0.031196
     4  C   -0.000493  -0.030436   0.350261   5.084624  -0.045970  -0.008738
     5  C    0.003823  -0.035544   0.336861  -0.045970   5.135121   0.219461
     6  C   -0.000061  -0.000143  -0.031196  -0.008738   0.219461   5.266007
     7  C    0.002654  -0.034071  -0.008476   0.002502   0.317833   0.264937
     8  C   -0.000049   0.002498   0.002474  -0.000094  -0.037052  -0.027500
     9  C    0.000000  -0.000077   0.000137  -0.000001  -0.003452  -0.008811
    10  C   -0.000000  -0.000056   0.000138  -0.000003  -0.007861   0.005395
    11  C   -0.067913   0.316275  -0.183780   0.007487  -0.040792  -0.041294
    12  H   -0.000931  -0.033047   0.358077  -0.035674  -0.042352   0.005750
    13  H    0.000519  -0.004989  -0.037129   0.379654  -0.005592   0.005121
    14  H    0.009652  -0.005123  -0.031368   0.364961   0.004985   0.000190
    15  H    0.000170   0.004223  -0.028499   0.369389  -0.001597  -0.000145
    16  H   -0.000061   0.002930  -0.026250   0.000999   0.367080  -0.027677
    17  H   -0.000246   0.000742  -0.005008   0.001461  -0.022267   0.367626
    18  H    0.000005  -0.000133   0.001738   0.000291  -0.013860   0.365968
    19  H    0.000001   0.000068  -0.000122   0.000003   0.006029  -0.001986
    20  H   -0.000000   0.000001  -0.000020   0.000003   0.003708  -0.001947
    21  H   -0.000000   0.000001   0.000002  -0.000000  -0.000090   0.000428
    22  H    0.000000   0.000001  -0.000005  -0.000000  -0.000534   0.001762
    23  H    0.000002  -0.000310   0.000181  -0.000000  -0.000393   0.000033
    24  H   -0.000000  -0.000001   0.000001   0.000000   0.000201  -0.000173
    25  H   -0.000000   0.000000  -0.000238   0.000007   0.004891  -0.000172
    26  H    0.000989  -0.023408   0.006446  -0.000135   0.005280  -0.009365
    27  H   -0.000209  -0.019226   0.004112  -0.000059  -0.002390   0.005959
               7          8          9         10         11         12
     1  O    0.002654  -0.000049   0.000000  -0.000000  -0.067913  -0.000931
     2  C   -0.034071   0.002498  -0.000077  -0.000056   0.316275  -0.033047
     3  C   -0.008476   0.002474   0.000137   0.000138  -0.183780   0.358077
     4  C    0.002502  -0.000094  -0.000001  -0.000003   0.007487  -0.035674
     5  C    0.317833  -0.037052  -0.003452  -0.007861  -0.040792  -0.042352
     6  C    0.264937  -0.027500  -0.008811   0.005395  -0.041294   0.005750
     7  C    4.887071   0.391729  -0.036227  -0.047473   0.345160  -0.002721
     8  C    0.391729   4.880857   0.371391   0.367828  -0.028997   0.000038
     9  C   -0.036227   0.371391   5.128149  -0.055274   0.003830   0.000000
    10  C   -0.047473   0.367828  -0.055274   5.135280  -0.005997   0.000135
    11  C    0.345160  -0.028997   0.003830  -0.005997   5.378199   0.006390
    12  H   -0.002721   0.000038   0.000000   0.000135   0.006390   0.593214
    13  H   -0.000292  -0.000003   0.000000  -0.000000   0.000380   0.005318
    14  H   -0.000161   0.000003  -0.000000   0.000000   0.000499  -0.000475
    15  H    0.000055   0.000002  -0.000000  -0.000000  -0.000177  -0.004816
    16  H   -0.030509  -0.004067   0.000360   0.000879   0.003713  -0.004846
    17  H   -0.025055   0.001705  -0.000042  -0.000094  -0.005270   0.000098
    18  H   -0.016978  -0.009144   0.004831   0.000140   0.002540  -0.000112
    19  H   -0.044561   0.372175  -0.047604  -0.049811  -0.007221  -0.000008
    20  H   -0.007772  -0.031688   0.370577  -0.005378  -0.000017  -0.000004
    21  H    0.004244  -0.029187   0.370076  -0.004034  -0.000092  -0.000000
    22  H   -0.002907  -0.027092   0.367880   0.005270  -0.000081  -0.000000
    23  H   -0.004090  -0.030711   0.005297   0.368753   0.001627   0.000024
    24  H    0.004780  -0.027576  -0.003970   0.365941   0.000084  -0.000001
    25  H   -0.006630  -0.033224  -0.005773   0.371326  -0.000128   0.000049
    26  H   -0.027558  -0.000335  -0.000076   0.000030   0.346616  -0.000104
    27  H   -0.035871  -0.006565   0.000099   0.002719   0.344706  -0.000620
              13         14         15         16         17         18
     1  O    0.000519   0.009652   0.000170  -0.000061  -0.000246   0.000005
     2  C   -0.004989  -0.005123   0.004223   0.002930   0.000742  -0.000133
     3  C   -0.037129  -0.031368  -0.028499  -0.026250  -0.005008   0.001738
     4  C    0.379654   0.364961   0.369389   0.000999   0.001461   0.000291
     5  C   -0.005592   0.004985  -0.001597   0.367080  -0.022267  -0.013860
     6  C    0.005121   0.000190  -0.000145  -0.027677   0.367626   0.365968
     7  C   -0.000292  -0.000161   0.000055  -0.030509  -0.025055  -0.016978
     8  C   -0.000003   0.000003   0.000002  -0.004067   0.001705  -0.009144
     9  C    0.000000  -0.000000  -0.000000   0.000360  -0.000042   0.004831
    10  C   -0.000000   0.000000  -0.000000   0.000879  -0.000094   0.000140
    11  C    0.000380   0.000499  -0.000177   0.003713  -0.005270   0.002540
    12  H    0.005318  -0.000475  -0.004816  -0.004846   0.000098  -0.000112
    13  H    0.565574  -0.027174  -0.031468  -0.000270   0.002041  -0.000141
    14  H   -0.027174   0.546579  -0.029779  -0.000129  -0.000151  -0.000001
    15  H   -0.031468  -0.029779   0.579746   0.001088   0.000021  -0.000023
    16  H   -0.000270  -0.000129   0.001088   0.578758   0.001924  -0.005102
    17  H    0.002041  -0.000151   0.000021   0.001924   0.558164  -0.029847
    18  H   -0.000141  -0.000001  -0.000023  -0.005102  -0.029847   0.541420
    19  H   -0.000000  -0.000000  -0.000000   0.000050   0.000181   0.000390
    20  H   -0.000000  -0.000000  -0.000000   0.002895   0.000057   0.000918
    21  H   -0.000000   0.000000   0.000000  -0.000101  -0.000004  -0.000124
    22  H   -0.000000  -0.000000   0.000000   0.000127  -0.000019   0.002540
    23  H   -0.000000  -0.000000   0.000000   0.000040  -0.000002  -0.000002
    24  H    0.000000  -0.000000  -0.000000  -0.000072   0.000002  -0.000002
    25  H   -0.000000  -0.000000  -0.000000   0.001175   0.000003   0.000000
    26  H    0.000005  -0.000016   0.000002  -0.000105   0.003168   0.000213
    27  H   -0.000009  -0.000010   0.000003   0.000114   0.000085  -0.000124
              19         20         21         22         23         24
     1  O    0.000001  -0.000000  -0.000000   0.000000   0.000002  -0.000000
     2  C    0.000068   0.000001   0.000001   0.000001  -0.000310  -0.000001
     3  C   -0.000122  -0.000020   0.000002  -0.000005   0.000181   0.000001
     4  C    0.000003   0.000003  -0.000000  -0.000000  -0.000000   0.000000
     5  C    0.006029   0.003708  -0.000090  -0.000534  -0.000393   0.000201
     6  C   -0.001986  -0.001947   0.000428   0.001762   0.000033  -0.000173
     7  C   -0.044561  -0.007772   0.004244  -0.002907  -0.004090   0.004780
     8  C    0.372175  -0.031688  -0.029187  -0.027092  -0.030711  -0.027576
     9  C   -0.047604   0.370577   0.370076   0.367880   0.005297  -0.003970
    10  C   -0.049811  -0.005378  -0.004034   0.005270   0.368753   0.365941
    11  C   -0.007221  -0.000017  -0.000092  -0.000081   0.001627   0.000084
    12  H   -0.000008  -0.000004  -0.000000  -0.000000   0.000024  -0.000001
    13  H   -0.000000  -0.000000  -0.000000  -0.000000  -0.000000   0.000000
    14  H   -0.000000  -0.000000   0.000000  -0.000000  -0.000000  -0.000000
    15  H   -0.000000  -0.000000   0.000000   0.000000   0.000000  -0.000000
    16  H    0.000050   0.002895  -0.000101   0.000127   0.000040  -0.000072
    17  H    0.000181   0.000057  -0.000004  -0.000019  -0.000002   0.000002
    18  H    0.000390   0.000918  -0.000124   0.002540  -0.000002  -0.000002
    19  H    0.643611   0.005849  -0.003345  -0.003840  -0.003209  -0.002863
    20  H    0.005849   0.579357  -0.031253  -0.032581  -0.000052  -0.000132
    21  H   -0.003345  -0.031253   0.572894  -0.028964   0.000001   0.004160
    22  H   -0.003840  -0.032581  -0.028964   0.569291  -0.000182  -0.000058
    23  H   -0.003209  -0.000052   0.000001  -0.000182   0.575887  -0.029912
    24  H   -0.002863  -0.000132   0.004160  -0.000058  -0.029912   0.577207
    25  H    0.005967   0.004589  -0.000240  -0.000002  -0.031195  -0.030864
    26  H    0.002149   0.000002   0.000002  -0.000007   0.000002   0.000004
    27  H   -0.000032  -0.000002  -0.000003   0.000009   0.006035  -0.000284
              25         26         27
     1  O   -0.000000   0.000989  -0.000209
     2  C    0.000000  -0.023408  -0.019226
     3  C   -0.000238   0.006446   0.004112
     4  C    0.000007  -0.000135  -0.000059
     5  C    0.004891   0.005280  -0.002390
     6  C   -0.000172  -0.009365   0.005959
     7  C   -0.006630  -0.027558  -0.035871
     8  C   -0.033224  -0.000335  -0.006565
     9  C   -0.005773  -0.000076   0.000099
    10  C    0.371326   0.000030   0.002719
    11  C   -0.000128   0.346616   0.344706
    12  H    0.000049  -0.000104  -0.000620
    13  H   -0.000000   0.000005  -0.000009
    14  H   -0.000000  -0.000016  -0.000010
    15  H   -0.000000   0.000002   0.000003
    16  H    0.001175  -0.000105   0.000114
    17  H    0.000003   0.003168   0.000085
    18  H    0.000000   0.000213  -0.000124
    19  H    0.005967   0.002149  -0.000032
    20  H    0.004589   0.000002  -0.000002
    21  H   -0.000240   0.000002  -0.000003
    22  H   -0.000002  -0.000007   0.000009
    23  H   -0.031195   0.000002   0.006035
    24  H   -0.030864   0.000004  -0.000284
    25  H    0.577471   0.000009   0.000030
    26  H    0.000009   0.552857  -0.026982
    27  H    0.000030  -0.026982   0.559501
 Mulliken charges:
               1
     1  O   -0.451985
     2  C    0.422249
     3  C   -0.154137
     4  C   -0.440038
     5  C   -0.145525
     6  C   -0.349429
     7  C    0.110388
     8  C   -0.097415
     9  C   -0.461320
    10  C   -0.447853
    11  C   -0.375748
    12  H    0.156620
    13  H    0.148457
    14  H    0.167516
    15  H    0.141806
    16  H    0.137056
    17  H    0.150725
    18  H    0.154600
    19  H    0.128127
    20  H    0.142893
    21  H    0.145631
    22  H    0.149393
    23  H    0.142176
    24  H    0.143531
    25  H    0.142949
    26  H    0.170318
    27  H    0.169015
 Sum of Mulliken charges =  -0.00000
 Mulliken charges with hydrogens summed into heavy atoms:
               1
     1  O   -0.451985
     2  C    0.422249
     3  C    0.002483
     4  C    0.017741
     5  C   -0.008468
     6  C   -0.044104
     7  C    0.110388
     8  C    0.030712
     9  C   -0.023403
    10  C   -0.019197
    11  C   -0.036416
 APT charges:
               1
     1  O   -0.661863
     2  C    0.730318
     3  C    0.003130
     4  C    0.075041
     5  C    0.005090
     6  C   -0.040023
     7  C    0.041091
     8  C    0.172301
     9  C    0.046578
    10  C    0.044034
    11  C   -0.063632
    12  H   -0.043229
    13  H   -0.011824
    14  H   -0.003363
    15  H   -0.024779
    16  H   -0.020913
    17  H   -0.010915
    18  H    0.006542
    19  H   -0.087009
    20  H   -0.017302
    21  H   -0.026308
    22  H   -0.017975
    23  H   -0.021296
    24  H   -0.035481
    25  H   -0.016203
    26  H   -0.020359
    27  H   -0.001651
 Sum of APT charges =   0.00000
 APT charges with hydrogens summed into heavy atoms:
               1
     1  O   -0.661863
     2  C    0.730318
     3  C   -0.040099
     4  C    0.035075
     5  C   -0.015823
     6  C   -0.044396
     7  C    0.041091
     8  C    0.085292
     9  C   -0.015008
    10  C   -0.028945
    11  C   -0.085642
 Electronic spatial extent (au):  <R**2>=           1933.8768
 Charge=             -0.0000 electrons
 Dipole moment (field-independent basis, Debye):
    X=             -2.6154    Y=             -1.1962    Z=              0.6402  Tot=              2.9464
 Quadrupole moment (field-independent basis, Debye-Ang):
   XX=            -75.4792   YY=            -69.4064   ZZ=            -66.6378
   XY=             -5.1703   XZ=              2.1051   YZ=              0.6428
 Traceless Quadrupole moment (field-independent basis, Debye-Ang):
   XX=             -4.9714   YY=              1.1014   ZZ=              3.8700
   XY=             -5.1703   XZ=              2.1051   YZ=              0.6428
 Octapole moment (field-independent basis, Debye-Ang**2):
  XXX=            -21.0756  YYY=              3.9846  ZZZ=             -2.2742  XYY=             -6.5790
  XXY=            -14.4275  XXZ=              5.1766  XZZ=              6.1064  YZZ=              0.0818
  YYZ=              1.3674  XYZ=              3.1252
 Hexadecapole moment (field-independent basis, Debye-Ang**3):
 XXXX=          -1762.2691 YYYY=           -558.5210 ZZZZ=           -317.7923 XXXY=            -41.7517
 XXXZ=             13.0858 YYYX=              4.1976 YYYZ=             -0.6726 ZZZX=             -1.1573
 ZZZY=             -5.6995 XXYY=           -405.3450 XXZZ=           -337.0590 YYZZ=           -140.7994
 XXYZ=              8.5720 YYXZ=              5.7644 ZZXY=              5.4482
 N-N= 6.457754696847D+02 E-N=-2.371737410345D+03  KE= 4.613960462777D+02
  Exact polarizability: 116.112  -0.920  95.666   0.745  -1.000  87.934
 Approx polarizability: 149.833   2.917 140.001  -1.380  -4.038 135.013
 Calling FoFJK, ICntrl=    100127 FMM=F ISym2X=0 I1Cent= 0 IOpClX= 0 NMat=1 NMatS=1 NMatT=0.
 Full mass-weighted force constant matrix:
 Low frequencies ---   -5.4487   -0.0011   -0.0009   -0.0006    3.4820    5.5106
 Low frequencies ---   58.1800   81.8580  111.6312
 Diagonal vibrational polarizability:
        4.6374122       9.5180836      16.1003491
 Harmonic frequencies (cm**-1), IR intensities (KM/Mole), Raman scattering
 activities (A**4/AMU), depolarization ratios for plane and unpolarized
 incident light, reduced masses (AMU), force constants (mDyne/A),
 and normal coordinates:
                      1                      2                      3
                      A                      A                      A
 Frequencies --     58.1789                81.8572               111.6296
 Red. masses --      3.1757                 3.3100                 3.0178
 Frc consts  --      0.0063                 0.0131                 0.0222
 IR Inten    --      1.2454                 2.2959                 0.1237
  Atom  AN      X      Y      Z        X      Y      Z        X      Y      Z
     1   8    -0.02   0.08   0.19    -0.04   0.15   0.17    -0.01  -0.01   0.04
     2   6    -0.01   0.01   0.06    -0.01   0.02   0.00    -0.02  -0.00  -0.02
     3   6    -0.00  -0.06  -0.03     0.01   0.01  -0.01    -0.08   0.01  -0.01
     4   6    -0.00  -0.05  -0.12     0.02   0.02  -0.08    -0.03   0.04   0.21
     5   6    -0.01  -0.04  -0.05    -0.00  -0.00   0.05    -0.03  -0.02  -0.15
     6   6    -0.00  -0.00  -0.05    -0.05  -0.15   0.08    -0.02   0.04  -0.16
     7   6    -0.00  -0.02  -0.03     0.00  -0.06  -0.04    -0.02   0.01  -0.11
     8   6    -0.00  -0.03  -0.03     0.02   0.03   0.01     0.01  -0.00   0.02
     9   6     0.04  -0.09   0.20    -0.08   0.11  -0.07     0.01  -0.01   0.11
    10   6    -0.00   0.19  -0.14     0.12  -0.05   0.06     0.18  -0.04   0.07
    11   6     0.01  -0.02  -0.01     0.01  -0.10  -0.18    -0.00  -0.00  -0.09
    12   1     0.02  -0.14  -0.00     0.06  -0.01  -0.01    -0.25   0.05  -0.03
    13   1    -0.02   0.03  -0.16    -0.03   0.02  -0.09     0.15   0.01   0.23
    14   1    -0.00  -0.06  -0.10     0.01   0.03  -0.12    -0.08   0.08   0.35
    15   1     0.01  -0.10  -0.19     0.06   0.01  -0.09    -0.13   0.07   0.23
    16   1    -0.01  -0.05  -0.06    -0.01   0.08   0.13    -0.06  -0.05  -0.20
    17   1    -0.00   0.01  -0.05    -0.07  -0.25   0.05    -0.02   0.08  -0.16
    18   1    -0.00   0.00  -0.07    -0.08  -0.16   0.19    -0.01   0.03  -0.19
    19   1    -0.05  -0.17  -0.15     0.07   0.11   0.07    -0.09   0.01   0.08
    20   1     0.10   0.04   0.32    -0.14   0.04  -0.12     0.10  -0.01   0.07
    21   1     0.04  -0.09   0.19    -0.06   0.18  -0.05     0.03  -0.03   0.22
    22   1     0.02  -0.26   0.27    -0.11   0.18  -0.10    -0.09  -0.01   0.10
    23   1    -0.08   0.26  -0.31     0.25  -0.14   0.12     0.17  -0.03   0.02
    24   1    -0.02   0.12  -0.15     0.16   0.08   0.09     0.19  -0.08   0.23
    25   1     0.08   0.35  -0.03     0.04  -0.15   0.00     0.31  -0.06   0.01
    26   1     0.05  -0.05  -0.02     0.09  -0.29  -0.24     0.05  -0.03  -0.10
    27   1    -0.02   0.00  -0.05    -0.05   0.02  -0.38    -0.02   0.02  -0.13
                      4                      5                      6
                      A                      A                      A
 Frequencies --    179.1913               205.3825               227.1859
 Red. masses --      2.6507                 1.0407                 1.1103
 Frc consts  --      0.0501                 0.0259                 0.0338
 IR Inten    --      0.0523                 0.2184                 0.0647
  Atom  AN      X      Y      Z        X      Y      Z        X      Y      Z
     1   8    -0.05  -0.01  -0.02     0.00  -0.02  -0.02    -0.01  -0.01  -0.01
     2   6    -0.02  -0.03   0.02    -0.00   0.01   0.01    -0.01   0.00   0.01
     3   6     0.04  -0.06  -0.02    -0.00   0.01   0.02    -0.01   0.00   0.02
     4   6     0.18   0.12   0.05    -0.01   0.01  -0.02    -0.00   0.01  -0.02
     5   6     0.06  -0.13  -0.06     0.00   0.01   0.01    -0.01  -0.00   0.02
     6   6    -0.01  -0.02  -0.07     0.00  -0.01   0.02     0.02  -0.02   0.01
     7   6    -0.01  -0.09   0.04     0.00  -0.00   0.00     0.00  -0.01  -0.01
     8   6     0.00   0.01   0.01     0.00  -0.00  -0.00     0.00  -0.00  -0.01
     9   6    -0.13   0.11  -0.00     0.00  -0.00  -0.00    -0.03   0.03  -0.03
    10   6    -0.02   0.08  -0.03     0.00  -0.00  -0.00     0.05  -0.01  -0.00
    11   6    -0.04  -0.06   0.08     0.00  -0.00  -0.01    -0.01  -0.00   0.02
    12   1    -0.06  -0.07  -0.01    -0.00  -0.02   0.03     0.01  -0.01   0.02
    13   1     0.34   0.15   0.04     0.30   0.46  -0.20    -0.02   0.03  -0.03
    14   1     0.08   0.27   0.14    -0.02  -0.12   0.53    -0.00   0.02  -0.03
    15   1     0.26   0.09   0.03    -0.31  -0.31  -0.40     0.02   0.00  -0.03
    16   1     0.11  -0.21  -0.10     0.00   0.02   0.02    -0.01   0.00   0.02
    17   1    -0.06   0.04  -0.11    -0.00  -0.02   0.01     0.03  -0.02   0.03
    18   1    -0.00  -0.03  -0.07    -0.00  -0.02   0.03     0.03  -0.02   0.01
    19   1     0.11   0.02  -0.03     0.00  -0.00  -0.00     0.01   0.01   0.00
    20   1    -0.33   0.13   0.10     0.00  -0.00  -0.00    -0.19   0.08   0.09
    21   1    -0.13   0.27  -0.16     0.00  -0.00   0.00    -0.05   0.10  -0.23
    22   1    -0.06   0.02   0.03    -0.00  -0.00  -0.00     0.11  -0.07   0.01
    23   1     0.09   0.01  -0.00     0.01  -0.01   0.00    -0.31   0.27  -0.22
    24   1     0.01   0.23  -0.13     0.00   0.01  -0.01    -0.04  -0.46   0.25
    25   1    -0.18   0.07   0.02    -0.01  -0.01  -0.00     0.57   0.17  -0.02
    26   1    -0.09   0.00   0.10     0.01  -0.02  -0.01    -0.01   0.03   0.03
    27   1    -0.04  -0.10   0.14    -0.01   0.01  -0.03    -0.02  -0.02   0.05
                      7                      8                      9
                      A                      A                      A
 Frequencies --    253.4555               258.6580               275.8326
 Red. masses --      2.3166                 2.0994                 1.6169
 Frc consts  --      0.0877                 0.0828                 0.0725
 IR Inten    --      3.3904                 0.5423                 1.7121
  Atom  AN      X      Y      Z        X      Y      Z        X      Y      Z
     1   8    -0.02   0.17  -0.03    -0.06  -0.02  -0.05     0.08  -0.08   0.04
     2   6     0.04   0.03  -0.07    -0.06   0.03   0.05     0.03  -0.01   0.01
     3   6     0.07   0.01  -0.07    -0.04   0.03   0.07    -0.02   0.01   0.01
     4   6    -0.06  -0.18   0.10    -0.09   0.00  -0.06     0.01   0.06  -0.03
     5   6     0.06   0.00  -0.02    -0.02   0.01   0.03    -0.01   0.03  -0.01
     6   6     0.03   0.01  -0.02     0.12  -0.01   0.01    -0.01   0.04  -0.01
     7   6     0.01  -0.02   0.03     0.01  -0.03  -0.04    -0.01   0.04  -0.01
     8   6     0.00  -0.02   0.02     0.03  -0.03  -0.06    -0.02  -0.00   0.01
     9   6    -0.05   0.02   0.02    -0.03   0.01   0.03    -0.02  -0.01   0.05
    10   6    -0.04  -0.02   0.01     0.17  -0.02  -0.05    -0.08  -0.07   0.04
    11   6    -0.01  -0.01   0.00    -0.05   0.03   0.08     0.04   0.01  -0.08
    12   1     0.07   0.08  -0.09    -0.01  -0.01   0.08    -0.02  -0.00   0.01
    13   1    -0.01  -0.24   0.12    -0.22   0.02  -0.07    -0.01   0.07  -0.04
    14   1     0.04  -0.38   0.22    -0.05  -0.04  -0.15    -0.01   0.12  -0.07
    15   1    -0.33  -0.14   0.12    -0.04  -0.01  -0.07     0.09   0.05  -0.04
    16   1     0.12  -0.04  -0.02    -0.05   0.00   0.00    -0.04   0.04  -0.02
    17   1     0.00   0.06  -0.04     0.20   0.02   0.09    -0.01   0.05  -0.01
    18   1     0.05  -0.01  -0.01     0.17  -0.03  -0.07     0.01   0.02  -0.02
    19   1     0.04  -0.02   0.01     0.03  -0.03  -0.06    -0.05  -0.01   0.02
    20   1    -0.31   0.14   0.26    -0.18   0.12   0.22    -0.30   0.20   0.41
    21   1    -0.08   0.16  -0.33    -0.04   0.12  -0.17    -0.08   0.11  -0.40
    22   1     0.19  -0.19   0.11     0.08  -0.18   0.11     0.31  -0.34   0.19
    23   1    -0.04  -0.02   0.05     0.45  -0.22   0.03    -0.03  -0.11   0.14
    24   1    -0.05  -0.01  -0.03     0.25   0.31  -0.06    -0.07  -0.02  -0.02
    25   1    -0.09  -0.02   0.02    -0.08  -0.15  -0.08    -0.18  -0.14   0.00
    26   1    -0.08   0.02   0.01    -0.05   0.14   0.11     0.10  -0.11  -0.12
    27   1     0.02  -0.02   0.04    -0.10  -0.05   0.16     0.05   0.09  -0.19
                     10                     11                     12
                      A                      A                      A
 Frequencies --    343.4653               356.4984               412.9069
 Red. masses --      2.4719                 2.0527                 2.5295
 Frc consts  --      0.1718                 0.1537                 0.2541
 IR Inten    --      0.1631                 0.1072                 0.8821
  Atom  AN      X      Y      Z        X      Y      Z        X      Y      Z
     1   8    -0.11   0.01  -0.03    -0.03  -0.03  -0.03    -0.06   0.02  -0.04
     2   6    -0.08  -0.03   0.00    -0.03   0.00   0.04    -0.03   0.01   0.03
     3   6    -0.04  -0.04   0.00     0.00   0.02   0.09    -0.03  -0.01   0.03
     4   6    -0.01   0.00   0.01    -0.04  -0.02  -0.03    -0.03   0.01  -0.01
     5   6    -0.03  -0.06  -0.00     0.06  -0.02  -0.00    -0.01  -0.04  -0.03
     6   6    -0.05   0.01  -0.01     0.17   0.09  -0.05     0.06  -0.11  -0.02
     7   6    -0.01  -0.01   0.05    -0.01  -0.04   0.05     0.06  -0.04  -0.08
     8   6     0.05   0.06   0.07    -0.01  -0.01   0.06     0.10   0.12  -0.05
     9   6     0.24  -0.02  -0.10    -0.05   0.03  -0.00     0.11   0.15   0.11
    10   6     0.03   0.10   0.07    -0.05   0.04   0.04    -0.12  -0.08   0.01
    11   6    -0.04  -0.04  -0.02    -0.01  -0.07  -0.10     0.01  -0.03   0.01
    12   1    -0.06  -0.05   0.00     0.01  -0.02   0.10    -0.07  -0.05   0.04
    13   1     0.02   0.01   0.00    -0.18   0.02  -0.04    -0.07   0.03  -0.02
    14   1    -0.03   0.04   0.02     0.01  -0.09  -0.10    -0.03   0.01  -0.04
    15   1     0.02  -0.00  -0.00    -0.03  -0.04  -0.05     0.00  -0.00  -0.02
    16   1    -0.03  -0.07  -0.02     0.08  -0.17  -0.13    -0.05   0.00  -0.02
    17   1    -0.06   0.05  -0.01     0.19   0.34   0.01     0.10  -0.16   0.01
    18   1    -0.03   0.00  -0.03     0.33  -0.01  -0.19     0.05  -0.10  -0.02
    19   1     0.07   0.07   0.07     0.03   0.00   0.06     0.13   0.14  -0.03
    20   1     0.13   0.07   0.04    -0.01  -0.09  -0.15     0.24   0.24   0.16
    21   1     0.12  -0.17  -0.47    -0.03   0.02   0.12     0.14   0.15   0.27
    22   1     0.65  -0.06  -0.06    -0.14   0.17  -0.07    -0.05   0.03   0.16
    23   1     0.09   0.06   0.05    -0.11   0.09  -0.02    -0.34   0.03   0.30
    24   1     0.04   0.17   0.01    -0.07  -0.01   0.00    -0.21  -0.34  -0.13
    25   1    -0.05   0.11   0.10    -0.02   0.12   0.10    -0.14  -0.18  -0.08
    26   1    -0.03  -0.15  -0.05     0.08  -0.37  -0.19     0.04   0.09   0.05
    27   1    -0.04   0.02  -0.11    -0.04   0.11  -0.37    -0.08  -0.11   0.09
                     13                     14                     15
                      A                      A                      A
 Frequencies --    445.7875               469.5638               524.2511
 Red. masses --      3.0739                 2.8230                 3.0170
 Frc consts  --      0.3599                 0.3667                 0.4885
 IR Inten    --      4.1677                 1.2870                 3.4287
  Atom  AN      X      Y      Z        X      Y      Z        X      Y      Z
     1   8    -0.13   0.05  -0.07     0.02   0.03  -0.12     0.04  -0.04   0.06
     2   6    -0.03  -0.06   0.06     0.05   0.12   0.20    -0.02  -0.00  -0.10
     3   6     0.06  -0.13   0.06     0.02   0.05   0.14    -0.03   0.07  -0.06
     4   6     0.16  -0.09   0.03    -0.05  -0.00   0.00    -0.11   0.07  -0.01
     5   6    -0.06   0.03   0.07     0.08  -0.03  -0.08     0.05  -0.11   0.04
     6   6    -0.04   0.15   0.04    -0.18  -0.03  -0.07    -0.08   0.11   0.02
     7   6    -0.02   0.10   0.03     0.03  -0.02   0.01     0.03  -0.04   0.23
     8   6    -0.05   0.06  -0.12     0.03  -0.04   0.00     0.09  -0.00  -0.08
     9   6    -0.00   0.01   0.03    -0.01  -0.02  -0.01     0.05   0.06   0.02
    10   6     0.04  -0.09  -0.08     0.01  -0.01  -0.03     0.05  -0.09  -0.12
    11   6     0.03  -0.01  -0.02     0.06  -0.01   0.04    -0.05  -0.03   0.02
    12   1     0.13  -0.17   0.07    -0.12  -0.17   0.20    -0.04   0.19  -0.10
    13   1     0.25  -0.07   0.02    -0.27   0.02  -0.01    -0.14   0.05  -0.00
    14   1     0.09   0.01   0.07     0.04  -0.12  -0.14    -0.06  -0.01  -0.01
    15   1     0.23  -0.10   0.02    -0.03  -0.02  -0.02    -0.19   0.08  -0.01
    16   1    -0.11   0.03   0.03     0.11  -0.06  -0.09     0.23  -0.27   0.01
    17   1     0.01   0.16   0.10    -0.39  -0.15  -0.32    -0.17   0.19  -0.07
    18   1    -0.05   0.20  -0.06    -0.32   0.01   0.22    -0.16   0.19   0.00
    19   1    -0.05   0.04  -0.14     0.04  -0.05  -0.02     0.24  -0.03  -0.16
    20   1     0.11   0.13   0.12    -0.07  -0.04   0.00     0.08   0.11   0.07
    21   1     0.01  -0.01   0.12     0.00   0.04  -0.04     0.09   0.14   0.13
    22   1    -0.09  -0.14   0.09    -0.02  -0.03  -0.01    -0.10  -0.04   0.06
    23   1     0.08  -0.13   0.01     0.01  -0.01  -0.05     0.01  -0.08  -0.03
    24   1     0.06  -0.11   0.10     0.01  -0.01  -0.05     0.03  -0.16  -0.06
    25   1     0.13  -0.24  -0.24     0.00   0.01  -0.00     0.10  -0.17  -0.21
    26   1     0.22  -0.26  -0.10     0.28  -0.18  -0.01    -0.27  -0.25  -0.07
    27   1     0.08   0.17  -0.27    -0.12   0.08  -0.19     0.04   0.08  -0.10
                     16                     17                     18
                      A                      A                      A
 Frequencies --    553.9435               567.4291               627.7438
 Red. masses --      2.4125                 3.5693                 3.0637
 Frc consts  --      0.4362                 0.6771                 0.7113
 IR Inten    --      1.8114                 0.9058                 0.6164
  Atom  AN      X      Y      Z        X      Y      Z        X      Y      Z
     1   8    -0.05  -0.01  -0.02    -0.00   0.18  -0.06    -0.13  -0.06   0.07
     2   6    -0.06   0.04   0.02     0.14  -0.13  -0.09    -0.08  -0.16  -0.07
     3   6    -0.06  -0.07  -0.07    -0.10  -0.04   0.10     0.08   0.07   0.12
     4   6    -0.00  -0.01   0.00    -0.10   0.10  -0.01     0.03  -0.01   0.00
     5   6    -0.06  -0.03   0.01    -0.13  -0.04   0.03     0.11   0.16  -0.00
     6   6     0.00   0.00   0.02    -0.02   0.05  -0.03    -0.06   0.09  -0.04
     7   6     0.13   0.06   0.02     0.03   0.00   0.03     0.03   0.03  -0.08
     8   6     0.18  -0.14   0.08     0.02  -0.04   0.03     0.10  -0.07   0.04
     9   6    -0.02  -0.01   0.01    -0.03  -0.03  -0.00     0.02   0.01   0.01
    10   6    -0.00  -0.01  -0.01    -0.00  -0.00   0.01     0.01  -0.02  -0.02
    11   6     0.01   0.14  -0.03     0.21  -0.15   0.04    -0.01  -0.05  -0.07
    12   1    -0.07  -0.09  -0.06    -0.13   0.06   0.06     0.14   0.16   0.09
    13   1     0.13  -0.06   0.03    -0.15   0.26  -0.08    -0.16   0.07  -0.03
    14   1    -0.06   0.07   0.06    -0.17   0.24  -0.08     0.12  -0.13  -0.07
    15   1     0.01   0.03   0.05     0.14  -0.02  -0.13     0.01  -0.07  -0.07
    16   1    -0.20   0.18   0.10    -0.22  -0.01  -0.00     0.02   0.15  -0.08
    17   1     0.14  -0.15   0.15     0.08   0.08   0.09    -0.27   0.06  -0.28
    18   1    -0.16   0.21  -0.14    -0.03   0.12  -0.22    -0.09   0.01   0.26
    19   1     0.15  -0.15   0.08     0.00  -0.05   0.03     0.06  -0.07   0.05
    20   1    -0.30  -0.17  -0.07    -0.11  -0.08  -0.02    -0.14  -0.08  -0.03
    21   1     0.06   0.31   0.00    -0.01   0.05  -0.01     0.06   0.19  -0.00
    22   1    -0.15   0.09  -0.04    -0.06  -0.00  -0.02    -0.06   0.06  -0.02
    23   1    -0.10   0.06  -0.07    -0.01   0.01  -0.04    -0.06   0.03  -0.03
    24   1    -0.05  -0.06  -0.27    -0.01   0.01  -0.04    -0.02  -0.05  -0.20
    25   1    -0.12   0.16   0.17    -0.03   0.05   0.06    -0.08   0.07   0.09
    26   1     0.12  -0.05  -0.08     0.07   0.05   0.10    -0.11   0.30   0.05
    27   1    -0.05   0.23  -0.20     0.49  -0.19   0.26     0.15  -0.25   0.30
                     19                     20                     21
                      A                      A                      A
 Frequencies --    709.5228               756.6795               833.0328
 Red. masses --      3.0393                 3.2104                 1.8809
 Frc consts  --      0.9015                 1.0830                 0.7690
 IR Inten    --      2.5623                 6.3488                 4.4376
  Atom  AN      X      Y      Z        X      Y      Z        X      Y      Z
     1   8    -0.15  -0.03   0.02     0.03   0.03   0.01     0.02   0.03  -0.01
     2   6    -0.07  -0.11   0.01    -0.01   0.03  -0.14     0.04  -0.02  -0.01
     3   6    -0.00   0.02  -0.10    -0.04  -0.07   0.21    -0.08  -0.11   0.00
     4   6    -0.09   0.07  -0.01     0.04  -0.05   0.03    -0.05  -0.03   0.00
     5   6     0.14  -0.06  -0.07     0.07  -0.20  -0.01     0.03   0.10  -0.08
     6   6     0.08  -0.05   0.08     0.02  -0.02   0.04     0.06  -0.02   0.06
     7   6     0.06   0.09   0.02     0.06   0.05   0.01    -0.07   0.03   0.05
     8   6    -0.07   0.05  -0.03    -0.04   0.03  -0.02    -0.01  -0.04   0.05
     9   6    -0.05  -0.05  -0.01    -0.03  -0.03  -0.01     0.04   0.05   0.03
    10   6    -0.02   0.02   0.03    -0.01   0.02   0.02     0.01  -0.05  -0.07
    11   6     0.18   0.08   0.04    -0.06   0.19  -0.15    -0.03   0.03   0.00
    12   1    -0.09   0.08  -0.13    -0.18  -0.05   0.19    -0.10  -0.20   0.03
    13   1    -0.07   0.00   0.02    -0.22   0.17  -0.07     0.15   0.04  -0.02
    14   1    -0.06   0.01   0.02     0.08  -0.07  -0.14    -0.25   0.30   0.03
    15   1    -0.20   0.12   0.03     0.26  -0.24  -0.16     0.23  -0.04   0.00
    16   1     0.29  -0.15  -0.04    -0.04  -0.23  -0.10     0.12  -0.13  -0.23
    17   1    -0.03  -0.27  -0.08    -0.03  -0.19  -0.04    -0.17   0.06  -0.17
    18   1    -0.06   0.01   0.30    -0.15   0.13   0.07     0.23  -0.31   0.48
    19   1    -0.09   0.04  -0.03    -0.04   0.03  -0.03    -0.03  -0.05   0.05
    20   1     0.02   0.01   0.02     0.03   0.02   0.02    -0.03  -0.02  -0.03
    21   1    -0.07  -0.13  -0.00    -0.04  -0.09  -0.00     0.05   0.10  -0.00
    22   1    -0.04  -0.10   0.00    -0.02  -0.07   0.01     0.08   0.16  -0.01
    23   1     0.05  -0.02   0.02     0.03  -0.01   0.04     0.03  -0.05  -0.17
    24   1     0.01   0.07   0.19     0.00   0.04   0.13     0.02  -0.01  -0.09
    25   1     0.05  -0.04  -0.05     0.04  -0.03  -0.04     0.01   0.01  -0.02
    26   1     0.43  -0.01   0.03    -0.33   0.36  -0.11    -0.07  -0.02  -0.02
    27   1     0.34   0.21  -0.06     0.10   0.08   0.11     0.04   0.08  -0.03
                     22                     23                     24
                      A                      A                      A
 Frequencies --    877.5736               884.2842               925.2164
 Red. masses --      2.3434                 2.3998                 1.6878
 Frc consts  --      1.0633                 1.1056                 0.8513
 IR Inten    --      1.4255                 1.9907                 1.5986
  Atom  AN      X      Y      Z        X      Y      Z        X      Y      Z
     1   8     0.00   0.00   0.00     0.02   0.00  -0.02    -0.02  -0.02  -0.00
     2   6     0.01  -0.01  -0.02    -0.00   0.07   0.06    -0.05   0.07   0.04
     3   6    -0.03  -0.05   0.01    -0.04  -0.07  -0.05    -0.01   0.01   0.00
     4   6    -0.03  -0.02   0.00    -0.08   0.02  -0.03     0.01  -0.00  -0.03
     5   6    -0.00   0.15  -0.03     0.09  -0.08   0.06     0.00   0.03  -0.03
     6   6     0.05  -0.02  -0.08    -0.01   0.15   0.13    -0.04  -0.07  -0.02
     7   6     0.10  -0.01   0.10     0.01  -0.00  -0.13     0.02  -0.02   0.13
     8   6     0.07   0.05  -0.10     0.05   0.01  -0.04    -0.00   0.02   0.03
     9   6    -0.07  -0.11  -0.05    -0.02  -0.05  -0.02    -0.02  -0.01   0.03
    10   6    -0.01   0.10   0.11     0.01   0.04   0.05    -0.01   0.02  -0.05
    11   6    -0.06  -0.04   0.03     0.00  -0.09  -0.10     0.09   0.01  -0.11
    12   1    -0.01  -0.07   0.02     0.09  -0.34   0.04    -0.01  -0.27   0.09
    13   1     0.09   0.03  -0.02     0.24  -0.15   0.05     0.11  -0.13   0.04
    14   1    -0.15   0.19   0.02    -0.21   0.20   0.14     0.01  -0.03   0.07
    15   1     0.16  -0.04  -0.00    -0.10   0.17   0.14    -0.12   0.10   0.08
    16   1    -0.08   0.18  -0.05     0.16  -0.18   0.01    -0.07   0.18   0.06
    17   1    -0.05  -0.19  -0.20    -0.09   0.16   0.04    -0.02   0.32   0.06
    18   1    -0.10   0.03   0.19    -0.02   0.15   0.18     0.20  -0.24  -0.21
    19   1     0.27  -0.00  -0.22    -0.03   0.02  -0.00     0.11  -0.13  -0.15
    20   1    -0.00   0.01   0.05    -0.05  -0.03   0.02    -0.06  -0.11  -0.07
    21   1    -0.03  -0.07   0.07     0.01   0.03   0.02    -0.04  -0.05  -0.05
    22   1    -0.22  -0.31   0.02    -0.11  -0.12   0.00     0.09   0.13  -0.03
    23   1    -0.04   0.08   0.39    -0.07   0.08   0.17     0.05  -0.05   0.10
    24   1    -0.02  -0.02   0.22    -0.02  -0.03  -0.05     0.00  -0.03   0.18
    25   1     0.02  -0.11  -0.08    -0.05   0.02   0.05     0.08  -0.18  -0.24
    26   1    -0.23  -0.19  -0.03    -0.03   0.29   0.03    -0.07   0.34  -0.00
    27   1    -0.11   0.00  -0.05    -0.16  -0.35   0.21     0.21  -0.16   0.23
                     25                     26                     27
                      A                      A                      A
 Frequencies --    939.3568               954.4965               970.2331
 Red. masses --      1.2410                 1.6322                 1.5527
 Frc consts  --      0.6452                 0.8761                 0.8611
 IR Inten    --      3.2244                 0.5798                 0.9453
  Atom  AN      X      Y      Z        X      Y      Z        X      Y      Z
     1   8     0.01   0.01   0.00     0.00  -0.00  -0.00     0.00   0.00  -0.00
     2   6     0.01  -0.02  -0.02     0.02  -0.01   0.02     0.02  -0.03   0.01
     3   6     0.00   0.00  -0.00     0.02  -0.03  -0.00     0.00  -0.01  -0.02
     4   6     0.01  -0.00   0.01    -0.04   0.02   0.00     0.01   0.01   0.03
     5   6    -0.01  -0.02   0.01     0.08   0.01  -0.06     0.05  -0.02  -0.08
     6   6    -0.01   0.01   0.02     0.05   0.03   0.00    -0.03  -0.01   0.08
     7   6    -0.03   0.00  -0.05     0.08   0.05   0.01    -0.04   0.05  -0.01
     8   6     0.03   0.03   0.00    -0.07   0.01   0.05     0.01  -0.05  -0.06
     9   6     0.00  -0.04   0.06     0.00   0.04   0.05     0.09  -0.00  -0.03
    10   6     0.03   0.07  -0.03    -0.02  -0.02  -0.06    -0.06   0.03   0.06
    11   6    -0.02   0.01   0.04    -0.07  -0.10  -0.01    -0.04  -0.03   0.01
    12   1    -0.01   0.14  -0.05    -0.12  -0.18   0.04    -0.28   0.02  -0.04
    13   1    -0.07   0.06  -0.02    -0.03   0.02   0.01    -0.18   0.12  -0.02
    14   1     0.03  -0.02  -0.04    -0.05   0.04  -0.00     0.08  -0.07  -0.09
    15   1     0.04  -0.05  -0.04    -0.03   0.03   0.01     0.04  -0.09  -0.08
    16   1     0.03  -0.11  -0.04    -0.06   0.38   0.18    -0.03   0.25   0.10
    17   1    -0.01   0.01   0.01     0.17  -0.35   0.09     0.04   0.24   0.19
    18   1     0.04  -0.04   0.05    -0.30   0.39  -0.09     0.13  -0.09  -0.15
    19   1    -0.12  -0.25  -0.19    -0.13  -0.06   0.00    -0.05  -0.15  -0.13
    20   1    -0.26  -0.32  -0.16    -0.02  -0.08  -0.08    -0.16   0.00   0.06
    21   1    -0.02   0.06  -0.16    -0.07  -0.09  -0.11     0.23   0.43   0.10
    22   1     0.14   0.32  -0.08     0.21   0.25  -0.03    -0.26  -0.10  -0.00
    23   1    -0.08   0.06   0.45     0.07  -0.08  -0.10     0.11  -0.07  -0.05
    24   1    -0.04  -0.19   0.00     0.01   0.03   0.11     0.01   0.15   0.34
    25   1    -0.02  -0.26  -0.30     0.06  -0.07  -0.13     0.11  -0.00  -0.02
    26   1     0.10  -0.08   0.01    -0.21  -0.08  -0.01     0.03  -0.01   0.02
    27   1    -0.09   0.06  -0.08    -0.06  -0.12   0.04    -0.05  -0.02  -0.01
                     28                     29                     30
                      A                      A                      A
 Frequencies --    973.9117               992.7475              1037.0644
 Red. masses --      1.4847                 2.1058                 1.8137
 Frc consts  --      0.8297                 1.2228                 1.1493
 IR Inten    --      0.5091                 4.6866                16.5538
  Atom  AN      X      Y      Z        X      Y      Z        X      Y      Z
     1   8    -0.00   0.01  -0.00    -0.01   0.01   0.00    -0.00  -0.02   0.00
     2   6     0.03  -0.04  -0.00     0.02  -0.05  -0.02    -0.07   0.11  -0.00
     3   6     0.02  -0.05  -0.02     0.07  -0.07   0.03    -0.10   0.04  -0.08
     4   6    -0.04   0.01   0.04    -0.11   0.02  -0.00     0.04  -0.11   0.06
     5   6     0.10  -0.01  -0.03     0.06  -0.00   0.13     0.01   0.03   0.05
     6   6    -0.06  -0.01   0.04    -0.03  -0.02  -0.10     0.03   0.04   0.01
     7   6    -0.00  -0.01  -0.02     0.04  -0.09  -0.05     0.05  -0.06  -0.01
     8   6     0.03   0.05   0.03    -0.05  -0.05  -0.01    -0.02  -0.01   0.01
     9   6    -0.08  -0.02  -0.01     0.04   0.06   0.01    -0.01   0.02   0.02
    10   6     0.06  -0.01  -0.03    -0.07   0.01   0.02    -0.03  -0.01  -0.01
    11   6    -0.03   0.03   0.01    -0.01   0.11   0.00     0.08  -0.05  -0.01
    12   1    -0.16   0.05  -0.06     0.42   0.07  -0.01    -0.28   0.36  -0.18
    13   1    -0.15   0.17  -0.04     0.11   0.05  -0.00    -0.05   0.19  -0.09
    14   1    -0.06   0.08  -0.08    -0.28   0.30   0.08    -0.05   0.10  -0.14
    15   1     0.12  -0.10  -0.08     0.07   0.06   0.05     0.45  -0.32  -0.15
    16   1    -0.02   0.37   0.23     0.01   0.10   0.20     0.09  -0.00   0.07
    17   1    -0.03   0.34   0.12    -0.14   0.16  -0.19    -0.12   0.09  -0.14
    18   1     0.15  -0.12  -0.22    -0.03   0.00  -0.19    -0.10   0.15   0.06
    19   1     0.15   0.17   0.10    -0.00  -0.14  -0.11     0.05  -0.03  -0.03
    20   1     0.16   0.07   0.00     0.02   0.02  -0.02     0.05   0.01  -0.02
    21   1    -0.16  -0.33  -0.01     0.04   0.07  -0.01    -0.05  -0.09  -0.03
    22   1     0.09  -0.10   0.03     0.06   0.11  -0.01     0.09   0.07   0.00
    23   1    -0.10   0.08   0.09     0.12  -0.10  -0.10     0.06  -0.06  -0.09
    24   1    -0.01  -0.13  -0.28     0.01   0.14   0.34     0.01   0.08   0.15
    25   1    -0.09   0.01   0.04     0.12  -0.03  -0.08     0.06  -0.01  -0.04
    26   1     0.12   0.00   0.01     0.20   0.05  -0.01     0.21   0.11   0.06
    27   1    -0.13   0.04  -0.06    -0.19   0.11  -0.10    -0.14  -0.18   0.06
                     31                     32                     33
                      A                      A                      A
 Frequencies --   1069.0412              1079.6205              1099.4976
 Red. masses --      1.2712                 1.3538                 1.9153
 Frc consts  --      0.8560                 0.9297                 1.3642
 IR Inten    --      1.9106                12.2198                18.9437
  Atom  AN      X      Y      Z        X      Y      Z        X      Y      Z
     1   8    -0.01  -0.00  -0.00     0.01   0.00   0.00     0.01  -0.02   0.02
     2   6     0.01  -0.01   0.03    -0.01   0.02  -0.03    -0.08   0.10  -0.09
     3   6     0.02   0.03  -0.00    -0.01   0.01   0.02    -0.01   0.07   0.07
     4   6    -0.03  -0.04   0.02     0.01  -0.00  -0.03    -0.04  -0.08  -0.03
     5   6     0.01   0.07   0.01    -0.01  -0.01  -0.01     0.09  -0.07  -0.02
     6   6    -0.01  -0.07  -0.01     0.10  -0.10   0.07    -0.05   0.02  -0.05
     7   6    -0.06   0.00   0.01    -0.02   0.02  -0.02    -0.02   0.02  -0.00
     8   6    -0.01   0.00  -0.02    -0.00   0.03  -0.01    -0.03   0.07  -0.01
     9   6     0.02  -0.01  -0.01     0.01  -0.02   0.00     0.03  -0.05  -0.00
    10   6     0.03   0.01   0.01     0.02  -0.01  -0.00     0.03  -0.02  -0.01
    11   6    -0.01   0.02  -0.03    -0.00  -0.02   0.03     0.04  -0.05   0.08
    12   1    -0.07  -0.10   0.04     0.03  -0.04   0.04     0.19   0.02   0.08
    13   1     0.06   0.07  -0.03     0.08  -0.09   0.02     0.30  -0.07  -0.02
    14   1    -0.13   0.16  -0.02     0.00  -0.01   0.06    -0.23   0.24   0.08
    15   1     0.20  -0.08  -0.01    -0.06   0.06   0.05     0.23  -0.02   0.06
    16   1     0.59  -0.26   0.11    -0.18   0.13  -0.00    -0.14   0.30   0.16
    17   1     0.13  -0.05   0.14    -0.43   0.47  -0.44     0.14  -0.14   0.13
    18   1    -0.21   0.23  -0.41    -0.28   0.34  -0.20     0.18  -0.22   0.03
    19   1    -0.10  -0.00   0.02    -0.12   0.04   0.05    -0.26   0.09   0.11
    20   1    -0.05  -0.02   0.01    -0.07  -0.04  -0.00    -0.17  -0.10   0.01
    21   1     0.05   0.11  -0.01     0.02   0.05  -0.02     0.10   0.21   0.01
    22   1    -0.06  -0.00  -0.01    -0.04  -0.00  -0.01    -0.14  -0.02  -0.02
    23   1    -0.07   0.06   0.08    -0.03   0.02   0.01    -0.05   0.03  -0.01
    24   1    -0.01  -0.07  -0.15    -0.00  -0.03  -0.08     0.00  -0.03  -0.15
    25   1    -0.07   0.01   0.05    -0.03   0.01   0.03    -0.05   0.03   0.06
    26   1    -0.08   0.05  -0.02     0.02  -0.07   0.01    -0.01  -0.20   0.03
    27   1     0.18   0.03   0.05     0.08   0.07  -0.04     0.21   0.10  -0.04
                     34                     35                     36
                      A                      A                      A
 Frequencies --   1113.4294              1142.3867              1155.6306
 Red. masses --      1.9292                 1.8337                 1.8649
 Frc consts  --      1.4092                 1.4099                 1.4674
 IR Inten    --      1.1597                 8.0383                 0.0908
  Atom  AN      X      Y      Z        X      Y      Z        X      Y      Z
     1   8    -0.01  -0.01  -0.00     0.00   0.00   0.01    -0.00  -0.02   0.00
     2   6     0.01   0.00   0.04     0.01  -0.03  -0.03    -0.02   0.04   0.03
     3   6     0.08  -0.04  -0.04    -0.02   0.09   0.07     0.13   0.02  -0.01
     4   6    -0.04   0.02   0.04    -0.01  -0.05  -0.05    -0.07  -0.02   0.03
     5   6    -0.04  -0.01   0.01    -0.00   0.01  -0.08    -0.04  -0.03  -0.11
     6   6     0.01  -0.05  -0.02    -0.04  -0.02   0.08     0.01  -0.01   0.06
     7   6     0.06   0.07   0.04    -0.01   0.02  -0.07    -0.03   0.04   0.07
     8   6     0.01   0.16   0.08     0.10  -0.00   0.10    -0.03  -0.10  -0.06
     9   6     0.02  -0.10  -0.01    -0.05  -0.01  -0.02    -0.00   0.06   0.00
    10   6    -0.02  -0.04  -0.07    -0.07   0.02  -0.05     0.05   0.01   0.04
    11   6    -0.01  -0.03  -0.04    -0.03  -0.01   0.04    -0.00  -0.03  -0.04
    12   1     0.26   0.24  -0.12     0.10   0.11   0.07     0.41   0.27  -0.08
    13   1    -0.15   0.16  -0.02     0.30  -0.14  -0.01     0.01   0.15  -0.04
    14   1    -0.04   0.06  -0.06    -0.13   0.12   0.09    -0.17   0.19  -0.03
    15   1     0.06  -0.07  -0.05     0.08   0.06   0.09     0.17  -0.06  -0.01
    16   1    -0.06  -0.23  -0.20     0.04  -0.21  -0.26    -0.38  -0.02  -0.34
    17   1    -0.01   0.03  -0.02     0.10   0.03   0.24     0.04  -0.04   0.11
    18   1     0.03  -0.06  -0.06    -0.08   0.11  -0.19    -0.08   0.10  -0.03
    19   1    -0.15   0.25   0.23     0.38   0.05   0.03    -0.01  -0.19  -0.16
    20   1    -0.28  -0.17   0.03     0.10   0.06   0.02     0.15   0.11  -0.01
    21   1     0.10   0.21   0.02    -0.08  -0.18   0.03    -0.04  -0.09  -0.00
    22   1    -0.23  -0.09  -0.02     0.02  -0.11   0.03     0.11   0.05   0.01
    23   1     0.06  -0.07  -0.20     0.15  -0.13  -0.08    -0.09   0.09   0.14
    24   1     0.03   0.08   0.00    -0.00   0.09   0.30    -0.01  -0.08  -0.13
    25   1     0.07   0.00  -0.07     0.18  -0.11  -0.24    -0.10   0.03   0.11
    26   1     0.00   0.12   0.01     0.13  -0.06   0.03     0.14   0.15   0.02
    27   1    -0.35  -0.20   0.03    -0.08   0.03  -0.05     0.01  -0.09   0.06
                     37                     38                     39
                      A                      A                      A
 Frequencies --   1174.0873              1185.2712              1204.1703
 Red. masses --      2.6456                 1.8287                 1.4964
 Frc consts  --      2.1487                 1.5137                 1.2784
 IR Inten    --     27.7744                 4.4459                11.5870
  Atom  AN      X      Y      Z        X      Y      Z        X      Y      Z
     1   8     0.01  -0.03   0.02     0.01  -0.00  -0.00     0.01   0.01   0.01
     2   6    -0.13   0.16  -0.15    -0.01   0.03   0.03    -0.02  -0.01  -0.11
     3   6     0.11  -0.14  -0.01     0.03  -0.02  -0.04    -0.03  -0.03   0.06
     4   6    -0.03   0.08   0.08    -0.01   0.01   0.04     0.02   0.02  -0.03
     5   6     0.00   0.10   0.01    -0.01  -0.03   0.02     0.02   0.05  -0.01
     6   6    -0.04  -0.01   0.04     0.06   0.03  -0.03    -0.01  -0.00  -0.00
     7   6     0.01  -0.02  -0.08    -0.11  -0.04  -0.02     0.02  -0.02   0.07
     8   6     0.03  -0.00  -0.00    -0.02  -0.04   0.16    -0.08  -0.03   0.04
     9   6    -0.02   0.00   0.01     0.03  -0.00  -0.09     0.03   0.01  -0.04
    10   6    -0.03  -0.01   0.01     0.01   0.07  -0.08     0.05   0.02  -0.02
    11   6     0.06  -0.05   0.09    -0.02   0.00  -0.02     0.02  -0.01   0.01
    12   1     0.05  -0.52   0.11     0.09  -0.05  -0.03    -0.14  -0.09   0.07
    13   1    -0.36   0.20   0.02    -0.12   0.10  -0.01     0.04  -0.12   0.03
    14   1     0.10  -0.10  -0.09     0.01   0.00  -0.06     0.06  -0.08   0.06
    15   1    -0.07  -0.07  -0.09     0.03  -0.06  -0.05    -0.12   0.08   0.03
    16   1     0.03  -0.26  -0.30    -0.10   0.16   0.14     0.05  -0.04  -0.09
    17   1     0.05   0.07   0.16    -0.01  -0.19  -0.13     0.09  -0.07   0.09
    18   1    -0.03   0.04  -0.14    -0.08   0.11   0.12    -0.07   0.08  -0.08
    19   1     0.06  -0.01  -0.02     0.13   0.02   0.15    -0.14  -0.06   0.03
    20   1     0.03  -0.01  -0.03     0.06   0.21   0.15     0.02   0.11   0.08
    21   1    -0.05  -0.08  -0.03     0.11   0.11   0.18     0.08   0.11   0.07
    22   1     0.06   0.04   0.00    -0.21  -0.29   0.03    -0.10  -0.09   0.00
    23   1     0.05  -0.04  -0.06     0.03   0.00   0.24    -0.07   0.07   0.15
    24   1    -0.00   0.06   0.09    -0.04  -0.18   0.03    -0.00  -0.10  -0.12
    25   1     0.05   0.01  -0.01     0.02  -0.24  -0.34    -0.07  -0.05  -0.04
    26   1    -0.01  -0.22   0.03     0.09   0.08   0.01     0.55   0.16   0.09
    27   1     0.19   0.09  -0.05     0.38   0.11   0.05    -0.55  -0.18  -0.05
                     40                     41                     42
                      A                      A                      A
 Frequencies --   1234.7051              1290.1021              1299.2347
 Red. masses --      1.5831                 2.0008                 2.0208
 Frc consts  --      1.4219                 1.9620                 2.0098
 IR Inten    --      0.5509                 0.9660                 1.9864
  Atom  AN      X      Y      Z        X      Y      Z        X      Y      Z
     1   8     0.02   0.01   0.00     0.01  -0.00   0.01     0.03   0.00  -0.01
     2   6    -0.00  -0.00  -0.03    -0.01   0.00  -0.05    -0.02   0.07   0.03
     3   6     0.02   0.00   0.00     0.01   0.06  -0.01    -0.10  -0.15   0.04
     4   6    -0.00   0.01   0.01    -0.01  -0.00   0.04     0.03   0.03  -0.04
     5   6    -0.01  -0.01  -0.02    -0.08  -0.08   0.02     0.09   0.03   0.05
     6   6     0.04   0.03  -0.01     0.03  -0.03  -0.06    -0.03  -0.05  -0.04
     7   6    -0.12  -0.07   0.05    -0.00   0.21   0.02     0.02   0.11  -0.00
     8   6     0.05   0.08  -0.05     0.08  -0.05  -0.00     0.02  -0.01  -0.01
     9   6     0.01  -0.05   0.06    -0.05   0.03  -0.01    -0.02   0.01  -0.00
    10   6    -0.02  -0.04   0.03    -0.02   0.01  -0.00     0.00  -0.00   0.01
    11   6    -0.08   0.00  -0.03    -0.05  -0.07   0.01    -0.11  -0.08  -0.01
    12   1    -0.03  -0.14   0.04     0.21  -0.37   0.14     0.11   0.63  -0.20
    13   1    -0.01   0.01   0.00    -0.05   0.09  -0.01    -0.03  -0.16   0.04
    14   1     0.01  -0.01  -0.01     0.01  -0.00  -0.06     0.08  -0.10   0.09
    15   1    -0.00  -0.00  -0.01     0.09  -0.07  -0.03    -0.17   0.07  -0.00
    16   1    -0.04   0.12   0.08     0.36   0.00   0.42     0.09  -0.09  -0.07
    17   1     0.06  -0.18  -0.02    -0.12   0.00  -0.23     0.03  -0.02   0.03
    18   1    -0.10   0.13   0.09     0.16  -0.20   0.06     0.02  -0.06  -0.16
    19   1     0.39   0.15  -0.12    -0.13  -0.13   0.01    -0.03  -0.08  -0.05
    20   1    -0.15  -0.22  -0.08     0.15   0.08  -0.02     0.05   0.03  -0.01
    21   1    -0.01   0.03  -0.10    -0.07  -0.11   0.03    -0.03  -0.04   0.00
    22   1     0.02   0.13  -0.02     0.12  -0.03   0.02     0.03  -0.01   0.01
    23   1     0.02  -0.04  -0.19     0.04  -0.03   0.03     0.00   0.00  -0.01
    24   1     0.02   0.10  -0.00     0.00   0.03   0.07    -0.00  -0.01  -0.01
    25   1     0.04   0.10   0.13     0.05   0.01  -0.02    -0.00  -0.00   0.01
    26   1     0.61   0.23   0.08     0.30   0.05   0.07     0.27   0.04   0.06
    27   1     0.17   0.05   0.04    -0.13  -0.10   0.01     0.46   0.07   0.09
                     43                     44                     45
                      A                      A                      A
 Frequencies --   1321.7804              1351.7148              1362.7754
 Red. masses --      1.6476                 1.7984                 1.3454
 Frc consts  --      1.6960                 1.9360                 1.4721
 IR Inten    --     14.6493                 2.7518                 3.3160
  Atom  AN      X      Y      Z        X      Y      Z        X      Y      Z
     1   8    -0.01  -0.00  -0.00     0.00   0.01  -0.01     0.00   0.00  -0.00
     2   6    -0.02   0.03  -0.01     0.03  -0.05   0.02    -0.00   0.00   0.00
     3   6    -0.07  -0.08   0.04    -0.18   0.07  -0.06    -0.02  -0.01   0.00
     4   6     0.02   0.03   0.01     0.04   0.00   0.07     0.01   0.01   0.01
     5   6     0.00  -0.00  -0.08     0.06   0.02  -0.02     0.00   0.01  -0.02
     6   6     0.03   0.01   0.01    -0.03  -0.01   0.02    -0.01   0.00   0.01
     7   6    -0.13   0.01   0.01     0.08  -0.04  -0.00     0.01  -0.02   0.03
     8   6     0.02  -0.00  -0.00    -0.05   0.03   0.01     0.01  -0.11  -0.10
     9   6    -0.00  -0.01   0.01     0.02   0.00  -0.01     0.00  -0.01   0.05
    10   6    -0.00  -0.01   0.01     0.01  -0.01   0.00    -0.02   0.06  -0.03
    11   6     0.13   0.01   0.01    -0.06   0.01   0.00    -0.01   0.00  -0.01
    12   1     0.53   0.23  -0.04     0.74  -0.36   0.11     0.12   0.01  -0.00
    13   1    -0.10  -0.04   0.04    -0.15   0.09   0.02    -0.02  -0.00   0.01
    14   1     0.09  -0.09   0.02     0.11  -0.06  -0.14     0.02  -0.01  -0.01
    15   1    -0.07  -0.02  -0.05     0.04  -0.17  -0.12    -0.01  -0.01  -0.01
    16   1     0.29   0.18   0.29    -0.08  -0.02  -0.17     0.02   0.02   0.00
    17   1     0.03  -0.09  -0.01     0.04   0.09   0.12     0.01   0.03   0.04
    18   1    -0.07   0.11  -0.01    -0.03   0.02  -0.05    -0.01   0.00   0.02
    19   1     0.28   0.01  -0.10    -0.00  -0.06  -0.08    -0.09   0.62   0.64
    20   1     0.00  -0.03  -0.01    -0.05  -0.00   0.02     0.03  -0.08  -0.05
    21   1     0.00   0.03  -0.03     0.01  -0.00   0.00     0.00   0.08  -0.08
    22   1     0.01   0.04  -0.01    -0.07  -0.01  -0.01     0.10   0.12  -0.01
    23   1     0.01  -0.01  -0.03    -0.03   0.02  -0.02     0.04  -0.01   0.19
    24   1     0.00   0.02  -0.02     0.00  -0.02  -0.05    -0.02  -0.04   0.18
    25   1     0.03   0.02   0.02    -0.04  -0.00   0.02     0.01  -0.04  -0.11
    26   1    -0.31  -0.01  -0.02     0.13  -0.05  -0.01     0.07   0.00  -0.00
    27   1    -0.36  -0.10  -0.09     0.13   0.04   0.05     0.03  -0.01   0.03
                     46                     47                     48
                      A                      A                      A
 Frequencies --   1391.2147              1414.0159              1429.3768
 Red. masses --      1.5492                 2.0301                 1.2584
 Frc consts  --      1.7666                 2.3915                 1.5148
 IR Inten    --      5.5718                 0.1838                 4.4238
  Atom  AN      X      Y      Z        X      Y      Z        X      Y      Z
     1   8    -0.00  -0.00   0.00     0.00  -0.01   0.00     0.00   0.00  -0.00
[...]
 0.00000347,-0.00000454,-0.00000099,-0.00000731,0.00001078,0.00001009,-
 0.00000474,0.00002052,-0.00000010,0.00043084,0.00017319,-0.00022595,0.
 00012194,0.00007748,0.00011966,-0.00001283,-0.00014801,0.00028579,-0.0
 0118692,0.00126573,-0.00099095,0.06644772,0.31692542,-0.00007706,-0.00
 000129,-0.00001046,0.00012284,0.00000021,0.00002895,0.00000143,-0.0000
 0117,-0.00004979,-0.00000050,0.00000456,-0.00000098,0.00001662,0.00000
 401,0.00017237,0.00022626,0.00002148,0.00031896,0.00049767,0.00022067,
 0.00036253,-0.00255767,-0.01586611,0.00087847,0.00520832,0.02116261,-0
 .05264565,0.00027545,-0.00135719,0.00128203,0.00004746,0.00006537,-0.0
 0011272,-0.00002853,0.00002392,-0.00002185,0.00001260,-0.00000340,-0.0
 0001160,-0.00000710,0.00000008,-0.00000621,0.00000385,-0.00000102,0.00
 000620,-0.00001545,0.00018300,0.00022936,-0.00016056,0.00005466,-0.000
 12961,0.00006072,0.00020065,-0.00032299,-0.00304580,-0.00079348,-0.000
 97149,-0.00392751,-0.02282665,0.05118444,-0.00044975,0.00034840,0.0000
 2855,-0.00015232,-0.00070745,-0.00013100,0.00010691,0.00017760,0.00009
 773,-0.00003138,-0.00000604,-0.00006286,-0.00015175,-0.00025337,-0.000
 20594,0.00013171,-0.00067488,-0.00056879,-0.00326670,-0.00297021,-0.00
 339521,-0.02219749,0.01654887,0.01180320,-0.19066709,0.10470820,0.0796
 7424,0.00076918,0.00073354,0.00169294,-0.00067734,0.00156295,0.0005677
 5,-0.00003663,0.00002249,-0.00002810,0.00000847,-0.00000940,0.00000112
 ,-0.00003267,0.00001190,0.00001136,0.00000834,0.00002845,0.00000829,0.
 00006127,0.00014661,-0.00000986,0.00000890,0.00010614,0.00008121,0.000
 12715,-0.00007047,0.00005592,0.00090224,-0.00039938,0.00052393,0.00690
 865,-0.00425686,-0.00420172,0.20881049,0.00003467,0.00009163,-0.000000
 34,-0.00004496,-0.00016148,0.00001505,0.00001643,0.00027860,-0.0000443
 1,0.00001250,0.00001158,0.00000650,-0.00036712,0.00001681,-0.00009780,
 -0.00014335,-0.00016537,-0.00022628,-0.00117069,0.00030596,-0.00083872
 ,-0.00636330,0.00361273,0.00328277,0.10539970,-0.12593965,-0.05763202,
 -0.00002882,0.00008105,-0.00004973,-0.00027776,0.00027689,-0.00004353,
 0.00000324,-0.00001323,0.00001317,-0.00000997,0.00000335,0.00000392,0.
 00000888,-0.00000973,0.00000154,-0.00000994,0.00000407,-0.00000233,-0.
 00005089,0.00032498,-0.00014800,0.00008885,0.00006920,0.00008075,0.000
 10491,-0.00017803,0.00029802,0.00027748,0.00059044,0.00057612,0.024213
 91,-0.01692971,-0.01397102,-0.11431714,0.13276389,-0.00008195,0.000153
 03,0.00001985,-0.00024875,-0.00029317,-0.00006742,-0.00004313,-0.00002
 333,0.00016526,0.00000839,0.00002024,-0.00001586,0.00017564,-0.0001931
 0,-0.00018943,0.00003665,-0.00036934,-0.00024728,-0.00246374,-0.001283
 18,-0.00217399,-0.01263043,0.00976821,0.00530751,0.08085759,-0.0580883
 4,-0.09321941,-0.00111557,0.00069538,0.00075871,-0.00058977,0.00058162
 ,0.00045628,0.00005802,-0.00001589,0.00002981,-0.00001276,0.00000931,0
 .00000560,0.00000229,-0.00000884,0.00000482,-0.00000370,0.00000249,0.0
 0000665,0.00005509,-0.00005441,0.00004880,0.00022498,-0.00002664,0.000
 19342,0.00033889,0.00044178,0.00045956,0.00080831,0.00009002,0.0002962
 6,-0.00328992,0.00223568,0.00088643,-0.08568179,0.06504332,0.09946665,
 0.00008819,-0.00000614,0.00000752,-0.00001892,-0.00000350,0.00000520,-
 0.00007749,0.00000603,0.00007897,0.00000702,0.00001511,0.00001137,0.00
 005148,-0.00024303,-0.00017750,-0.00048904,0.00053210,0.00092482,0.001
 30304,0.00001344,-0.00096962,0.00310201,0.00792676,-0.02853026,-0.0498
 1524,-0.00455375,0.01612574,-0.00553280,-0.00125474,-0.00153108,0.0000
 1666,-0.00023663,0.00008846,0.00006610,-0.00003452,0.00004307,-0.00001
 402,0.00001239,0.00000796,0.00000941,-0.00000748,0.00000013,-0.0000053
 2,-0.00000374,0.00000308,0.00000507,-0.00005948,0.00001721,0.00009285,
 -0.00001146,0.00007307,-0.00103312,0.00141347,0.00050322,0.00135826,0.
 00004709,0.00068666,-0.00140072,-0.00067408,0.00747332,-0.00107216,-0.
 00738550,0.02352883,0.05295243,0.00000701,0.00000709,-0.00001349,0.000
 04781,-0.00001455,0.00005679,0.00012997,0.00007372,-0.00017958,-0.0000
 0227,-0.00001089,0.00002089,-0.00021727,-0.00037338,0.00040501,0.00062
 975,0.00004704,0.00034032,0.00005866,-0.00009947,0.00055514,0.00072959
 ,0.00044929,-0.00805508,-0.00375688,-0.06477866,0.06111555,-0.00134481
 ,-0.00003625,-0.00065927,0.00014064,-0.00005084,-0.00016208,-0.0000754
 0,0.00002205,-0.00003497,0.00001812,-0.00001028,-0.00001475,-0.0000031
 0,0.00000333,-0.00001020,0.00000164,0.00000418,-0.00000112,0.00012422,
 0.00022010,-0.00001982,-0.00024538,0.00010491,-0.00018106,0.00081289,-
 0.00087006,-0.00061521,0.00057872,0.00041506,-0.00028556,-0.00186894,-
 0.00628243,0.03209296,0.00017252,0.00472309,-0.01852694,0.00453830,0.0
 6548024,-0.00008599,0.00007384,0.00002615,0.00000723,-0.00017353,-0.00
 002605,-0.00006417,-0.00000760,0.00019577,-0.00001253,0.00001004,-0.00
 001730,0.00036282,-0.00020858,-0.00009904,0.00018780,-0.00073946,-0.00
 009724,0.00057092,-0.00045186,-0.00054035,0.00194787,0.00343117,-0.014
 05650,0.01472101,0.06142012,-0.29851662,-0.00418721,-0.00151844,-0.000
 41769,-0.00016346,0.00014416,0.00011613,0.00009700,-0.00004101,0.00005
 559,-0.00001555,0.00001160,0.00001580,-0.00000161,-0.00000132,0.000004
 88,-0.00000144,0.00000255,0.00000334,-0.00002456,-0.00010230,-0.000059
 09,0.00026726,0.00002826,0.00025822,0.00117179,-0.00006627,0.00064429,
 0.00003421,-0.00047441,0.00067799,0.00046887,0.00028532,-0.00092952,0.
 00089080,0.00324307,-0.01214898,-0.01653324,-0.06525761,0.32526410,0.0
 0006266,0.00003057,0.00001979,0.00010713,-0.00021310,-0.00002933,-0.00
 003178,0.00005457,-0.00009988,0.00005041,-0.00000069,0.00003286,-0.000
 03016,0.00000765,0.00002164,0.00025196,0.00000811,-0.00009272,-0.00027
 543,0.00018810,-0.00040731,0.00474921,0.00172639,0.00230781,0.00051669
 ,0.00051660,0.00031329,-0.23293504,-0.04917626,-0.10981695,-0.00097697
 ,-0.00009500,0.00097565,0.00001940,-0.00004921,0.00003583,-0.00001520,
 0.00001144,0.00001311,0.00001725,-0.00002005,-0.00000515,-0.00000814,0
 .00000957,0.00000109,0.00002934,0.00003196,0.00002450,0.00003685,-0.00
 007309,-0.00006949,0.00000215,0.00002561,0.00003265,0.00031569,0.00028
 318,-0.00063695,-0.00000901,0.00000804,0.00015370,0.00041284,-0.000225
 35,0.00018578,0.00027269,-0.00018215,0.00007908,0.25453414,-0.00002746
 ,0.00001670,0.00004189,0.00016241,-0.00007979,-0.00016646,0.00001935,0
 .00004798,-0.00017059,0.00003662,-0.00004492,0.00004649,-0.00018583,-0
 .00032990,-0.00000335,0.00015848,0.00000457,0.00020159,-0.00061483,0.0
 0020883,-0.00046225,0.00510289,-0.00020361,0.00204024,0.00005236,0.000
 37275,0.00078635,-0.04910909,-0.06306730,-0.02924782,-0.00001846,-0.00
 009892,-0.00002266,0.00002879,-0.00014287,0.00004231,-0.00001415,0.000
 02132,0.00002566,0.00000383,-0.00000704,-0.00000489,-0.00000278,0.0000
 1860,0.00000167,0.00007083,0.00010689,0.00001265,0.00001539,0.00000464
 ,0.00000437,-0.00000569,0.00000953,0.00002499,0.00051600,0.00026171,-0
 .00037022,0.00031942,0.00034592,0.00034345,-0.00045193,0.00001224,0.00
 004456,0.00007502,0.00057922,0.00026884,0.05439307,0.06223916,-0.00030
 169,0.00025327,-0.00006308,0.00063181,-0.00083852,0.00031410,-0.000048
 00,0.00009878,-0.00021614,0.00009855,-0.00001393,-0.00000043,0.0002647
 1,-0.00027907,-0.00016388,-0.00000035,-0.00014135,0.00025116,-0.001329
 15,0.00018928,0.00092532,-0.02847320,-0.00832963,-0.01410798,0.0028181
 6,0.00173296,-0.00666939,-0.10928743,-0.02932377,-0.11443803,-0.000152
 28,-0.00006785,-0.00056588,0.00003721,-0.00002046,0.00004437,-0.000016
 61,0.00000900,0.00002226,0.00000183,-0.00003317,-0.00000451,-0.0000042
 4,0.00004300,0.00001830,-0.00000594,0.00014560,0.00005318,0.00010454,-
 0.00000720,0.00004261,-0.00000049,0.00021337,0.00017575,0.00014672,0.0
 0037762,0.00134649,0.00014933,-0.00020206,0.00011094,0.00017106,0.0002
 2698,0.00025141,-0.00199614,-0.00052180,-0.00116840,0.11998581,0.03162
 266,0.12421128,-0.00025318,0.00011582,0.00000375,0.00035207,-0.0003807
 1,0.00000252,0.00003227,0.00005789,-0.00003470,0.00000429,-0.00002427,
 -0.00001133,0.00007342,-0.00016617,-0.00030112,-0.00022742,-0.00028985
 ,0.00003733,0.00044723,-0.00047648,0.00097021,-0.00357956,0.00168754,0
 .00047410,0.00043938,-0.00034211,-0.00098026,-0.18984251,0.11389028,0.
 06517129,0.00009162,0.00016324,0.00009266,-0.00000966,-0.00002699,0.00
 001119,0.00000109,0.00000295,0.00000860,-0.00001762,0.00000215,0.00000
 172,0.00000563,0.00002586,0.00000773,0.00002338,0.00014161,0.00005976,
 0.00008640,0.00013459,0.00005808,0.00005212,0.00004761,0.00005788,-0.0
 0005720,-0.00031004,0.00013985,0.00000053,-0.00005713,-0.00004482,0.00
 052643,0.00000270,-0.00015930,0.00014270,-0.00020653,0.00004926,-0.019
 94592,0.01688646,0.00952843,0.20407280,0.00008906,0.00006955,-0.000004
 99,-0.00006740,-0.00021601,0.00003428,-0.00005126,0.00009432,-0.000013
 44,0.00002774,0.00003718,0.00001146,-0.00007621,0.00065300,0.00003223,
 0.00005976,0.00035728,-0.00012043,0.00001418,-0.00021077,0.00078971,-0
 .00467315,0.00259501,0.00281078,0.00018143,-0.00020723,-0.00002818,0.1
 1370613,-0.14210354,-0.05291883,-0.00008907,0.00005296,0.00005609,-0.0
 0006625,0.00005801,-0.00003288,0.00000652,-0.00000817,-0.00002266,0.00
 001627,-0.00001743,-0.00001127,-0.00000743,-0.00000039,0.00000496,0.00
 002070,0.00025715,0.00021172,-0.00003034,0.00010932,-0.00013118,-0.000
 02699,-0.00006326,-0.00005442,-0.00029719,0.00066029,-0.00052444,0.000
 10718,-0.00001853,-0.00004523,-0.00036288,0.00031920,-0.00025195,-0.00
 032173,0.00005733,0.00005185,-0.00651037,0.00501053,0.00370462,-0.1257
 5814,0.15005430,0.00015125,-0.00002777,0.00000660,-0.00003433,0.000026
 00,-0.00001851,-0.00010401,0.00000655,-0.00016517,0.00008001,-0.000004
 09,0.00003389,-0.00044814,0.00051839,0.00053542,0.00207744,0.00021668,
 -0.00052738,-0.00095715,0.00088444,-0.00700492,0.02414430,-0.02050794,
 -0.01109623,0.00156338,-0.00075283,0.00116599,0.06408284,-0.05199813,-
 0.07778077,-0.00045039,-0.00031101,-0.00017739,0.00007252,-0.00007455,
 0.00005572,-0.00003025,0.00002710,0.00003056,0.00002543,-0.00002878,-0
 .00000283,-0.00001207,-0.00000307,0.00000572,-0.00006890,-0.00027297,0
 .00007440,0.00001365,-0.00068247,-0.00039501,-0.00005153,0.00013180,-0
 .00000047,-0.00010591,0.00036352,0.00147962,-0.00010854,0.00006356,-0.
 00006364,-0.00108641,0.00026190,-0.00025871,-0.00003988,0.00036270,0.0
 0043446,-0.01178321,0.01113014,0.00595494,-0.07134204,0.05703507,0.085
 68838,-0.00000633,0.00018669,-0.00003583,-0.00001468,-0.00053243,0.000
 16720,-0.00009343,0.00019444,0.00006374,0.00002026,0.00004811,-0.00003
 828,-0.00007592,0.00045584,-0.00020533,0.00018278,-0.00013842,-0.00023
 543,0.00027113,-0.00149221,0.00006498,-0.00196624,-0.00376185,0.001094
 73,0.00033195,0.00099556,-0.00028812,-0.06548968,-0.05983084,0.0117621
 7,-0.00051464,0.00015913,-0.00011683,-0.00011864,0.00014716,-0.0000497
 0,0.00001031,-0.00001898,-0.00002480,0.00000940,-0.00002170,-0.0000020
 0,-0.00000431,0.00000741,0.00001257,0.00014119,0.00025982,0.00023597,-
 0.00002107,0.00006859,-0.00011377,0.00000528,0.00000469,-0.00006736,0.
 00059691,0.00007236,0.00079973,0.00038318,-0.00007531,-0.00005650,0.00
 002841,0.00015745,0.00003361,-0.00011518,-0.00001890,0.00011583,-0.006
 06941,-0.02739820,0.00624132,0.00720131,0.02392290,-0.00579277,0.06505
 805,-0.00008814,0.00013626,-0.00001523,0.00007744,-0.00034379,0.000082
 43,0.00000719,0.00016454,0.00012420,-0.00004356,0.00002923,-0.00005883
 ,-0.00037614,0.00025160,-0.00037417,0.00010477,-0.00009332,-0.00009837
 ,0.00055212,0.00029535,-0.00029181,-0.00112606,-0.00457546,0.00170547,
 -0.00013132,0.00051008,-0.00053901,-0.06000575,-0.28407978,0.04776402,
 -0.00009862,0.00016042,0.00000263,-0.00006202,0.00008347,-0.00004917,0
 .00001272,-0.00001514,-0.00001951,-0.00001274,0.00000858,0.00000486,0.
 00000211,0.00001629,0.00000939,0.00022401,0.00015586,-0.00006250,0.000
 00021,0.00013029,-0.00005173,-0.00000861,-0.00003197,0.00001986,0.0000
 7119,0.00139931,0.00099365,0.00052509,0.00035665,0.00052540,-0.0000230
 4,-0.00012594,0.00006118,0.00016867,0.00033640,0.00002677,-0.00102359,
 -0.00585490,0.00063775,-0.00543142,-0.01760934,0.00339997,0.06655872,0
 .30870443,-0.00004585,-0.00008739,-0.00000290,0.00003756,0.00016969,0.
 00005449,0.00001965,-0.00027294,0.00007506,-0.00002066,-0.00001724,-0.
 00002404,0.00038091,-0.00071016,0.00013758,-0.00041565,-0.00003222,0.0
 0039403,-0.00102334,0.00163338,0.00141630,0.00833364,0.03338123,-0.007
 84686,0.00104065,0.00084110,0.00195748,0.01185346,0.04726973,-0.058273
 78,0.00001022,-0.00019287,-0.00010146,0.00003633,0.00000577,0.00001032
 ,0.00000451,-0.00000318,0.00000308,-0.00001245,0.00001346,0.00000331,0
 .00000793,-0.00000491,0.00000124,-0.00001085,-0.00056305,-0.00033775,-
 0.00001662,-0.00003320,0.00017126,0.00002496,0.00002352,-0.00001142,0.
 00092163,0.00071308,-0.00696318,-0.00058694,-0.00077953,-0.00018130,-0
 .00015306,-0.00006285,-0.00006703,0.00016044,-0.00038993,0.00029446,-0
 .00266415,-0.01642713,0.00330698,-0.00397043,-0.01063523,0.00172597,-0
 .01377465,-0.05386461,0.06420341,0.00028286,-0.00117950,0.00179999,0.0
 0879840,0.01247326,-0.01486357,-0.00224295,0.00282085,0.00213219,0.001
 07074,0.00044291,-0.00008451,-0.00532965,-0.00032456,0.00093740,0.0021
 9742,0.00281620,0.00127188,-0.01113938,-0.02218699,0.01570659,0.000466
 35,-0.00197006,-0.00040161,-0.00020010,0.00042247,0.00005400,0.0000042
 5,0.00015339,-0.00003023,-0.08633419,-0.07001790,0.06036697,-0.0002329
 3,-0.00039781,-0.00002745,-0.00004991,0.00005316,0.00005490,0.00005308
 ,-0.00014411,-0.00004113,-0.00015279,0.00032088,0.00022355,0.00036198,
 -0.00154538,-0.00084561,0.00061753,-0.00050383,-0.00076999,0.00009310,
 0.00021079,-0.00002362,-0.00009281,0.00089822,0.00007441,0.00017335,0.
 00004719,0.00004041,-0.00012552,0.00003888,-0.00008136,-0.00003387,-0.
 00001300,-0.00004485,0.00001690,-0.00003863,-0.00004990,-0.00003323,0.
 00003782,0.00005091,0.00001831,0.00005118,-0.00012734,0.09167205,-0.00
 066412,0.00355384,-0.00267588,-0.01094665,-0.02024920,0.01718925,0.001
 06743,-0.00275578,-0.00310071,-0.00090163,-0.00062292,0.00046538,-0.00
 074445,-0.00111901,0.00084908,-0.00006269,0.00080357,0.00060599,-0.002
 43829,-0.00509740,0.00192696,-0.00014350,0.00008819,-0.00019887,-0.000
 03130,0.00000311,0.00012873,0.00000802,-0.00010704,-0.00024505,-0.0693
 4779,-0.17128967,0.11547799,0.00015265,0.00028033,0.00041284,-0.000011
 05,-0.00004523,-0.00007321,0.00009251,0.00000174,-0.00001251,0.0002580
 1,-0.00028990,-0.00028637,0.00001551,-0.00029334,-0.00042952,0.0002372
 9,-0.00048363,-0.00062444,0.00022931,0.00007932,-0.00025600,-0.0001740
 1,0.00003934,0.00014614,0.00003403,0.00000223,-0.00000938,-0.00003494,
 0.00000937,-0.00001666,0.00000754,0.00000985,-0.00000902,0.00008616,0.
 00005374,0.00015623,0.00006138,0.00005208,0.00004352,0.00007768,0.0000
 1676,-0.00002644,0.07838607,0.18725583,-0.00134735,-0.00018412,0.00055
 288,0.00163174,-0.00329102,-0.00013352,-0.00027201,-0.00052081,-0.0002
 4506,0.00002675,-0.00017853,0.00007953,-0.00244650,-0.00239760,0.00015
 399,0.00006723,0.00063424,0.00250772,-0.00378733,-0.00841294,0.0060998
 1,0.00031275,0.00002652,-0.00032507,-0.00000215,-0.00007008,0.00005473
 ,-0.00010088,-0.00022402,-0.00041522,0.06037955,0.11444378,-0.14433352
 ,-0.00005678,-0.00006253,0.00005176,-0.00001191,0.00003019,0.00002360,
 0.00000353,-0.00001812,-0.00000719,0.00001818,-0.00001009,-0.00000525,
 0.00006929,-0.00091321,-0.00032234,0.00055794,0.00027622,-0.00003687,-
 0.00006911,0.00010714,0.00017814,0.00024081,0.00000138,0.00002159,-0.0
 0001356,-0.00001340,-0.00001148,-0.00001143,0.00002429,-0.00002139,0.0
 0000212,0.00002154,0.00001476,0.00017468,0.00015752,0.00028622,0.00015
 902,0.00005734,0.00009680,0.00005886,-0.00001099,0.00004046,-0.0663664
 6,-0.12146057,0.15480905,-0.00120733,0.00050599,-0.00370895,-0.0007221
 8,0.00549548,0.02128783,-0.00066670,0.00009340,-0.00216688,-0.00006487
 ,-0.00001304,-0.00001840,0.00060017,0.00045749,0.00042375,-0.00594724,
 -0.00106840,-0.00149426,0.00231867,-0.01174571,-0.02932994,0.00159255,
 0.00018173,-0.00035721,0.00018073,-0.00007048,-0.00007519,-0.00135487,
 -0.00036135,-0.00021883,-0.04550296,0.00220397,0.00691030,0.00077040,0
 .00037842,0.00021611,-0.00007456,-0.00002074,0.00001138,0.00003946,-0.
 00009207,-0.00002549,0.00003808,0.00004968,0.00001798,-0.00005120,-0.0
 0009109,-0.00009004,-0.00012425,0.00056467,0.00003642,0.00009721,-0.00
 178824,-0.00083035,-0.00009572,0.00038402,0.00000135,0.00011244,0.0000
 6712,-0.00001740,0.00004979,0.00003518,0.00008811,0.00013995,-0.000055
 21,0.00016285,-0.00109826,0.00002614,0.00148594,0.00041364,0.00014871,
 0.00015378,0.00023106,0.00007559,-0.00000993,0.00014101,0.00478683,0.0
 1078299,0.05018498,-0.00010677,0.00065853,0.00289779,0.00021557,-0.010
 14966,-0.02682651,0.00017425,-0.00158732,0.00463744,0.00030493,-0.0001
 3196,0.00008370,0.00055245,0.00036708,0.00021403,-0.00121878,0.0009566
 4,-0.00014884,0.00002293,-0.00304599,-0.00768710,0.00063791,0.00021137
 ,-0.00001990,-0.00008108,-0.00011907,0.00006471,-0.00006940,-0.0001514
 8,-0.00043630,0.00047125,-0.08216070,-0.09510866,-0.00045077,-0.001488
 13,-0.00006825,-0.00002755,0.00007112,-0.00000699,-0.00000749,0.000009
 94,0.00002676,-0.00003520,-0.00003336,-0.00002657,-0.00001801,-0.00009
 253,-0.00018041,0.00007988,0.00006463,0.00004177,0.00013788,-0.0004366
 0,-0.00008592,0.00000161,-0.00000315,0.00018801,-0.00000409,-0.0000033
 3,-0.00002708,-0.00002967,0.00002804,0.00000495,0.00003984,-0.00000609
 ,0.00005383,0.00018786,0.00051493,0.00036767,0.00024975,0.00001715,0.0
 0019227,-0.00002773,-0.00002587,0.00005190,-0.00085152,0.01010382,0.02
 198787,-0.00014807,0.08643199,-0.00045736,-0.00014125,0.00064972,0.001
 21809,-0.00096457,0.00103405,0.00037690,0.00003372,-0.00138044,-0.0000
 2998,-0.00024387,0.00009079,-0.00002820,-0.00012305,-0.00011270,-0.002
 26209,0.00017890,0.00033698,-0.00134761,-0.00278933,-0.00816882,0.0008
 6365,-0.00085379,-0.00034687,-0.00002592,0.00021346,0.00000765,0.00068
 245,0.00021831,-0.00010147,0.00173445,-0.08758793,-0.26398544,0.000212
 58,0.00022519,0.00037833,-0.00005522,0.00005205,0.00005231,0.00003655,
 -0.00004496,-0.00000266,0.00003559,-0.00003174,-0.00001489,0.00005695,
 -0.00017644,0.00004682,-0.00010314,0.00052571,0.00032106,0.00002083,-0
 .00084975,-0.00009803,-0.00021420,0.00034458,-0.00011172,0.00010341,0.
 00003192,0.00000863,-0.00007194,0.00003952,0.00005247,0.00003655,-0.00
 004240,0.00007086,0.00124785,0.00007999,0.00008245,0.00001062,-0.00000
 498,0.00020257,0.00015067,0.00007836,0.00001427,0.00104444,-0.00797748
 ,-0.01911414,-0.00323594,0.09980982,0.29008822\\0.00003965,-0.00000128
 ,0.00005787,-0.00006168,0.00000890,-0.00004790,0.00002986,0.00002182,0
 .00001108,-0.00000271,-0.00001652,-0.00001473,-0.00003697,-0.00003472,
 0.00001612,-0.00000933,-0.00000947,-0.00001547,0.00000686,0.00001467,-
 0.00000830,0.00002742,0.00001761,0.00002938,-0.00004378,-0.00000524,-0
 .00001352,0.00000610,-0.00000385,0.00000953,0.00005079,0.00001786,0.00
 002141,0.00000489,-0.00000259,0.00000050,0.00000553,0.00000428,-0.0000
 0117,-0.00000895,-0.00000006,0.00000386,0.00000408,0.00000397,-0.00000
 958,-0.00000766,0.00001412,0.00000528,0.00000013,0.00000149,0.00000519
 ,0.00000994,-0.00000201,-0.00000722,-0.00000502,-0.00000449,0.00000450
 ,0.00000134,-0.00000011,-0.00000006,0.00000289,-0.00000423,0.00000126,
 0.00000873,-0.00000759,0.00000365,-0.00001598,-0.00000349,-0.00000210,
 -0.00000237,-0.00000280,-0.00000933,-0.00001035,0.00000138,0.00000391,
 -0.00000671,-0.00001766,-0.00001709,0.00001330,0.00001001,-0.00002708\
 \\@


 IN THE UNIVERSE THE DIFFICULT THINGS ARE DONE AS IF THEY WERE EASY.

                                                          -- LAO-TSU
 Job cpu time:       0 days  0 hours  2 minutes 31.0 seconds.
 Elapsed time:       0 days  0 hours  2 minutes 32.8 seconds.
 File lengths (MBytes):  RWF=    127 Int=      0 D2E=      0 Chk=      5 Scr=      1
 Normal termination of Gaussian 16 at Thu Feb 22 10:17:57 2024.
