 Entering Gaussian System, Link 0=g16
 Input=/Volumes/SSD-PMU3/b3lyp_6-31gd_freq/USMNOWBWPHYOEA-KHQFGBGNSA-N_calculating/gaussianinput0.gjf
 Output=/Volumes/SSD-PMU3/b3lyp_6-31gd_freq/USMNOWBWPHYOEA-KHQFGBGNSA-N_calculating/gaussianinput0.log
 Initial command:
 /Applications/g16/l1.exe "/Users/macmini_m1_2022/PycharmProjects/sphere_model/sphere_model_lib/Gau-58915.inp" -scrdir="/Users/macmini_m1_2022/PycharmProjects/sphere_model/sphere_model_lib/"
 Entering Link 1 = /Applications/g16/l1.exe PID=     58916.
  
 Copyright (c) 1988,1990,1992,1993,1995,1998,2003,2009,2016,
            Gaussian, Inc.  All Rights Reserved.
  
 This is part of the Gaussian(R) 16 program.  It is based on
 the Gaussian(R) 09 system (copyright 2009, Gaussian, Inc.),
 the Gaussian(R) 03 system (copyright 2003, Gaussian, Inc.),
 the Gaussian(R) 98 system (copyright 1998, Gaussian, Inc.),
 the Gaussian(R) 94 system (copyright 1995, Gaussian, Inc.),
 the Gaussian 92(TM) system (copyright 1992, Gaussian, Inc.),
 the Gaussian 90(TM) system (copyright 1990, Gaussian, Inc.),
 the Gaussian 88(TM) system (copyright 1988, Gaussian, Inc.),
 the Gaussian 86(TM) system (copyright 1986, Carnegie Mellon
 University), and the Gaussian 82(TM) system (copyright 1983,
 Carnegie Mellon University). Gaussian is a federally registered
 trademark of Gaussian, Inc.
  
 This software contains proprietary and confidential information,
 including trade secrets, belonging to Gaussian, Inc.
  
 This software is provided under written license and may be
 used, copied, transmitted, or stored only in accord with that
 written license.
  
 The following legend is applicable only to US Government
 contracts under FAR:
  
                    RESTRICTED RIGHTS LEGEND
  
 Use, reproduction and disclosure by the US Government is
 subject to restrictions as set forth in subparagraphs (a)
 and (c) of the Commercial Computer Software - Restricted
 Rights clause in FAR 52.227-19.
  
 Gaussian, Inc.
 340 Quinnipiac St., Bldg. 40, Wallingford CT 06492
  
  
 ---------------------------------------------------------------
 Warning -- This program may not be used in any manner that
 competes with the business of Gaussian, Inc. or will provide
 assistance to any competitor of Gaussian, Inc.  The licensee
 of this program is prohibited from giving any competitor of
 Gaussian, Inc. access to this program.  By using this program,
 the user acknowledges that Gaussian, Inc. is engaged in the
 business of creating and licensing software in the field of
 computational chemistry and represents and warrants to the
 licensee that it is not a competitor of Gaussian, Inc. and that
 it will not use this program in any manner prohibited above.
 ---------------------------------------------------------------
  

 Cite this work as:
 Gaussian 16, Revision A.03,
 M. J. Frisch, G. W. Trucks, H. B. Schlegel, G. E. Scuseria, 
 M. A. Robb, J. R. Cheeseman, G. Scalmani, V. Barone, 
 G. A. Petersson, H. Nakatsuji, X. Li, M. Caricato, A. V. Marenich, 
 J. Bloino, B. G. Janesko, R. Gomperts, B. Mennucci, H. P. Hratchian, 
 J. V. Ortiz, A. F. Izmaylov, J. L. Sonnenberg, D. Williams-Young, 
 F. Ding, F. Lipparini, F. Egidi, J. Goings, B. Peng, A. Petrone, 
 T. Henderson, D. Ranasinghe, V. G. Zakrzewski, J. Gao, N. Rega, 
 G. Zheng, W. Liang, M. Hada, M. Ehara, K. Toyota, R. Fukuda, 
 J. Hasegawa, M. Ishida, T. Nakajima, Y. Honda, O. Kitao, H. Nakai, 
 T. Vreven, K. Throssell, J. A. Montgomery, Jr., J. E. Peralta, 
 F. Ogliaro, M. J. Bearpark, J. J. Heyd, E. N. Brothers, K. N. Kudin, 
 V. N. Staroverov, T. A. Keith, R. Kobayashi, J. Normand, 
 K. Raghavachari, A. P. Rendell, J. C. Burant, S. S. Iyengar, 
 J. Tomasi, M. Cossi, J. M. Millam, M. Klene, C. Adamo, R. Cammi, 
 J. W. Ochterski, R. L. Martin, K. Morokuma, O. Farkas, 
 J. B. Foresman, and D. J. Fox, Gaussian, Inc., Wallingford CT, 2016.
 
 ******************************************
 Gaussian 16:  EM64M-G16RevA.03 25-Dec-2016
                22-Feb-2024 
 ******************************************
 %nprocshared=8
 Will use up to    8 processors via shared memory.
 %mem=4GB
 %chk= 0.chk
 ---------------------
 # freq b3lyp/6-31g(d)
 ---------------------
 1/10=4,30=1,38=1/1,3;
 2/12=2,17=6,18=5,40=1/2;
 3/5=1,6=6,7=1,11=2,25=1,30=1,71=2,74=-5,140=1/1,2,3;
 4//1;
 5/5=2,38=5,98=1/2;
 8/6=4,10=90,11=11/1;
 11/6=1,8=1,9=11,15=111,16=1/1,2,10;
 10/6=1/2;
 6/7=2,8=2,9=2,10=2,28=1/1;
 7/8=1,10=1,25=1/1,2,3,16;
 1/10=4,30=1/3;
 99//99;
 ---------
 good luck
 ---------
 Symbolic Z-matrix:
 Charge =  0 Multiplicity = 1
 O                     1.21128   0.        0. 
 C                     0.        0.        0. 
 C                    -0.88237  -1.26402   0.00223 
 C                    -0.28471  -2.40139  -0.83097 
 C                    -2.25504  -0.75275  -0.40397 
 C                    -2.35647   0.03741  -1.68943 
 C                    -2.28551   0.77184  -0.36851 
 C                    -3.51433   1.52948   0.12731 
 C                    -3.57622   2.95108  -0.45561 
 C                    -3.61452   1.55237   1.66132 
 C                    -0.88619   1.25374   0.00223 
 H                    -0.92586  -1.58946   1.05522 
 H                     0.74633  -2.59432  -0.51913 
 H                    -0.27358  -2.14299  -1.89555 
 H                    -0.86614  -3.32198  -0.71283 
 H                    -3.13007  -1.31506  -0.08547 
 H                    -1.4984    0.06828  -2.36009 
 H                    -3.31277   0.02728  -2.20674 
 H                    -4.3903    0.97885  -0.2475 
 H                    -2.73728   3.56218  -0.09993 
 H                    -3.53596   2.93276  -1.55065 
 H                    -4.50197   3.45747  -0.15822 
 H                    -4.55139   2.02315   1.98103 
 H                    -2.79462   2.1241    2.11316 
 H                    -3.58718   0.5388    2.07781 
 H                    -0.46625   2.00418  -0.67722 
 H                    -0.85524   1.68731   1.01166 
 

 GradGradGradGradGradGradGradGradGradGradGradGradGradGradGradGradGradGrad
 Berny optimization.
 Initialization pass.
 Trust Radius=3.00D-01 FncErr=1.00D-07 GrdErr=1.00D-07 EigMax=2.50D+02 EigMin=1.00D-04
 Number of steps in this run=      2 maximum allowed number of steps=      2.
 GradGradGradGradGradGradGradGradGradGradGradGradGradGradGradGradGradGrad

                          Input orientation:                          
 ---------------------------------------------------------------------
 Center     Atomic      Atomic             Coordinates (Angstroms)
 Number     Number       Type             X           Y           Z
 ---------------------------------------------------------------------
      1          8           0        1.211280    0.000000    0.000000
      2          6           0        0.000000    0.000000    0.000000
      3          6           0       -0.882371   -1.264024    0.002232
      4          6           0       -0.284706   -2.401395   -0.830970
      5          6           0       -2.255044   -0.752751   -0.403971
      6          6           0       -2.356469    0.037406   -1.689432
      7          6           0       -2.285508    0.771835   -0.368511
      8          6           0       -3.514328    1.529479    0.127308
      9          6           0       -3.576223    2.951079   -0.455614
     10          6           0       -3.614519    1.552368    1.661324
     11          6           0       -0.886186    1.253742    0.002232
     12          1           0       -0.925860   -1.589462    1.055224
     13          1           0        0.746328   -2.594318   -0.519125
     14          1           0       -0.273579   -2.142993   -1.895554
     15          1           0       -0.866142   -3.321984   -0.712834
     16          1           0       -3.130067   -1.315055   -0.085465
     17          1           0       -1.498400    0.068282   -2.360086
     18          1           0       -3.312768    0.027275   -2.206744
     19          1           0       -4.390305    0.978845   -0.247502
     20          1           0       -2.737276    3.562180   -0.099931
     21          1           0       -3.535964    2.932762   -1.550650
     22          1           0       -4.501969    3.457474   -0.158224
     23          1           0       -4.551387    2.023147    1.981034
     24          1           0       -2.794620    2.124098    2.113163
     25          1           0       -3.587176    0.538798    2.077811
     26          1           0       -0.466252    2.004182   -0.677218
     27          1           0       -0.855241    1.687310    1.011656
 ---------------------------------------------------------------------
                    Distance matrix (angstroms):
                    1          2          3          4          5
     1  O    0.000000
     2  C    1.211280   0.000000
     3  C    2.445636   1.541538   0.000000
     4  C    2.948760   2.557003   1.531353   0.000000
     5  C    3.570046   2.411441   1.520076   2.604340   0.000000
     6  C    3.947710   2.899746   2.593918   3.313142   1.512298
     7  C    3.599869   2.440303   2.500193   3.779744   1.525303
     8  C    4.968590   3.834842   3.840117   5.176922   2.660193
     9  C    5.642396   4.658951   5.023301   6.294756   3.932752
    10  C    5.334621   4.270198   4.260198   5.738591   3.380413
    11  C    2.443612   1.535317   2.517769   3.796845   2.462679
    12  H    2.864831   2.120638   1.102993   2.151288   2.143844
    13  H    2.686291   2.748997   2.166600   1.094302   3.523189
    14  H    3.223407   2.874089   2.178258   1.095552   2.843202
    15  H    3.982385   3.506268   2.178711   1.095221   2.936904
    16  H    4.536956   3.396173   2.249985   3.135601   1.087795
    17  H    3.594028   2.796403   2.781201   3.148103   2.252330
    18  H    5.033634   3.980565   3.529002   4.118295   2.230966
    19  H    5.691849   4.504905   4.171142   5.349991   2.753588
    20  H    5.318854   4.493528   5.171398   6.489510   4.352427
    21  H    5.791540   4.848572   5.202500   6.288231   4.066772
    22  H    6.679848   5.678634   5.951452   7.250120   4.778604
    23  H    6.420744   5.360293   5.308750   6.759327   4.320538
    24  H    5.002448   4.097213   4.426296   5.953795   3.860488
    25  H    5.256689   4.180363   3.856704   5.292641   3.098696
    26  H    2.699904   2.166278   3.363923   4.411996   3.297745
    27  H    2.853239   2.145204   3.119302   4.520873   3.149182
                    6          7          8          9         10
     6  C    0.000000
     7  C    1.513028   0.000000
     8  C    2.620585   1.526388   0.000000
     9  C    3.391106   2.534292   1.537718   0.000000
    10  C    3.886562   2.548673   1.537455   2.537575   0.000000
    11  C    2.550085   1.525709   2.645526   3.213546   3.207112
    12  H    3.496638   3.074311   4.158003   5.470244   4.179395
    13  H    4.233549   4.532736   5.964626   7.031352   6.400496
    14  H    3.022426   3.856934   5.299196   6.239427   6.121189
    15  H    3.802673   4.346552   5.590655   6.838276   6.078611
    16  H    2.236138   2.269032   2.878246   4.305341   3.392356
    17  H    1.089501   2.254084   3.519402   4.031734   4.780398
    18  H    1.087300   2.233547   2.782992   3.418259   4.168802
    19  H    2.664950   2.118411   1.100462   2.143769   2.138782
    20  H    3.885300   2.839411   2.187995   1.097172   2.812636
    21  H    3.129466   2.762372   2.187513   1.095929   3.496918
    22  H    4.317943   3.488492   2.184978   1.096304   2.779883
    23  H    4.715204   3.495762   2.180711   2.783749   1.096161
    24  H    4.359586   2.871675   2.194350   2.809522   1.096936
    25  H    3.994766   2.780852   2.188885   3.498208   1.096145
    26  H    2.909589   2.218935   3.188004   3.258472   3.947721
    27  H    3.503105   2.188291   2.806729   3.339721   2.837938
                   11         12         13         14         15
    11  C    0.000000
    12  H    3.032190   0.000000
    13  H    4.212420   2.506895   0.000000
    14  H    3.938869   3.072289   1.771570   0.000000
    15  H    4.631305   2.476132   1.779629   1.771998   0.000000
    16  H    3.411951   2.496998   4.104999   3.481584   3.089775
    17  H    2.713055   3.839305   3.939211   2.570158   3.821923
    18  H    3.503155   4.353344   5.118307   3.747475   4.408546
    19  H    3.523746   4.505072   6.263088   5.423042   5.579730
    20  H    2.960719   5.581669   7.086162   6.468621   7.160203
    21  H    3.500268   5.835558   7.067580   6.043625   6.852133
    22  H    4.237460   6.303378   8.018669   7.229303   7.712839
    23  H    4.235722   5.201203   7.459059   7.119291   7.029110
    24  H    2.975848   4.289758   6.459931   6.374443   6.431570
    25  H    3.480592   3.557777   5.944724   5.827483   5.486106
    26  H    1.095973   4.015828   4.758313   4.326722   5.341276
    27  H    1.099034   3.277822   4.820856   4.843699   5.297831
                   16         17         18         19         20
    16  H    0.000000
    17  H    3.122476   0.000000
    18  H    2.516953   1.821298   0.000000
    19  H    2.622295   3.695301   2.430062   0.000000
    20  H    4.893048   4.341709   4.155166   3.070489   0.000000
    21  H    4.511704   3.607229   2.986994   2.499177   1.771625
    22  H    4.966331   5.035499   4.168561   2.482749   1.768757
    23  H    4.175423   5.655754   4.801580   2.466351   3.160702
    24  H    4.095640   5.090827   4.829776   3.070921   2.639915
    25  H    2.885391   4.927403   4.323698   2.499147   3.821744
    26  H    4.296908   2.764974   3.788174   4.078500   2.813924
    27  H    3.923354   3.795201   4.376443   3.818911   2.879725
                   21         22         23         24         25
    21  H    0.000000
    22  H    1.774074   0.000000
    23  H    3.785667   2.576075   0.000000
    24  H    3.824533   3.138810   1.764619   0.000000
    25  H    4.347346   3.788848   1.772670   1.772730   0.000000
    26  H    3.323895   4.320697   4.873909   3.636194   4.413355
    27  H    3.911884   4.219091   3.835880   2.272728   3.149482
                   26         27
    26  H    0.000000
    27  H    1.761822   0.000000
 Stoichiometry    C10H16O
 Framework group  C1[X(C10H16O)]
 Deg. of freedom    75
 Full point group                 C1      NOp   1
 Largest Abelian subgroup         C1      NOp   1
 Largest concise Abelian subgroup C1      NOp   1
                         Standard orientation:                         
 ---------------------------------------------------------------------
 Center     Atomic      Atomic             Coordinates (Angstroms)
 Number     Number       Type             X           Y           Z
 ---------------------------------------------------------------------
      1          8           0        2.330517    1.822707   -0.171606
      2          6           0        1.461321    1.000267    0.016245
      3          6           0        1.688965   -0.404534    0.608744
      4          6           0        3.013270   -1.027003    0.157312
      5          6           0        0.414420   -1.157865    0.264273
      6          6           0       -0.010656   -1.189414   -1.186713
      7          6           0       -0.651229   -0.192929   -0.245471
      8          6           0       -2.120923   -0.363810    0.129576
      9          6           0       -3.049480    0.289502   -0.907507
     10          6           0       -2.430396    0.139866    1.548838
     11          6           0       -0.029055    1.199305   -0.294180
     12          1           0        1.727093   -0.259295    1.701467
     13          1           0        3.839431   -0.336788    0.353675
     14          1           0        2.999266   -1.241196   -0.917006
     15          1           0        3.206116   -1.966256    0.686577
     16          1           0        0.123507   -1.995093    0.894921
     17          1           0        0.681096   -0.830656   -1.948148
     18          1           0       -0.615121   -2.033060   -1.510914
     19          1           0       -2.320142   -1.446027    0.118042
     20          1           0       -2.915259    1.378211   -0.929534
     21          1           0       -2.849651   -0.092528   -1.915069
     22          1           0       -4.101809    0.092035   -0.671938
     23          1           0       -3.469672   -0.079771    1.819457
     24          1           0       -2.296937    1.225442    1.632397
     25          1           0       -1.780528   -0.337011    2.291666
     26          1           0       -0.140648    1.716490   -1.253984
     27          1           0       -0.448299    1.863535    0.474526
 ---------------------------------------------------------------------
 Rotational constants (GHZ):           2.0019833           0.7318606           0.6676970
 Standard basis: 6-31G(d) (6D, 7F)
 There are   197 symmetry adapted cartesian basis functions of A   symmetry.
 There are   197 symmetry adapted basis functions of A   symmetry.
   197 basis functions,   372 primitive gaussians,   197 cartesian basis functions
    42 alpha electrons       42 beta electrons
       nuclear repulsion energy       644.4898994594 Hartrees.
 NAtoms=   27 NActive=   27 NUniq=   27 SFac= 1.00D+00 NAtFMM=   60 NAOKFM=F Big=F
 Integral buffers will be    131072 words long.
 Raffenetti 2 integral format.
 Two-electron integral symmetry is turned on.
 One-electron integrals computed using PRISM.
 NBasis=   197 RedAO= T EigKep=  1.75D-03  NBF=   197
 NBsUse=   197 1.00D-06 EigRej= -1.00D+00 NBFU=   197
 ExpMin= 1.61D-01 ExpMax= 5.48D+03 ExpMxC= 8.25D+02 IAcc=3 IRadAn=         5 AccDes= 0.00D+00
 Harris functional with IExCor=  402 and IRadAn=       5 diagonalized for initial guess.
 HarFok:  IExCor=  402 AccDes= 0.00D+00 IRadAn=         5 IDoV= 1 UseB2=F ITyADJ=14
 ICtDFT=  3500011 ScaDFX=  1.000000  1.000000  1.000000  1.000000
 FoFCou: FMM=F IPFlag=           0 FMFlag=      100000 FMFlg1=           0
         NFxFlg=           0 DoJE=T BraDBF=F KetDBF=T FulRan=T
         wScrn=  0.000000 ICntrl=       500 IOpCl=  0 I1Cent=   200000004 NGrid=           0
         NMat0=    1 NMatS0=      1 NMatT0=    0 NMatD0=    1 NMtDS0=    0 NMtDT0=    0
 Petite list used in FoFCou.
 Requested convergence on RMS density matrix=1.00D-08 within 128 cycles.
 Requested convergence on MAX density matrix=1.00D-06.
 Requested convergence on             energy=1.00D-06.
 No special actions if energy rises.
 Integral accuracy reduced to 1.0D-05 until final iterations.
 Initial convergence to 1.0D-05 achieved.  Increase integral accuracy.
 SCF Done:  E(RB3LYP) =  -465.904364612     A.U. after   14 cycles
            NFock= 14  Conv=0.31D-08     -V/T= 2.0098
 DoSCS=F DFT=T ScalE2(SS,OS)=  1.000000  1.000000
 Range of M.O.s used for correlation:     1   197
 NBasis=   197 NAE=    42 NBE=    42 NFC=     0 NFV=     0
 NROrb=    197 NOA=    42 NOB=    42 NVA=   155 NVB=   155
 Symmetrizing basis deriv contribution to polar:
 IMax=3 JMax=2 DiffMx= 0.00D+00
 G2DrvN: will do    28 centers at a time, making    1 passes.
 Calling FoFCou, ICntrl=  3107 FMM=F I1Cent=   0 AccDes= 0.00D+00.
 End of G2Drv F.D. properties file   721 does not exist.
 End of G2Drv F.D. properties file   722 does not exist.
 End of G2Drv F.D. properties file   788 does not exist.
          IDoAtm=111111111111111111111111111
          Differentiating once with respect to electric field.
                with respect to dipole field.
          Differentiating once with respect to nuclear coordinates.
 Keep R1 ints in memory in canonical form, NReq=198402030.
          There are    84 degrees of freedom in the 1st order CPHF.  IDoFFX=6 NUNeed=     3.
     81 vectors produced by pass  0 Test12= 7.75D-15 1.19D-09 XBig12= 7.07D+01 2.33D+00.
 AX will form    81 AO Fock derivatives at one time.
     81 vectors produced by pass  1 Test12= 7.75D-15 1.19D-09 XBig12= 9.36D+00 9.10D-01.
     81 vectors produced by pass  2 Test12= 7.75D-15 1.19D-09 XBig12= 8.01D-02 3.63D-02.
     81 vectors produced by pass  3 Test12= 7.75D-15 1.19D-09 XBig12= 2.13D-04 1.40D-03.
     81 vectors produced by pass  4 Test12= 7.75D-15 1.19D-09 XBig12= 2.16D-07 4.58D-05.
     39 vectors produced by pass  5 Test12= 7.75D-15 1.19D-09 XBig12= 1.53D-10 1.18D-06.
      3 vectors produced by pass  6 Test12= 7.75D-15 1.19D-09 XBig12= 1.13D-13 3.13D-08.
 InvSVY:  IOpt=1 It=  1 EMax= 8.88D-15
 Solved reduced A of dimension   447 with    84 vectors.
 Isotropic polarizability for W=    0.000000      100.18 Bohr**3.
 End of Minotr F.D. properties file   721 does not exist.
 End of Minotr F.D. properties file   722 does not exist.
 End of Minotr F.D. properties file   788 does not exist.

 **********************************************************************

            Population analysis using the SCF density.

 **********************************************************************

 Orbital symmetries:
       Occupied  (A) (A) (A) (A) (A) (A) (A) (A) (A) (A) (A) (A)
                 (A) (A) (A) (A) (A) (A) (A) (A) (A) (A) (A) (A)
                 (A) (A) (A) (A) (A) (A) (A) (A) (A) (A) (A) (A)
                 (A) (A) (A) (A) (A) (A)
       Virtual   (A) (A) (A) (A) (A) (A) (A) (A) (A) (A) (A) (A)
                 (A) (A) (A) (A) (A) (A) (A) (A) (A) (A) (A) (A)
                 (A) (A) (A) (A) (A) (A) (A) (A) (A) (A) (A) (A)
                 (A) (A) (A) (A) (A) (A) (A) (A) (A) (A) (A) (A)
                 (A) (A) (A) (A) (A) (A) (A) (A) (A) (A) (A) (A)
                 (A) (A) (A) (A) (A) (A) (A) (A) (A) (A) (A) (A)
                 (A) (A) (A) (A) (A) (A) (A) (A) (A) (A) (A) (A)
                 (A) (A) (A) (A) (A) (A) (A) (A) (A) (A) (A) (A)
                 (A) (A) (A) (A) (A) (A) (A) (A) (A) (A) (A) (A)
                 (A) (A) (A) (A) (A) (A) (A) (A) (A) (A) (A) (A)
                 (A) (A) (A) (A) (A) (A) (A) (A) (A) (A) (A) (A)
                 (A) (A) (A) (A) (A) (A) (A) (A) (A) (A) (A) (A)
                 (A) (A) (A) (A) (A) (A) (A) (A) (A) (A) (A)
 The electronic state is 1-A.
 Alpha  occ. eigenvalues --  -19.13806 -10.27095 -10.20054 -10.19756 -10.19658
 Alpha  occ. eigenvalues --  -10.19441 -10.19145 -10.18906 -10.17797 -10.17631
 Alpha  occ. eigenvalues --  -10.17609  -1.03752  -0.89027  -0.79426  -0.76095
 Alpha  occ. eigenvalues --   -0.73688  -0.68568  -0.65473  -0.61508  -0.58155
 Alpha  occ. eigenvalues --   -0.54348  -0.52528  -0.48990  -0.46416  -0.45046
 Alpha  occ. eigenvalues --   -0.44071  -0.43797  -0.41799  -0.41392  -0.40579
 Alpha  occ. eigenvalues --   -0.39473  -0.38650  -0.37342  -0.37008  -0.35443
 Alpha  occ. eigenvalues --   -0.34943  -0.34426  -0.33471  -0.32647  -0.28192
 Alpha  occ. eigenvalues --   -0.26783  -0.23813
 Alpha virt. eigenvalues --   -0.01683   0.07778   0.10123   0.10760   0.11391
 Alpha virt. eigenvalues --    0.12159   0.13235   0.14187   0.14638   0.15111
 Alpha virt. eigenvalues --    0.16148   0.16701   0.17587   0.18509   0.18619
 Alpha virt. eigenvalues --    0.19349   0.20545   0.21580   0.22258   0.22614
 Alpha virt. eigenvalues --    0.23736   0.24542   0.26076   0.26913   0.27811
 Alpha virt. eigenvalues --    0.29609   0.32901   0.36222   0.37268   0.47545
 Alpha virt. eigenvalues --    0.50220   0.50571   0.50906   0.53290   0.54350
 Alpha virt. eigenvalues --    0.56321   0.57120   0.58347   0.59439   0.62588
 Alpha virt. eigenvalues --    0.63153   0.63928   0.65574   0.66492   0.67581
 Alpha virt. eigenvalues --    0.68880   0.71359   0.72020   0.73514   0.74892
 Alpha virt. eigenvalues --    0.77330   0.78889   0.81155   0.82609   0.83596
 Alpha virt. eigenvalues --    0.84447   0.84618   0.85854   0.88020   0.88105
 Alpha virt. eigenvalues --    0.88654   0.89639   0.89727   0.91641   0.92172
 Alpha virt. eigenvalues --    0.93669   0.94271   0.95914   0.96249   0.97570
 Alpha virt. eigenvalues --    0.98245   0.99496   1.00481   1.02414   1.04620
 Alpha virt. eigenvalues --    1.07511   1.10353   1.13435   1.15662   1.19665
 Alpha virt. eigenvalues --    1.25179   1.26423   1.32171   1.37912   1.41397
 Alpha virt. eigenvalues --    1.46216   1.48933   1.52290   1.60243   1.60982
 Alpha virt. eigenvalues --    1.65942   1.67166   1.68364   1.72983   1.73861
 Alpha virt. eigenvalues --    1.76521   1.77476   1.79231   1.80067   1.81062
 Alpha virt. eigenvalues --    1.85319   1.87639   1.88811   1.91346   1.92626
 Alpha virt. eigenvalues --    1.95245   1.95350   2.00429   2.01601   2.02702
 Alpha virt. eigenvalues --    2.03781   2.06329   2.09390   2.10391   2.11185
 Alpha virt. eigenvalues --    2.13447   2.16062   2.19729   2.23441   2.25170
 Alpha virt. eigenvalues --    2.25706   2.28268   2.31203   2.33265   2.35321
 Alpha virt. eigenvalues --    2.40248   2.40622   2.41051   2.43970   2.47368
 Alpha virt. eigenvalues --    2.51865   2.54599   2.57594   2.59116   2.64676
 Alpha virt. eigenvalues --    2.68791   2.72668   2.75353   2.79039   2.81994
 Alpha virt. eigenvalues --    2.85152   2.87225   3.00002   3.07902   4.04587
 Alpha virt. eigenvalues --    4.13051   4.17532   4.26933   4.28821   4.33682
 Alpha virt. eigenvalues --    4.44644   4.51006   4.61874   4.69069   4.69415
          Condensed to atoms (all electrons):
               1          2          3          4          5          6
     1  O    8.019585   0.563581  -0.079283  -0.000639   0.004089  -0.000029
     2  C    0.563581   4.554592   0.316461  -0.030297  -0.036651   0.000020
     3  C   -0.079283   0.316461   5.217301   0.349428   0.327552  -0.027852
     4  C   -0.000639  -0.030297   0.349428   5.083171  -0.044499  -0.009164
     5  C    0.004089  -0.036651   0.327552  -0.044499   5.148182   0.218438
     6  C   -0.000029   0.000020  -0.027852  -0.009164   0.218438   5.259290
     7  C    0.002627  -0.031221  -0.009151   0.002508   0.318064   0.261974
     8  C   -0.000053   0.002099   0.002801  -0.000065  -0.033585  -0.027883
     9  C    0.000000   0.000083  -0.000135   0.000002   0.005472  -0.006182
    10  C    0.000000   0.000097   0.000084  -0.000004  -0.005284   0.005560
    11  C   -0.068353   0.319310  -0.183627   0.007238  -0.038463  -0.041529
    12  H   -0.001103  -0.032712   0.358748  -0.035475  -0.041981   0.005550
    13  H    0.009417  -0.005035  -0.031147   0.364776   0.004952   0.000203
    14  H    0.000492  -0.005015  -0.037189   0.379535  -0.005544   0.005016
    15  H    0.000159   0.004201  -0.028813   0.370005  -0.001742  -0.000132
    16  H   -0.000062   0.002942  -0.026430   0.001022   0.365878  -0.026737
    17  H   -0.000227   0.000434  -0.005167   0.001559  -0.022074   0.367520
    18  H    0.000004  -0.000158   0.001854   0.000288  -0.015193   0.367575
    19  H    0.000001  -0.000075   0.000100  -0.000003  -0.004185  -0.005591
    20  H    0.000001   0.000049   0.000008  -0.000000   0.000003  -0.000163
    21  H    0.000000  -0.000010   0.000002  -0.000000  -0.000033   0.003835
    22  H   -0.000000  -0.000001   0.000002  -0.000000  -0.000153   0.000092
    23  H   -0.000000  -0.000002   0.000002   0.000000   0.000097  -0.000171
    24  H    0.000002  -0.000110   0.000077  -0.000000  -0.000273   0.000018
    25  H    0.000000  -0.000058  -0.000200   0.000007   0.004004  -0.000131
    26  H    0.000877  -0.024421   0.006305  -0.000135   0.005165  -0.009315
    27  H   -0.000262  -0.018853   0.004084  -0.000054  -0.002238   0.005852
               7          8          9         10         11         12
     1  O    0.002627  -0.000053   0.000000   0.000000  -0.068353  -0.001103
     2  C   -0.031221   0.002099   0.000083   0.000097   0.319310  -0.032712
     3  C   -0.009151   0.002801  -0.000135   0.000084  -0.183627   0.358748
     4  C    0.002508  -0.000065   0.000002  -0.000004   0.007238  -0.035475
     5  C    0.318064  -0.033585   0.005472  -0.005284  -0.038463  -0.041981
     6  C    0.261974  -0.027883  -0.006182   0.005560  -0.041529   0.005550
     7  C    4.883404   0.399613  -0.044099  -0.047071   0.341013  -0.002617
     8  C    0.399613   4.879012   0.364425   0.367387  -0.032682  -0.000032
     9  C   -0.044099   0.364425   5.126601  -0.057499  -0.005715  -0.000003
    10  C   -0.047071   0.367387  -0.057499   5.131571  -0.007482   0.000051
    11  C    0.341013  -0.032682  -0.005715  -0.007482   5.372853   0.006564
    12  H   -0.002617  -0.000032  -0.000003   0.000051   0.006564   0.591024
    13  H   -0.000164   0.000003  -0.000000   0.000000   0.000493  -0.000639
    14  H   -0.000326  -0.000004   0.000000  -0.000000   0.000442   0.005314
    15  H    0.000066   0.000001   0.000000   0.000000  -0.000177  -0.004710
    16  H   -0.029590  -0.004605   0.000077   0.000779   0.003703  -0.004957
    17  H   -0.024096   0.001635   0.000284  -0.000121  -0.004638   0.000090
    18  H   -0.018852  -0.006214   0.000578   0.000136   0.002559  -0.000112
    19  H   -0.045138   0.374411  -0.046184  -0.046990   0.005345   0.000008
    20  H   -0.008799  -0.031156   0.373704  -0.005348   0.004109  -0.000000
    21  H   -0.002303  -0.030884   0.370387   0.005380  -0.000412  -0.000000
    22  H    0.004839  -0.027548   0.366593  -0.002799   0.000033  -0.000000
    23  H    0.004675  -0.027109  -0.002857   0.367419   0.000145  -0.000001
    24  H   -0.006753  -0.032169  -0.005311   0.370864   0.001839  -0.000003
    25  H   -0.002689  -0.031142   0.005407   0.369523  -0.000158   0.000100
    26  H   -0.028218   0.000279   0.001410  -0.000016   0.349357  -0.000097
    27  H   -0.034461  -0.007130  -0.000503   0.003483   0.345506  -0.000575
              13         14         15         16         17         18
     1  O    0.009417   0.000492   0.000159  -0.000062  -0.000227   0.000004
     2  C   -0.005035  -0.005015   0.004201   0.002942   0.000434  -0.000158
     3  C   -0.031147  -0.037189  -0.028813  -0.026430  -0.005167   0.001854
     4  C    0.364776   0.379535   0.370005   0.001022   0.001559   0.000288
     5  C    0.004952  -0.005544  -0.001742   0.365878  -0.022074  -0.015193
     6  C    0.000203   0.005016  -0.000132  -0.026737   0.367520   0.367575
     7  C   -0.000164  -0.000326   0.000066  -0.029590  -0.024096  -0.018852
     8  C    0.000003  -0.000004   0.000001  -0.004605   0.001635  -0.006214
     9  C   -0.000000   0.000000   0.000000   0.000077   0.000284   0.000578
    10  C    0.000000  -0.000000   0.000000   0.000779  -0.000121   0.000136
    11  C    0.000493   0.000442  -0.000177   0.003703  -0.004638   0.002559
    12  H   -0.000639   0.005314  -0.004710  -0.004957   0.000090  -0.000112
    13  H    0.546987  -0.027222  -0.029776  -0.000130  -0.000149  -0.000001
    14  H   -0.027222   0.566013  -0.031432  -0.000250   0.002242  -0.000132
    15  H   -0.029776  -0.031432   0.578661   0.001040   0.000018  -0.000026
    16  H   -0.000130  -0.000250   0.001040   0.581176   0.001884  -0.005175
    17  H   -0.000149   0.002242   0.000018   0.001884   0.557188  -0.030076
    18  H   -0.000001  -0.000132  -0.000026  -0.005175  -0.030076   0.546914
    19  H   -0.000000   0.000000  -0.000000   0.002533  -0.000072   0.004349
    20  H   -0.000000  -0.000000   0.000000   0.000002   0.000007   0.000020
    21  H   -0.000000  -0.000000   0.000000   0.000011  -0.000202   0.000629
    22  H    0.000000  -0.000000   0.000000  -0.000000  -0.000001  -0.000071
    23  H    0.000000   0.000000   0.000000  -0.000083   0.000002  -0.000005
    24  H   -0.000000  -0.000000   0.000000   0.000030   0.000002   0.000003
    25  H   -0.000000   0.000000  -0.000000   0.000971   0.000003   0.000007
    26  H   -0.000016   0.000005   0.000002  -0.000108   0.003006   0.000210
    27  H   -0.000009  -0.000009   0.000003   0.000122   0.000059  -0.000121
              19         20         21         22         23         24
     1  O    0.000001   0.000001   0.000000  -0.000000  -0.000000   0.000002
     2  C   -0.000075   0.000049  -0.000010  -0.000001  -0.000002  -0.000110
     3  C    0.000100   0.000008   0.000002   0.000002   0.000002   0.000077
     4  C   -0.000003  -0.000000  -0.000000  -0.000000   0.000000  -0.000000
     5  C   -0.004185   0.000003  -0.000033  -0.000153   0.000097  -0.000273
     6  C   -0.005591  -0.000163   0.003835   0.000092  -0.000171   0.000018
     7  C   -0.045138  -0.008799  -0.002303   0.004839   0.004675  -0.006753
     8  C    0.374411  -0.031156  -0.030884  -0.027548  -0.027109  -0.032169
     9  C   -0.046184   0.373704   0.370387   0.366593  -0.002857  -0.005311
    10  C   -0.046990  -0.005348   0.005380  -0.002799   0.367419   0.370864
    11  C    0.005345   0.004109  -0.000412   0.000033   0.000145   0.001839
    12  H    0.000008  -0.000000  -0.000000  -0.000000  -0.000001  -0.000003
    13  H   -0.000000  -0.000000  -0.000000   0.000000   0.000000  -0.000000
    14  H    0.000000  -0.000000  -0.000000  -0.000000   0.000000  -0.000000
    15  H   -0.000000   0.000000   0.000000   0.000000   0.000000   0.000000
    16  H    0.002533   0.000002   0.000011  -0.000000  -0.000083   0.000030
    17  H   -0.000072   0.000007  -0.000202  -0.000001   0.000002   0.000002
    18  H    0.004349   0.000020   0.000629  -0.000071  -0.000005   0.000003
    19  H    0.646778   0.005682  -0.003489  -0.003935  -0.004119   0.005770
    20  H    0.005682   0.574746  -0.030652  -0.031584  -0.000218   0.004623
    21  H   -0.003489  -0.030652   0.570892  -0.029784  -0.000072  -0.000031
    22  H   -0.003935  -0.031584  -0.029784   0.579306   0.003444  -0.000197
    23  H   -0.004119  -0.000218  -0.000072   0.003444   0.575273  -0.031138
    24  H    0.005770   0.004623  -0.000031  -0.000197  -0.031138   0.577867
    25  H   -0.003265  -0.000023  -0.000177  -0.000073  -0.029586  -0.031675
    26  H   -0.000093   0.000239   0.000153  -0.000021   0.000001  -0.000017
    27  H    0.000062   0.000469   0.000098  -0.000012  -0.000207   0.004818
              25         26         27
     1  O    0.000000   0.000877  -0.000262
     2  C   -0.000058  -0.024421  -0.018853
     3  C   -0.000200   0.006305   0.004084
     4  C    0.000007  -0.000135  -0.000054
     5  C    0.004004   0.005165  -0.002238
     6  C   -0.000131  -0.009315   0.005852
     7  C   -0.002689  -0.028218  -0.034461
     8  C   -0.031142   0.000279  -0.007130
     9  C    0.005407   0.001410  -0.000503
    10  C    0.369523  -0.000016   0.003483
    11  C   -0.000158   0.349357   0.345506
    12  H    0.000100  -0.000097  -0.000575
    13  H   -0.000000  -0.000016  -0.000009
    14  H    0.000000   0.000005  -0.000009
    15  H   -0.000000   0.000002   0.000003
    16  H    0.000971  -0.000108   0.000122
    17  H    0.000003   0.003006   0.000059
    18  H    0.000007   0.000210  -0.000121
    19  H   -0.003265  -0.000093   0.000062
    20  H   -0.000023   0.000239   0.000469
    21  H   -0.000177   0.000153   0.000098
    22  H   -0.000073  -0.000021  -0.000012
    23  H   -0.029586   0.000001  -0.000207
    24  H   -0.031675  -0.000017   0.004818
    25  H    0.575446   0.000018   0.000158
    26  H    0.000018   0.550399  -0.027546
    27  H    0.000158  -0.027546   0.556844
 Mulliken charges:
               1
     1  O   -0.450826
     2  C    0.420751
     3  C   -0.155814
     4  C   -0.439205
     5  C   -0.149997
     6  C   -0.346063
     7  C    0.116766
     8  C   -0.099406
     9  C   -0.446536
    10  C   -0.449719
    11  C   -0.377273
    12  H    0.157565
    13  H    0.167460
    14  H    0.148065
    15  H    0.142652
    16  H    0.135956
    17  H    0.150888
    18  H    0.151010
    19  H    0.118101
    20  H    0.144280
    21  H    0.146665
    22  H    0.141870
    23  H    0.144509
    24  H    0.141765
    25  H    0.143534
    26  H    0.172577
    27  H    0.170425
 Sum of Mulliken charges =  -0.00000
 Mulliken charges with hydrogens summed into heavy atoms:
               1
     1  O   -0.450826
     2  C    0.420751
     3  C    0.001751
     4  C    0.018972
     5  C   -0.014040
     6  C   -0.044165
     7  C    0.116766
     8  C    0.018695
     9  C   -0.013721
    10  C   -0.019912
    11  C   -0.034271
 APT charges:
               1
     1  O   -0.665696
     2  C    0.748162
     3  C   -0.007579
     4  C    0.077626
     5  C    0.011162
     6  C   -0.027818
     7  C    0.030362
     8  C    0.183287
     9  C    0.048431
    10  C    0.039010
    11  C   -0.076297
    12  H   -0.041863
    13  H   -0.003894
    14  H   -0.012294
    15  H   -0.025080
    16  H   -0.026661
    17  H   -0.010637
    18  H   -0.001362
    19  H   -0.077677
    20  H   -0.016398
    21  H   -0.019380
    22  H   -0.039524
    23  H   -0.032824
    24  H   -0.015930
    25  H   -0.021634
    26  H   -0.015727
    27  H    0.000234
 Sum of APT charges =  -0.00000
 APT charges with hydrogens summed into heavy atoms:
               1
     1  O   -0.665696
     2  C    0.748162
     3  C   -0.049441
     4  C    0.036358
     5  C   -0.015499
     6  C   -0.039817
     7  C    0.030362
     8  C    0.105610
     9  C   -0.026870
    10  C   -0.031378
    11  C   -0.091789
 Electronic spatial extent (au):  <R**2>=           1946.7454
 Charge=             -0.0000 electrons
 Dipole moment (field-independent basis, Debye):
    X=             -2.1308    Y=             -1.8758    Z=              0.5488  Tot=              2.8913
 Quadrupole moment (field-independent basis, Debye-Ang):
   XX=            -73.0881   YY=            -71.3054   ZZ=            -66.6214
   XY=             -5.5140   XZ=              1.0551   YZ=              0.4327
 Traceless Quadrupole moment (field-independent basis, Debye-Ang):
   XX=             -2.7498   YY=             -0.9671   ZZ=              3.7169
   XY=             -5.5140   XZ=              1.0551   YZ=              0.4327
 Octapole moment (field-independent basis, Debye-Ang**2):
  XXX=             -8.6600  YYY=             -2.6451  ZZZ=             -1.7522  XYY=            -12.4817
  XXY=            -15.2901  XXZ=              4.1672  XZZ=              6.9999  YZZ=              1.6600
  YYZ=              2.2222  XYZ=              0.6142
 Hexadecapole moment (field-independent basis, Debye-Ang**3):
 XXXX=          -1764.5564 YYYY=           -510.7737 ZZZZ=           -360.7629 XXXY=            -15.0528
 XXXZ=             -0.2612 YYYX=             -8.3365 YYYZ=             -0.0476 ZZZX=              0.9400
 ZZZY=             -2.1124 XXYY=           -406.5043 XXZZ=           -351.1994 YYZZ=           -138.9057
 XXYZ=              3.0267 YYXZ=              6.3878 ZZXY=              6.7795
 N-N= 6.444898994594D+02 E-N=-2.369182762507D+03  KE= 4.613997552916D+02
  Exact polarizability: 116.869  -0.775  94.782   1.009  -0.873  88.878
 Approx polarizability: 147.701   5.037 143.728  -0.288  -2.910 133.057
 Calling FoFJK, ICntrl=    100127 FMM=F ISym2X=0 I1Cent= 0 IOpClX= 0 NMat=1 NMatS=1 NMatT=0.
 Full mass-weighted force constant matrix:
 Low frequencies ---   -5.7045   -3.2364   -0.0006   -0.0003    0.0005    7.5378
 Low frequencies ---   59.9817   78.3448  108.5482
 Diagonal vibrational polarizability:
        5.5166132       6.1728053      17.5869847
 Harmonic frequencies (cm**-1), IR intensities (KM/Mole), Raman scattering
 activities (A**4/AMU), depolarization ratios for plane and unpolarized
 incident light, reduced masses (AMU), force constants (mDyne/A),
 and normal coordinates:
                      1                      2                      3
                      A                      A                      A
 Frequencies --     59.9805                78.3430               108.5456
 Red. masses --      3.0850                 3.3813                 2.8433
 Frc consts  --      0.0065                 0.0122                 0.0197
 IR Inten    --      0.9306                 2.4990                 0.1026
  Atom  AN      X      Y      Z        X      Y      Z        X      Y      Z
     1   8    -0.00   0.05   0.19     0.06  -0.09  -0.20     0.03  -0.03   0.04
     2   6     0.01   0.00   0.06     0.03  -0.01  -0.00     0.00  -0.01  -0.00
     3   6     0.03  -0.04  -0.04     0.02  -0.01   0.01    -0.06  -0.01   0.00
     4   6    -0.00  -0.02  -0.19     0.01  -0.03   0.03     0.00  -0.01   0.19
     5   6     0.01  -0.02  -0.00     0.01   0.02  -0.02    -0.02   0.00  -0.13
     6   6    -0.04  -0.01   0.01     0.01   0.17  -0.03    -0.01   0.07  -0.14
     7   6     0.00   0.00   0.03     0.00   0.06   0.08    -0.01   0.03  -0.09
     8   6     0.01   0.01   0.05    -0.01  -0.02   0.02     0.02  -0.00   0.02
     9   6    -0.01  -0.19  -0.06     0.00  -0.14  -0.06    -0.13  -0.12   0.08
    10   6    -0.02   0.22  -0.03    -0.13   0.02  -0.02     0.15   0.06   0.02
    11   6     0.02  -0.01   0.02    -0.01   0.07   0.23     0.01   0.02  -0.05
    12   1     0.12  -0.12  -0.04    -0.01  -0.01   0.01    -0.20  -0.01   0.01
    13   1     0.02  -0.04  -0.19     0.02  -0.05   0.04    -0.02  -0.02   0.32
    14   1    -0.08   0.06  -0.20     0.02  -0.03   0.03     0.16  -0.01   0.19
    15   1     0.03  -0.06  -0.27    -0.02  -0.04   0.03    -0.08  -0.02   0.22
    16   1     0.01  -0.01   0.00     0.03  -0.05  -0.10    -0.06  -0.03  -0.19
    17   1    -0.05  -0.02  -0.01     0.01   0.25   0.01    -0.01   0.12  -0.12
    18   1    -0.06   0.00   0.02     0.01   0.20  -0.12     0.00   0.08  -0.18
    19   1     0.05  -0.00   0.21     0.07  -0.03   0.05     0.07  -0.01   0.10
    20   1    -0.04  -0.19  -0.25    -0.07  -0.13  -0.11    -0.17  -0.11  -0.02
    21   1    -0.00  -0.36   0.00     0.09  -0.17  -0.03    -0.24  -0.19   0.09
    22   1    -0.00  -0.18  -0.03     0.01  -0.20  -0.11    -0.09  -0.13   0.23
    23   1    -0.00   0.18   0.01    -0.12  -0.10  -0.06     0.21  -0.02   0.17
    24   1    -0.11   0.24  -0.22    -0.27   0.04  -0.07     0.06   0.08  -0.07
    25   1     0.02   0.40   0.04    -0.11   0.13   0.04     0.30   0.18  -0.03
    26   1     0.05  -0.03   0.00    -0.13   0.25   0.35     0.05   0.04  -0.05
    27   1     0.00   0.02  -0.02     0.10  -0.08   0.42     0.00   0.02  -0.06
                      4                      5                      6
                      A                      A                      A
 Frequencies --    178.6376               206.7855               224.9934
 Red. masses --      2.8323                 1.0400                 1.2942
 Frc consts  --      0.0533                 0.0262                 0.0386
 IR Inten    --      0.1174                 0.2524                 0.2043
  Atom  AN      X      Y      Z        X      Y      Z        X      Y      Z
     1   8    -0.10  -0.02  -0.03     0.00  -0.01  -0.03    -0.03  -0.00  -0.02
     2   6    -0.06  -0.05   0.01    -0.00   0.00   0.01    -0.02   0.01   0.02
     3   6     0.01  -0.05  -0.03    -0.00   0.01   0.02    -0.02   0.01   0.04
     4   6     0.12   0.13   0.06    -0.01   0.02  -0.01    -0.05  -0.01  -0.03
     5   6     0.05  -0.12  -0.09     0.00   0.00   0.01    -0.02   0.01   0.04
     6   6    -0.04  -0.02  -0.07     0.00  -0.01   0.01     0.06  -0.02   0.02
     7   6    -0.01  -0.11   0.03     0.00  -0.00  -0.00     0.01  -0.01  -0.03
     8   6    -0.02   0.00   0.04     0.00  -0.00   0.00     0.01  -0.01  -0.04
     9   6     0.10   0.10  -0.01     0.00  -0.00  -0.00     0.01   0.04  -0.01
    10   6     0.00   0.13   0.00     0.00  -0.00   0.00     0.07  -0.01  -0.02
    11   6    -0.06  -0.09   0.08    -0.00  -0.00  -0.01    -0.02   0.00   0.04
    12   1    -0.09  -0.08  -0.02     0.00  -0.02   0.02     0.02   0.00   0.03
    13   1    -0.00   0.25   0.15     0.07  -0.22   0.49    -0.02  -0.03  -0.09
    14   1     0.25   0.18   0.05     0.18   0.55  -0.12    -0.12  -0.02  -0.03
    15   1     0.22   0.15   0.04    -0.29  -0.28  -0.43    -0.04  -0.01  -0.04
    16   1     0.12  -0.18  -0.15     0.00   0.01   0.02    -0.03   0.02   0.05
    17   1    -0.10   0.05  -0.10     0.00  -0.02   0.01     0.10  -0.03   0.05
    18   1    -0.02  -0.03  -0.08     0.01  -0.02   0.02     0.08  -0.02  -0.01
    19   1    -0.14   0.03   0.08    -0.00  -0.00   0.00    -0.01  -0.00  -0.05
    20   1     0.34   0.07  -0.11     0.01  -0.00  -0.00     0.28   0.00  -0.22
    21   1     0.02  -0.03   0.02     0.00  -0.00  -0.00    -0.24  -0.18   0.02
    22   1     0.06   0.35   0.01     0.00   0.00  -0.00    -0.00   0.34   0.18
    23   1    -0.02   0.24   0.01     0.00   0.01  -0.00     0.19  -0.36   0.17
    24   1     0.08   0.13  -0.08     0.02  -0.00   0.00    -0.31   0.04  -0.13
    25   1    -0.04   0.14   0.05    -0.00  -0.01   0.00     0.37   0.27  -0.10
    26   1    -0.12  -0.04   0.12     0.01  -0.01  -0.02    -0.04   0.07   0.08
    27   1    -0.05  -0.15   0.14    -0.01   0.01  -0.02    -0.03  -0.07   0.10
                      7                      8                      9
                      A                      A                      A
 Frequencies --    246.8564               248.9950               257.1889
 Red. masses --      1.8214                 2.3547                 1.2584
 Frc consts  --      0.0654                 0.0860                 0.0490
 IR Inten    --      1.3414                 1.9599                 0.6374
  Atom  AN      X      Y      Z        X      Y      Z        X      Y      Z
     1   8    -0.09   0.08  -0.02    -0.02   0.12   0.04    -0.06   0.05  -0.01
     2   6    -0.03   0.03  -0.01     0.04   0.03  -0.09    -0.02   0.01  -0.01
     3   6    -0.01   0.02   0.00     0.05   0.02  -0.10     0.00  -0.00  -0.01
     4   6    -0.08  -0.13   0.01     0.04  -0.14   0.08    -0.02  -0.06   0.02
     5   6     0.01   0.01   0.01     0.04   0.01  -0.05     0.01  -0.01  -0.00
     6   6     0.06   0.03  -0.01    -0.08   0.01  -0.02     0.01  -0.02  -0.01
     7   6     0.01  -0.02   0.00     0.00   0.00   0.05     0.01  -0.03  -0.00
     8   6     0.02  -0.02   0.00     0.00  -0.01   0.06     0.02  -0.00  -0.00
     9   6     0.06  -0.03  -0.03     0.08   0.01   0.01     0.03   0.03   0.00
    10   6     0.11   0.02   0.00    -0.13  -0.05   0.05     0.04   0.05  -0.01
    11   6    -0.04   0.00   0.05     0.01  -0.00  -0.06    -0.03  -0.02   0.03
    12   1     0.01   0.04  -0.00    -0.00   0.08  -0.10     0.00   0.02  -0.01
    13   1     0.03  -0.25  -0.02     0.12  -0.27   0.20     0.03  -0.11   0.04
    14   1    -0.13  -0.18   0.02     0.17  -0.17   0.08    -0.00  -0.07   0.02
    15   1    -0.21  -0.14   0.04    -0.19  -0.16   0.13    -0.09  -0.07   0.03
    16   1     0.02  -0.01  -0.02     0.10  -0.00  -0.04     0.03  -0.02  -0.00
    17   1     0.07   0.08   0.03    -0.15   0.02  -0.08     0.01  -0.02  -0.00
    18   1     0.09   0.03  -0.06    -0.10   0.01   0.04     0.02  -0.02  -0.00
    19   1    -0.01  -0.02   0.03     0.01  -0.01   0.03    -0.00   0.00   0.01
    20   1     0.16  -0.04  -0.14     0.30  -0.02  -0.17    -0.27   0.07   0.36
    21   1     0.02  -0.14   0.00    -0.04  -0.19   0.06     0.35   0.39  -0.07
    22   1     0.04   0.09  -0.01     0.04   0.26   0.08     0.04  -0.35  -0.27
    23   1     0.00   0.44  -0.08    -0.09  -0.30   0.02     0.12  -0.16   0.12
    24   1     0.55  -0.04   0.08    -0.39  -0.01   0.04    -0.20   0.08  -0.13
    25   1    -0.13  -0.29   0.01    -0.04   0.12   0.08     0.22   0.26  -0.03
    26   1    -0.10   0.06   0.09    -0.02  -0.07  -0.09    -0.07   0.02   0.06
    27   1    -0.03  -0.06   0.11     0.04   0.06  -0.10    -0.02  -0.07   0.07
                     10                     11                     12
                      A                      A                      A
 Frequencies --    299.5599               334.3716               413.1844
 Red. masses --      2.6595                 2.1469                 2.6433
 Frc consts  --      0.1406                 0.1414                 0.2659
 IR Inten    --      1.4660                 0.0950                 2.0659
  Atom  AN      X      Y      Z        X      Y      Z        X      Y      Z
     1   8     0.03  -0.07   0.01    -0.02  -0.05  -0.03     0.09  -0.02   0.03
     2   6    -0.04   0.00   0.01    -0.03  -0.02   0.04    -0.00   0.06  -0.01
     3   6    -0.09   0.00   0.01    -0.02   0.01   0.09    -0.09   0.06  -0.02
     4   6    -0.08   0.07  -0.00    -0.07  -0.01  -0.03    -0.13   0.05   0.01
     5   6    -0.07   0.01  -0.02     0.04  -0.00  -0.02    -0.01   0.01  -0.06
     6   6    -0.13   0.04  -0.01     0.14   0.13  -0.05    -0.00  -0.13  -0.06
     7   6    -0.02   0.05   0.03     0.00  -0.04   0.03     0.05  -0.01  -0.09
     8   6     0.04   0.00   0.07     0.01  -0.04   0.06     0.12  -0.09   0.03
     9   6     0.22  -0.06  -0.10     0.05   0.01   0.07     0.11  -0.01   0.15
    10   6     0.10  -0.06   0.10    -0.08   0.04   0.02    -0.07   0.03  -0.06
    11   6    -0.02   0.05  -0.05    -0.01  -0.04  -0.12    -0.02   0.05   0.03
    12   1    -0.12  -0.02   0.01    -0.00  -0.03   0.09    -0.15   0.06  -0.02
    13   1    -0.12   0.12  -0.04    -0.03  -0.04  -0.13    -0.10   0.02  -0.04
    14   1    -0.10   0.06  -0.00    -0.21  -0.00  -0.03    -0.17   0.01   0.01
    15   1    -0.00   0.08  -0.00    -0.04  -0.02  -0.07    -0.16   0.05   0.02
    16   1    -0.11   0.04  -0.01     0.06  -0.12  -0.15    -0.05   0.09   0.03
    17   1    -0.14   0.01  -0.04     0.14   0.37   0.06     0.01  -0.26  -0.11
    18   1    -0.19   0.08   0.01     0.31   0.08  -0.24    -0.07  -0.12   0.06
    19   1     0.08  -0.01   0.06    -0.01  -0.04   0.07     0.14  -0.09   0.06
    20   1     0.23  -0.06  -0.15     0.09   0.01   0.14     0.19  -0.02   0.26
    21   1     0.47  -0.13  -0.03     0.06   0.07   0.05     0.01   0.09   0.09
    22   1     0.16  -0.04  -0.36     0.04   0.04   0.04     0.11   0.05   0.20
    23   1     0.14  -0.17   0.20    -0.10   0.01  -0.05    -0.14   0.09  -0.29
    24   1     0.02  -0.06   0.15    -0.15   0.05  -0.07    -0.09   0.04  -0.16
    25   1     0.21  -0.05   0.00    -0.12   0.14   0.12    -0.27   0.11   0.17
    26   1     0.04  -0.06  -0.11     0.12  -0.29  -0.26    -0.13   0.25   0.16
    27   1    -0.04   0.14  -0.14    -0.09   0.16  -0.34    -0.03  -0.16   0.21
                     13                     14                     15
                      A                      A                      A
 Frequencies --    461.1728               478.3321               489.6658
 Red. masses --      3.3086                 2.9283                 2.5904
 Frc consts  --      0.4146                 0.3948                 0.3659
 IR Inten    --      3.5865                 2.6543                 0.9986
  Atom  AN      X      Y      Z        X      Y      Z        X      Y      Z
     1   8    -0.12   0.09  -0.15     0.12   0.02  -0.00    -0.10   0.00   0.01
     2   6     0.01   0.04   0.24     0.06   0.08   0.04    -0.04  -0.06  -0.05
     3   6     0.04  -0.06   0.16     0.01   0.11   0.07    -0.03  -0.08  -0.03
     4   6     0.01  -0.04   0.00    -0.10   0.03   0.00     0.02  -0.00  -0.00
     5   6     0.02  -0.02  -0.07     0.11   0.00  -0.09    -0.07  -0.01   0.01
     6   6    -0.12  -0.05  -0.06     0.04  -0.10  -0.07     0.15  -0.06  -0.02
     7   6     0.06   0.04  -0.05    -0.03  -0.11  -0.04     0.05   0.05  -0.12
     8   6     0.09   0.06  -0.02    -0.11   0.08   0.04     0.07   0.17   0.05
     9   6     0.00  -0.01   0.03    -0.07   0.02  -0.10     0.01  -0.01  -0.01
    10   6    -0.02  -0.01  -0.02    -0.03   0.01   0.14    -0.07   0.01   0.14
    11   6     0.10  -0.00   0.02     0.01  -0.08   0.02     0.02   0.01  -0.02
    12   1    -0.03  -0.33   0.19    -0.06   0.05   0.08    -0.01  -0.04  -0.04
    13   1     0.04  -0.04  -0.13     0.02  -0.08  -0.13    -0.06   0.08   0.06
    14   1    -0.17  -0.03   0.00    -0.28  -0.01   0.01     0.11   0.04  -0.01
    15   1     0.10  -0.04  -0.04    -0.16   0.01  -0.01     0.09   0.01  -0.02
    16   1    -0.06   0.01  -0.07     0.26  -0.11  -0.17    -0.23   0.09   0.07
    17   1    -0.22  -0.21  -0.22    -0.14  -0.02  -0.20     0.34  -0.10   0.13
    18   1    -0.27  -0.03   0.15     0.17  -0.25   0.09     0.18  -0.03  -0.16
    19   1     0.13   0.05  -0.02    -0.21   0.10   0.07     0.07   0.17   0.08
    20   1    -0.07  -0.00  -0.02    -0.14   0.03  -0.22    -0.14   0.00  -0.20
    21   1    -0.06  -0.03   0.02     0.09  -0.09  -0.03     0.10  -0.16   0.06
    22   1     0.04  -0.07   0.13    -0.09  -0.04  -0.23     0.04  -0.13  -0.02
    23   1    -0.04  -0.07  -0.16     0.01  -0.07   0.21    -0.09  -0.16  -0.08
    24   1    -0.07  -0.01   0.06    -0.05   0.00   0.29    -0.19   0.01   0.41
    25   1    -0.09  -0.04   0.02     0.05  -0.08   0.01    -0.16  -0.11   0.14
    26   1     0.42  -0.08  -0.06    -0.07   0.02   0.09    -0.02   0.21   0.09
    27   1    -0.13   0.08  -0.18    -0.05  -0.21   0.10     0.07  -0.14   0.14
                     16                     17                     18
                      A                      A                      A
 Frequencies --    565.1576               582.7351               622.0118
 Red. masses --      3.5901                 2.9039                 3.0389
 Frc consts  --      0.6756                 0.5810                 0.6927
 IR Inten    --      1.3905                 2.3560                 0.5740
  Atom  AN      X      Y      Z        X      Y      Z        X      Y      Z
     1   8    -0.03   0.13   0.01     0.00  -0.10   0.02    -0.10  -0.12   0.07
     2   6     0.11  -0.08  -0.18    -0.12   0.04   0.01    -0.06  -0.15  -0.09
     3   6    -0.09  -0.02   0.06    -0.03   0.05  -0.10     0.09   0.09   0.13
     4   6    -0.17   0.09   0.02    -0.05   0.01   0.01     0.03   0.00   0.00
     5   6    -0.03  -0.13   0.03     0.13  -0.12  -0.03     0.11   0.16   0.01
     6   6    -0.05   0.07   0.00     0.01  -0.01   0.05    -0.08   0.07  -0.01
     7   6     0.06  -0.03   0.12     0.12  -0.01   0.14    -0.01   0.03  -0.06
     8   6     0.06   0.05  -0.03     0.13   0.15  -0.05     0.06   0.05  -0.01
     9   6    -0.02  -0.00   0.00    -0.03   0.02  -0.02     0.02  -0.00   0.02
    10   6     0.02  -0.02  -0.05     0.02  -0.00  -0.04     0.01  -0.01  -0.03
    11   6     0.19  -0.13   0.01    -0.10   0.05   0.03    -0.02  -0.07  -0.07
    12   1    -0.16   0.14   0.04    -0.07   0.07  -0.10     0.12   0.19   0.11
    13   1    -0.21   0.16  -0.02     0.01  -0.08   0.03     0.16  -0.12  -0.12
    14   1    -0.28   0.22  -0.00    -0.00  -0.09   0.02    -0.20   0.03  -0.00
    15   1    -0.01   0.05  -0.11    -0.22   0.02   0.10    -0.03  -0.05  -0.07
    16   1     0.02  -0.20  -0.04     0.28  -0.18  -0.02     0.11   0.09  -0.10
    17   1    -0.04   0.13   0.04    -0.04  -0.07  -0.03    -0.36   0.06  -0.27
    18   1    -0.14   0.17  -0.11    -0.15   0.09   0.10    -0.02  -0.09   0.32
    19   1     0.06   0.05  -0.06     0.09   0.15  -0.07     0.08   0.05  -0.01
    20   1    -0.12   0.01  -0.04    -0.28   0.05  -0.16    -0.04   0.00  -0.02
    21   1    -0.11  -0.02  -0.01    -0.18  -0.07  -0.02    -0.02  -0.03   0.01
    22   1     0.03  -0.09   0.14     0.06  -0.19   0.22     0.05  -0.06   0.09
    23   1     0.02  -0.06  -0.08     0.01  -0.14  -0.18    -0.00  -0.06  -0.13
    24   1    -0.01  -0.02  -0.00    -0.08  -0.01   0.17    -0.04  -0.01   0.05
    25   1     0.01  -0.03  -0.06    -0.02  -0.09  -0.06    -0.04  -0.04  -0.01
    26   1    -0.09  -0.09   0.07    -0.08  -0.23  -0.13    -0.19   0.22   0.11
    27   1     0.50  -0.12   0.17    -0.26   0.19  -0.18     0.18  -0.28   0.24
                     19                     20                     21
                      A                      A                      A
 Frequencies --    718.5456               756.2765               833.7493
 Red. masses --      2.7725                 3.1738                 1.7946
 Frc consts  --      0.8434                 1.0695                 0.7350
 IR Inten    --      4.1238                 6.3667                 4.2838
  Atom  AN      X      Y      Z        X      Y      Z        X      Y      Z
     1   8    -0.12  -0.06   0.01     0.01   0.03   0.02    -0.02  -0.04   0.01
     2   6    -0.03  -0.12   0.01    -0.02   0.04  -0.13    -0.04  -0.00   0.01
     3   6    -0.02   0.03  -0.10     0.00  -0.12   0.19     0.05   0.12   0.02
     4   6    -0.09   0.05   0.01     0.04  -0.04   0.02     0.04   0.04  -0.00
     5   6     0.10   0.02  -0.08     0.10  -0.16  -0.06    -0.01  -0.10   0.05
     6   6     0.09  -0.05   0.05     0.04  -0.03   0.04    -0.06   0.01  -0.06
     7   6     0.01   0.08   0.02     0.04   0.07   0.02     0.07  -0.01  -0.05
     8   6    -0.08  -0.08   0.02    -0.04  -0.05   0.01     0.01  -0.06  -0.01
     9   6    -0.04   0.00  -0.02    -0.04   0.01  -0.03    -0.05   0.01  -0.05
    10   6    -0.02  -0.01   0.04    -0.02   0.00   0.04    -0.01   0.01   0.08
    11   6     0.18   0.10   0.05    -0.09   0.22  -0.10     0.04  -0.01  -0.01
    12   1    -0.10   0.06  -0.10    -0.15  -0.12   0.19     0.05   0.21   0.01
    13   1    -0.08   0.02   0.04     0.06  -0.01  -0.15     0.28  -0.22  -0.12
    14   1    -0.02  -0.02   0.02    -0.26   0.14  -0.02    -0.13  -0.07   0.02
    15   1    -0.19   0.07   0.08     0.27  -0.13  -0.22    -0.22  -0.01   0.02
    16   1     0.24  -0.01  -0.07    -0.01  -0.18  -0.13    -0.14   0.10   0.27
    17   1     0.02  -0.22  -0.10     0.00  -0.21  -0.08     0.20  -0.07   0.13
    18   1     0.03  -0.09   0.26    -0.15   0.07   0.13    -0.35   0.34  -0.40
    19   1     0.01  -0.09  -0.01     0.01  -0.06  -0.01     0.04  -0.07  -0.00
    20   1     0.12  -0.02   0.07     0.07  -0.00   0.03     0.04   0.00   0.03
    21   1     0.03   0.07  -0.04    -0.01   0.06  -0.05    -0.07   0.10  -0.09
    22   1    -0.09   0.13  -0.15    -0.07   0.10  -0.10    -0.07   0.09  -0.08
    23   1    -0.00   0.11   0.20    -0.01   0.09   0.15    -0.03   0.07   0.08
    24   1     0.08  -0.00  -0.13     0.05   0.00  -0.08    -0.00   0.02  -0.01
    25   1     0.05   0.06   0.02     0.03   0.05   0.03    -0.04   0.08   0.15
    26   1     0.47   0.07   0.01    -0.34   0.31  -0.02     0.08   0.03   0.01
    27   1     0.29   0.29  -0.05     0.12   0.13   0.11     0.01  -0.05   0.01
                     22                     23                     24
                      A                      A                      A
 Frequencies --    880.5987               887.3533               931.7011
 Red. masses --      2.3499                 2.3189                 1.4794
 Frc consts  --      1.0736                 1.0758                 0.7566
 IR Inten    --      2.3098                 1.1095                 1.0850
  Atom  AN      X      Y      Z        X      Y      Z        X      Y      Z
     1   8     0.01   0.01  -0.00     0.01   0.01  -0.02     0.01   0.02   0.00
     2   6     0.02  -0.01  -0.01    -0.01   0.05   0.08     0.04  -0.03  -0.04
     3   6    -0.01  -0.07  -0.01    -0.02  -0.05  -0.06     0.01  -0.01  -0.01
     4   6    -0.05  -0.02   0.01    -0.07   0.02  -0.02    -0.01  -0.00   0.02
     5   6    -0.00   0.14   0.00     0.11  -0.09   0.03     0.01  -0.03   0.02
     6   6     0.03   0.03  -0.04    -0.04   0.11   0.16     0.02   0.06   0.03
     7   6     0.10   0.00   0.06    -0.01   0.02  -0.12    -0.03   0.02  -0.10
     8   6     0.10  -0.10  -0.03     0.02  -0.02  -0.00    -0.02   0.01  -0.03
     9   6    -0.07   0.04  -0.14    -0.02  -0.01  -0.02     0.00  -0.06   0.00
    10   6     0.00   0.01   0.14     0.00   0.01   0.03    -0.00   0.06  -0.00
    11   6    -0.06  -0.07   0.02     0.02  -0.05  -0.13    -0.05  -0.03   0.08
    12   1     0.01  -0.11  -0.01     0.16  -0.31  -0.03    -0.03   0.21  -0.03
    13   1    -0.23   0.18   0.10    -0.17   0.08   0.18    -0.02   0.03  -0.04
    14   1     0.09   0.06  -0.01     0.25  -0.12   0.00    -0.10   0.08   0.00
    15   1     0.16   0.01  -0.01    -0.16   0.12   0.19     0.09  -0.04  -0.08
    16   1    -0.09   0.19   0.03     0.17  -0.12   0.01     0.09  -0.13  -0.07
    17   1    -0.05  -0.15  -0.20    -0.11   0.18   0.13     0.06  -0.23  -0.08
    18   1    -0.12   0.04   0.23    -0.01   0.11   0.11    -0.17   0.14   0.19
    19   1     0.18  -0.11  -0.07     0.10  -0.04   0.04     0.07  -0.01   0.29
    20   1    -0.06   0.04   0.03     0.09  -0.02   0.07     0.24  -0.08   0.28
    21   1    -0.29   0.22  -0.25    -0.02   0.08  -0.06    -0.05   0.19  -0.10
    22   1    -0.04   0.08   0.03    -0.05   0.09  -0.07    -0.04   0.16  -0.03
    23   1    -0.04   0.11   0.06    -0.01   0.01  -0.03     0.03  -0.16  -0.07
    24   1    -0.02   0.03  -0.06    -0.03   0.01   0.03    -0.07   0.04   0.39
    25   1    -0.10   0.19   0.35    -0.04   0.02   0.08     0.00  -0.20  -0.18
    26   1    -0.17  -0.23  -0.04    -0.05   0.36   0.10     0.13  -0.20  -0.04
    27   1    -0.13  -0.04  -0.05    -0.01  -0.42   0.18    -0.21   0.09  -0.13
                     25                     26                     27
                      A                      A                      A
 Frequencies --    942.5796               955.9803               969.9368
 Red. masses --      1.4280                 1.5868                 1.6219
 Frc consts  --      0.7475                 0.8544                 0.8990
 IR Inten    --      2.1319                 1.3212                 0.8271
  Atom  AN      X      Y      Z        X      Y      Z        X      Y      Z
     1   8    -0.01  -0.01  -0.00    -0.00   0.01   0.00    -0.00   0.01  -0.00
     2   6    -0.03   0.02   0.02     0.01  -0.01  -0.03     0.04  -0.04   0.01
     3   6    -0.01   0.01   0.01    -0.01   0.00  -0.01     0.03  -0.03  -0.03
     4   6     0.01  -0.00  -0.02     0.02  -0.01   0.01    -0.02   0.01   0.05
     5   6    -0.02   0.03  -0.01    -0.02  -0.04   0.04     0.10   0.03  -0.12
     6   6    -0.02  -0.06  -0.03    -0.07  -0.03   0.03    -0.03  -0.04   0.08
     7   6     0.02  -0.03   0.09    -0.07  -0.05  -0.05    -0.02   0.05   0.02
     8   6     0.00  -0.00  -0.04     0.09  -0.04  -0.00     0.01   0.01   0.04
     9   6     0.03  -0.06  -0.05    -0.03   0.02  -0.07    -0.03   0.00  -0.01
    10   6    -0.05   0.06   0.00     0.06   0.00   0.04     0.01  -0.00  -0.04
    11   6     0.04   0.04  -0.05     0.02   0.09   0.04    -0.05  -0.05   0.01
    12   1     0.03  -0.13   0.02    -0.03   0.24  -0.03    -0.35  -0.11  -0.01
    13   1     0.02  -0.02   0.03     0.03  -0.01  -0.05     0.02   0.00  -0.12
    14   1     0.08  -0.06  -0.00    -0.09   0.06  -0.00    -0.27   0.13   0.03
    15   1    -0.05   0.02   0.05     0.08  -0.05  -0.07     0.07  -0.07  -0.13
    16   1    -0.04   0.05   0.02     0.05  -0.16  -0.09    -0.12   0.48   0.37
    17   1    -0.07   0.19   0.03    -0.24   0.40   0.08     0.07   0.23   0.31
    18   1     0.14  -0.12  -0.14     0.38  -0.31  -0.08     0.07   0.03  -0.30
    19   1     0.07  -0.02   0.22     0.07  -0.03   0.04     0.07  -0.00   0.10
    20   1     0.11  -0.06   0.32    -0.04   0.03   0.00     0.04  -0.00   0.02
    21   1    -0.29   0.27  -0.23    -0.13   0.10  -0.12     0.01   0.04  -0.02
    22   1     0.08   0.05   0.24    -0.01   0.02   0.02    -0.05   0.07  -0.07
    23   1     0.04  -0.08   0.21    -0.01  -0.07  -0.27     0.02  -0.05  -0.06
    24   1     0.04   0.02   0.34    -0.12   0.03   0.03    -0.01  -0.01   0.03
    25   1     0.12  -0.21  -0.31    -0.15   0.08   0.28     0.01  -0.04  -0.05
    26   1    -0.08   0.14   0.02     0.26   0.08   0.01     0.00  -0.03   0.01
    27   1     0.16  -0.03   0.09    -0.06   0.15  -0.06    -0.09  -0.05  -0.02
                     28                     29                     30
                      A                      A                      A
 Frequencies --    977.3828               991.2399              1035.5545
 Red. masses --      1.6035                 2.1781                 1.7903
 Frc consts  --      0.9025                 1.2609                 1.1312
 IR Inten    --      0.7763                 3.7108                21.1309
  Atom  AN      X      Y      Z        X      Y      Z        X      Y      Z
     1   8     0.01   0.01   0.00     0.01  -0.00  -0.00     0.00  -0.03  -0.00
     2   6     0.03  -0.02  -0.01    -0.03   0.04   0.03    -0.10   0.09   0.02
     3   6     0.01  -0.01  -0.02    -0.10   0.08  -0.00    -0.10   0.02  -0.05
     4   6    -0.00   0.00   0.02     0.13   0.01  -0.02     0.06  -0.11   0.03
     5   6     0.03  -0.02  -0.01    -0.11  -0.01  -0.12     0.02   0.03   0.05
     6   6    -0.02   0.02   0.05     0.04   0.02   0.11     0.03   0.01   0.00
     7   6    -0.04   0.01  -0.07    -0.07   0.07   0.04     0.07  -0.04  -0.00
     8   6    -0.01   0.00  -0.10     0.04  -0.00  -0.01    -0.02   0.01   0.01
     9   6     0.12  -0.01   0.01    -0.00  -0.01  -0.03    -0.02  -0.00   0.02
    10   6    -0.09   0.01   0.08     0.02  -0.01   0.03    -0.02  -0.01  -0.02
    11   6    -0.02  -0.01   0.02     0.04  -0.11  -0.02     0.09  -0.03  -0.02
    12   1    -0.09   0.11  -0.03    -0.39  -0.07   0.02    -0.32   0.31  -0.07
    13   1     0.01   0.00  -0.05     0.37  -0.24  -0.19    -0.13   0.14  -0.09
    14   1    -0.12   0.07   0.01    -0.09  -0.09  -0.00    -0.08   0.20  -0.04
    15   1     0.05  -0.04  -0.07    -0.08  -0.07  -0.06     0.50  -0.17  -0.25
    16   1     0.01   0.01   0.02    -0.01  -0.19  -0.32     0.09   0.04   0.10
    17   1    -0.01   0.05   0.07     0.17  -0.19   0.13    -0.21   0.17  -0.14
    18   1     0.04  -0.00   0.01     0.08  -0.06   0.27    -0.13   0.12   0.02
    19   1    -0.08   0.02  -0.36     0.21  -0.03  -0.05     0.01   0.00   0.01
    20   1    -0.20   0.03  -0.02     0.04  -0.01   0.06     0.05  -0.01  -0.01
    21   1    -0.20  -0.04  -0.04    -0.07   0.08  -0.07     0.08  -0.03   0.05
    22   1     0.26  -0.28   0.41     0.00   0.04   0.03    -0.06   0.05  -0.10
    23   1    -0.03   0.22   0.46    -0.01   0.02  -0.06    -0.00   0.04   0.10
    24   1     0.14  -0.01  -0.11    -0.02   0.00  -0.06     0.04  -0.01  -0.03
    25   1     0.12   0.08  -0.05    -0.04   0.07   0.13     0.05  -0.02  -0.08
    26   1     0.13  -0.00   0.01    -0.15  -0.09   0.02     0.16   0.13   0.06
    27   1    -0.14  -0.00  -0.05     0.17  -0.11   0.06    -0.10  -0.20   0.03
                     31                     32                     33
                      A                      A                      A
 Frequencies --   1060.8394              1077.5042              1090.3677
 Red. masses --      1.2851                 1.4046                 1.4471
 Frc consts  --      0.8521                 0.9608                 1.0137
 IR Inten    --      1.8356                 2.0710                20.5829
  Atom  AN      X      Y      Z        X      Y      Z        X      Y      Z
     1   8    -0.01  -0.00  -0.00    -0.01  -0.01  -0.00    -0.01   0.00  -0.00
     2   6     0.03  -0.02   0.04    -0.02   0.01   0.01     0.05  -0.04   0.03
     3   6    -0.01   0.02  -0.01     0.01  -0.00  -0.02     0.05   0.01  -0.02
     4   6     0.00  -0.03   0.01    -0.01  -0.02   0.02    -0.02   0.00   0.03
     5   6    -0.00   0.07   0.01     0.03  -0.01   0.02    -0.05   0.04   0.03
     6   6    -0.00  -0.02  -0.00    -0.13   0.09  -0.07    -0.01  -0.09  -0.01
     7   6    -0.06  -0.04   0.01     0.04  -0.01   0.02     0.01   0.06   0.01
     8   6    -0.02  -0.04  -0.02    -0.00  -0.00   0.02     0.05   0.07   0.00
     9   6     0.04   0.02  -0.01    -0.01   0.00  -0.00    -0.04  -0.03   0.01
    10   6     0.05   0.02   0.02    -0.01  -0.00  -0.01    -0.04  -0.04  -0.00
    11   6    -0.01   0.03  -0.04     0.02   0.01  -0.02    -0.04  -0.00  -0.02
    12   1    -0.15  -0.15   0.02    -0.01   0.08  -0.03     0.07   0.08  -0.02
    13   1    -0.07   0.07  -0.02    -0.07   0.06  -0.03    -0.05   0.04  -0.01
    14   1    -0.02   0.07  -0.01    -0.05   0.08   0.00    -0.08   0.07   0.01
    15   1     0.15  -0.04  -0.06     0.13  -0.04  -0.07     0.05  -0.01  -0.03
    16   1     0.55  -0.11   0.02     0.11  -0.02   0.03     0.43  -0.35  -0.25
    17   1     0.22  -0.15   0.13     0.53  -0.43   0.28     0.03   0.10   0.12
    18   1    -0.27   0.25  -0.20     0.42  -0.37   0.12    -0.05   0.04  -0.28
    19   1    -0.25   0.00   0.04     0.02  -0.00   0.02     0.41   0.00  -0.08
    20   1    -0.12   0.03  -0.04    -0.00   0.00   0.00     0.16  -0.04   0.07
    21   1    -0.10  -0.03  -0.03    -0.00   0.00  -0.00     0.09   0.06   0.00
    22   1     0.10  -0.13   0.14    -0.01   0.02  -0.01    -0.10   0.15  -0.14
    23   1     0.01  -0.11  -0.22     0.00   0.01   0.04    -0.02   0.15   0.20
    24   1    -0.12   0.03   0.11     0.02  -0.01  -0.02     0.12  -0.04  -0.18
    25   1    -0.10  -0.01   0.12     0.02  -0.01  -0.04     0.09   0.06  -0.05
    26   1    -0.05   0.09  -0.00    -0.02   0.03   0.00    -0.09   0.03  -0.00
    27   1     0.20   0.06   0.06    -0.06  -0.09   0.02    -0.17  -0.12   0.01
                     34                     35                     36
                      A                      A                      A
 Frequencies --   1110.9273              1140.8328              1152.3435
 Red. masses --      2.0707                 1.7820                 2.0639
 Frc consts  --      1.5057                 1.3665                 1.6147
 IR Inten    --      7.1195                 1.2217                 2.0552
  Atom  AN      X      Y      Z        X      Y      Z        X      Y      Z
     1   8     0.01  -0.02   0.02     0.00  -0.00  -0.00    -0.00  -0.02  -0.00
     2   6    -0.09   0.07  -0.08    -0.00   0.00   0.01    -0.04   0.04   0.05
     3   6    -0.03   0.09   0.12     0.05   0.04   0.02     0.15   0.02  -0.04
     4   6    -0.02  -0.09  -0.07    -0.03  -0.03  -0.00    -0.07  -0.02   0.06
     5   6     0.07  -0.01  -0.07    -0.02  -0.02  -0.06    -0.04  -0.03  -0.08
     6   6    -0.04  -0.04   0.02     0.03  -0.01   0.03     0.02  -0.02   0.03
     7   6    -0.07   0.04  -0.05    -0.04   0.02   0.00    -0.02   0.03   0.10
     8   6     0.02   0.04  -0.04     0.02  -0.03   0.18    -0.06   0.01  -0.13
     9   6     0.00  -0.03   0.01     0.03   0.06  -0.09     0.01  -0.05   0.04
    10   6    -0.00  -0.01   0.02    -0.02  -0.04  -0.07     0.06   0.03   0.05
    11   6     0.03  -0.06   0.09    -0.01  -0.02  -0.02     0.01  -0.03  -0.05
    12   1     0.19  -0.06   0.13     0.23   0.33  -0.02     0.35   0.30  -0.09
    13   1    -0.30   0.18   0.20    -0.15   0.10   0.06    -0.18   0.14  -0.01
    14   1     0.44  -0.04  -0.09     0.10   0.06  -0.02    -0.15   0.20   0.02
    15   1     0.24   0.05   0.09     0.12   0.01   0.01     0.17  -0.05  -0.07
    16   1     0.10   0.09   0.07    -0.23  -0.09  -0.24    -0.39  -0.02  -0.23
    17   1     0.13  -0.00   0.19     0.10  -0.11   0.05     0.03  -0.03   0.04
    18   1     0.00   0.02  -0.24    -0.14   0.13  -0.02    -0.03   0.02   0.00
    19   1     0.19   0.01  -0.11    -0.01  -0.02   0.36    -0.13   0.02  -0.25
    20   1     0.10  -0.04   0.07    -0.26   0.10  -0.08     0.13  -0.06   0.10
    21   1     0.03   0.04  -0.01    -0.26   0.06  -0.14     0.08  -0.01   0.04
    22   1    -0.02   0.06  -0.03     0.12  -0.11   0.21    -0.01   0.02  -0.01
    23   1    -0.02   0.05   0.02     0.01  -0.00   0.05     0.00  -0.06  -0.23
    24   1     0.01  -0.00  -0.06     0.09  -0.05  -0.15    -0.16   0.05   0.12
    25   1    -0.00   0.05   0.06     0.08  -0.04  -0.16    -0.14   0.04   0.23
    26   1     0.02  -0.25  -0.02     0.19   0.15   0.05     0.03   0.14   0.04
    27   1     0.26   0.25  -0.05    -0.08  -0.10   0.00     0.04  -0.11   0.05
                     37                     38                     39
                      A                      A                      A
 Frequencies --   1172.5468              1189.7636              1206.2719
 Red. masses --      2.7305                 1.7365                 1.6166
 Frc consts  --      2.2118                 1.4483                 1.3859
 IR Inten    --     38.9898                 0.7532                 9.1900
  Atom  AN      X      Y      Z        X      Y      Z        X      Y      Z
     1   8    -0.02   0.03  -0.02    -0.00   0.00  -0.01    -0.01  -0.01  -0.01
     2   6     0.18  -0.16   0.10     0.03  -0.01   0.09     0.01   0.00   0.08
     3   6    -0.13   0.13   0.06    -0.00   0.02  -0.06     0.02   0.04  -0.04
     4   6     0.03  -0.06  -0.11    -0.00  -0.02   0.03    -0.01  -0.02   0.03
     5   6     0.01  -0.07  -0.06     0.01  -0.08   0.05    -0.02  -0.03  -0.00
     6   6     0.01   0.01  -0.01     0.05   0.03  -0.07    -0.00   0.00   0.02
     7   6     0.03   0.02   0.08    -0.08   0.01  -0.02    -0.02   0.01  -0.06
     8   6    -0.00  -0.01  -0.06    -0.02   0.11   0.04     0.09  -0.11  -0.01
     9   6    -0.01  -0.00   0.03     0.02  -0.05  -0.04    -0.03   0.08   0.03
    10   6     0.01   0.03   0.01     0.02  -0.07   0.00    -0.05   0.07  -0.01
    11   6    -0.08   0.04  -0.07    -0.04  -0.01  -0.03    -0.01   0.00  -0.00
    12   1    -0.15   0.53   0.02     0.06   0.08  -0.06     0.11   0.09  -0.05
    13   1    -0.14   0.08   0.14    -0.03   0.04  -0.05    -0.07   0.06  -0.03
    14   1     0.43  -0.11  -0.10    -0.10   0.08   0.01    -0.07   0.10   0.00
    15   1     0.09   0.07   0.11     0.08  -0.05  -0.06     0.10  -0.04  -0.05
    16   1    -0.05   0.14   0.20     0.03   0.15   0.38    -0.06  -0.02  -0.00
    17   1    -0.03   0.01  -0.05    -0.11  -0.06  -0.26    -0.07   0.05  -0.02
    18   1     0.05  -0.05   0.06     0.06  -0.06   0.12     0.06  -0.05   0.03
    19   1    -0.03  -0.01  -0.11     0.09   0.09   0.07     0.16  -0.13  -0.01
    20   1     0.05  -0.02  -0.02     0.08  -0.05   0.21    -0.12   0.08  -0.27
    21   1     0.09  -0.04   0.06    -0.13   0.15  -0.14     0.12  -0.16   0.14
    22   1    -0.04   0.01  -0.07     0.04   0.07   0.13    -0.04  -0.07  -0.16
    23   1     0.01  -0.03  -0.02    -0.03   0.08  -0.07     0.03  -0.10   0.17
    24   1    -0.04   0.02   0.11     0.03  -0.05  -0.29     0.07   0.03   0.26
    25   1    -0.03  -0.01   0.03    -0.00   0.12   0.13     0.06  -0.14  -0.23
    26   1    -0.03   0.19   0.01    -0.27  -0.07  -0.03    -0.40  -0.21  -0.07
    27   1    -0.25  -0.17   0.03     0.44   0.21   0.06     0.43   0.23   0.05
                     40                     41                     42
                      A                      A                      A
 Frequencies --   1251.1996              1279.2032              1297.4313
 Red. masses --      1.5206                 1.9145                 1.7950
 Frc consts  --      1.4026                 1.8458                 1.7803
 IR Inten    --      0.0627                20.1454                 2.7672
  Atom  AN      X      Y      Z        X      Y      Z        X      Y      Z
     1   8     0.03   0.01   0.00    -0.00  -0.01   0.00     0.02   0.01  -0.01
     2   6    -0.02   0.02  -0.04    -0.03   0.03  -0.02    -0.02   0.05   0.05
     3   6     0.01   0.00   0.00    -0.03  -0.05   0.02    -0.05  -0.18   0.02
     4   6    -0.00   0.01   0.01     0.01   0.01   0.01     0.01   0.05  -0.05
     5   6    -0.02  -0.04   0.02    -0.00  -0.05   0.01     0.10   0.07   0.04
     6   6     0.04   0.02  -0.06     0.02  -0.03  -0.06    -0.02  -0.04  -0.02
     7   6    -0.10   0.00   0.08    -0.04   0.19   0.02    -0.00   0.04   0.00
     8   6     0.06  -0.02  -0.02    -0.10  -0.07   0.02    -0.02  -0.00  -0.00
     9   6    -0.02   0.03   0.01     0.05   0.04  -0.01     0.00  -0.00   0.00
    10   6    -0.02   0.03   0.00     0.05   0.03  -0.01     0.01   0.01   0.00
    11   6    -0.09  -0.06  -0.03     0.09  -0.03   0.01    -0.06  -0.06  -0.01
    12   1     0.06  -0.18   0.02     0.23   0.13  -0.01    -0.16   0.72  -0.08
    13   1     0.03  -0.02  -0.02     0.05  -0.04   0.00     0.09  -0.09   0.09
    14   1    -0.04   0.01   0.01    -0.04  -0.03   0.02     0.04  -0.18   0.00
    15   1     0.00  -0.01  -0.02    -0.02  -0.01  -0.01    -0.20   0.05   0.05
    16   1     0.13   0.08   0.25     0.36   0.04   0.31    -0.02  -0.05  -0.18
    17   1     0.01  -0.13  -0.16    -0.12   0.01  -0.18     0.08  -0.03   0.07
    18   1     0.00  -0.01   0.07     0.13  -0.10  -0.11    -0.05   0.03  -0.15
    19   1     0.34  -0.07  -0.08     0.26  -0.13  -0.04     0.04  -0.01  -0.08
    20   1    -0.00   0.03  -0.10    -0.16   0.06  -0.05     0.01  -0.00   0.01
    21   1     0.08  -0.05   0.06    -0.09  -0.09   0.01    -0.00  -0.01   0.00
    22   1    -0.02  -0.04  -0.05     0.10  -0.11   0.11     0.01  -0.01   0.01
    23   1     0.01  -0.03   0.05     0.03  -0.08  -0.14     0.01  -0.04  -0.04
    24   1     0.03   0.01   0.10    -0.11   0.04   0.12    -0.02   0.01   0.01
    25   1     0.02  -0.04  -0.07    -0.08  -0.07   0.03    -0.02  -0.03  -0.00
    26   1     0.66   0.36   0.11    -0.26  -0.14  -0.01     0.11   0.04   0.02
    27   1     0.13   0.01   0.04    -0.37  -0.24  -0.06     0.39   0.14   0.06
                     43                     44                     45
                      A                      A                      A
 Frequencies --   1338.7155              1347.5249              1363.4019
 Red. masses --      2.0706                 1.7644                 1.3672
 Frc consts  --      2.1864                 1.8876                 1.4974
 IR Inten    --      2.8271                 3.7227                 2.0502
  Atom  AN      X      Y      Z        X      Y      Z        X      Y      Z
     1   8    -0.00   0.00  -0.00     0.01   0.01  -0.00     0.00   0.00  -0.00
     2   6    -0.01   0.01   0.00     0.03  -0.02  -0.00     0.00  -0.00   0.00
     3   6    -0.07  -0.10   0.03    -0.18   0.04  -0.03    -0.02  -0.00  -0.00
     4   6     0.02   0.03   0.02     0.05  -0.00   0.06     0.01   0.00   0.01
     5   6    -0.01   0.04  -0.11     0.04   0.01  -0.01     0.00   0.00  -0.01
     6   6     0.02   0.03   0.03    -0.03  -0.03   0.01    -0.01  -0.01   0.00
     7   6    -0.12  -0.14   0.03     0.10   0.07  -0.01     0.04   0.01   0.00
     8   6     0.11   0.03  -0.03    -0.01  -0.01   0.03    -0.05   0.01  -0.14
     9   6    -0.03  -0.01   0.01    -0.00  -0.02  -0.00     0.01   0.05   0.02
    10   6    -0.03  -0.01   0.01     0.01   0.01  -0.01     0.00  -0.06   0.02
    11   6     0.09   0.06  -0.00    -0.08  -0.04   0.01    -0.02  -0.01   0.00
    12   1     0.58   0.32  -0.05     0.76  -0.18  -0.04     0.09   0.00  -0.01
    13   1     0.12  -0.07  -0.04     0.10  -0.01  -0.14     0.01  -0.00  -0.01
    14   1    -0.10  -0.06   0.04    -0.16   0.04   0.05    -0.02  -0.00   0.01
    15   1    -0.06  -0.04  -0.07     0.06  -0.12  -0.15     0.00  -0.01  -0.01
    16   1     0.22   0.23   0.24     0.01  -0.05  -0.12     0.00  -0.00  -0.02
    17   1     0.11  -0.07   0.07    -0.01   0.09   0.08    -0.01   0.06   0.05
    18   1    -0.17   0.15   0.10     0.03  -0.04  -0.07     0.01  -0.03   0.01
    19   1    -0.03   0.05   0.06    -0.28   0.04  -0.12     0.18  -0.05   0.87
    20   1     0.09  -0.02  -0.03     0.01  -0.02   0.04    -0.02   0.05  -0.09
    21   1     0.09   0.04   0.02    -0.03   0.03  -0.03     0.07  -0.13   0.10
    22   1    -0.05   0.04  -0.07    -0.01   0.03  -0.01     0.06  -0.16   0.03
    23   1    -0.02   0.05   0.09     0.01  -0.03  -0.02    -0.03   0.14   0.06
    24   1     0.09  -0.02  -0.03    -0.02   0.01   0.01    -0.05  -0.03  -0.10
    25   1     0.07   0.06  -0.04    -0.01  -0.02  -0.00    -0.03   0.11   0.15
    26   1    -0.20   0.01   0.00     0.21  -0.02  -0.01     0.05  -0.02  -0.02
    27   1    -0.23  -0.07  -0.06     0.17   0.04   0.06     0.07   0.01   0.03
                     46                     47                     48
                      A                      A                      A
 Frequencies --   1387.3518              1422.2313              1427.4344
 Red. masses --      1.5616                 1.7806                 1.2705
 Frc consts  --      1.7709                 2.1221                 1.5252
 IR Inten    --      4.4789                 0.9067                 4.7843
  Atom  AN      X      Y      Z        X      Y      Z        X      Y      Z
     1   8    -0.01   0.01  -0.00    -0.00  -0.00   0.00    -0.00  -0.00   0.00
[...]
 0077928,-0.00575901,0.00290191,0.12051314,0.13819374,-0.00006001,0.000
 04913,0.00001100,0.00023202,-0.00009625,-0.00015693,-0.00008639,0.0000
 3113,0.00005967,0.00004084,0.00001071,-0.00000691,0.00020779,-0.000022
 77,-0.00015485,-0.00011020,-0.00018155,0.00005093,-0.00032070,-0.00066
 661,0.00013590,0.01105381,0.00682570,0.00364196,-0.06602036,-0.0470794
 3,-0.07856232,0.00115975,0.00019728,0.00135850,-0.00039625,0.00001389,
 0.00040904,0.00002514,0.00001133,0.00000555,0.00000178,-0.00001276,-0.
 00000072,-0.00000741,0.00000081,0.00000226,-0.00000387,0.00001462,0.00
 000829,-0.00000970,-0.00001565,0.00002507,0.00002879,-0.00002378,-0.00
 000168,0.00007793,0.00015156,0.00003944,0.00013526,0.00292107,-0.00034
 196,0.07342814,0.05003540,0.08038117,0.00004312,-0.00000970,0.00000515
 ,-0.00010650,0.00003321,0.00009584,-0.00000089,-0.00003927,-0.00003353
 ,0.00000372,0.00000078,0.00000694,-0.00012549,-0.00017907,-0.00002152,
 0.00022271,0.00006456,0.00040415,0.00022487,-0.00008555,-0.00105645,-0
 .00154452,-0.00019466,-0.00102314,-0.05061960,0.00017880,0.00975299,0.
 00032131,0.00024394,-0.00001311,0.00000074,0.00002912,-0.00019896,0.00
 001851,-0.00000386,0.00000990,0.00000601,-0.00000522,-0.00000191,-0.00
 000311,0.00000511,0.00000361,-0.00000242,-0.00000727,0.00000073,0.0000
 2068,-0.00006470,0.00005823,-0.00007217,0.00008756,-0.00001544,-0.0000
 0325,0.00003068,-0.00002672,0.00004286,0.00018669,0.00039919,0.0017179
 3,0.00005788,-0.02674789,0.04874213,-0.00007573,-0.00001837,-0.0000147
 4,0.00013724,0.00003210,0.00005750,0.00006387,0.00012632,-0.00000067,-
 0.00004848,-0.00001116,-0.00003366,-0.00046155,0.00035018,-0.00004579,
 0.00034218,-0.00009481,-0.00074501,-0.00026747,0.00147533,0.00105652,-
 0.00079206,0.00214594,0.03249865,0.00020094,-0.04927065,-0.00906706,0.
 00055353,-0.00641198,0.00097744,0.00016986,-0.00001485,-0.00008850,-0.
 00006340,0.00003404,-0.00004664,-0.00001667,0.00001983,0.00000680,0.00
 001752,-0.00001192,-0.00000957,0.00000695,0.00000401,-0.00000039,0.000
 01089,0.00008983,-0.00003182,-0.00007403,-0.00007176,-0.00009403,-0.00
 017929,-0.00037158,-0.00015103,-0.00035098,0.00130979,-0.00061824,0.00
 217680,-0.00069474,-0.01813904,-0.00030040,0.05239766,-0.00006700,0.00
 002749,0.00002317,-0.00000267,-0.00006987,0.00003639,-0.00004012,-0.00
 007162,0.00007178,-0.00000628,-0.00000027,-0.00000323,0.00020466,-0.00
 024581,0.00016551,-0.00038002,0.00015823,0.00083623,0.00049932,-0.0009
 1159,-0.00023047,0.00032877,-0.00105092,-0.01179011,0.00922677,-0.0080
 5109,-0.31174715,-0.00001001,0.00370272,0.00050222,-0.00017040,0.00019
 633,-0.00009907,0.00006378,-0.00002763,0.00003328,-0.00000240,-0.00000
 005,-0.00000142,-0.00000820,0.00000670,0.00001214,-0.00000015,-0.00000
 096,0.00000085,-0.00003657,-0.00011039,-0.00001237,-0.00002912,0.00014
 429,0.00010347,0.00008068,0.00022843,0.00012198,0.00035699,0.00019316,
 0.00058448,0.00064917,-0.00054612,-0.00959144,-0.01072590,0.00733673,0
 .33877383,-0.00029706,0.00008155,-0.00000030,0.00054000,-0.00023694,-0
 .00004708,-0.00007378,0.00015272,0.00013205,-0.00000715,0.00000881,-0.
 00007202,-0.00001781,-0.00029327,-0.00019207,0.00001357,-0.00009457,0.
 00000990,0.00102811,0.00038843,-0.00022186,-0.00018603,-0.00095578,0.0
 0025232,-0.23850915,0.10042615,0.06120110,-0.00004963,-0.00031084,0.00
 022308,0.00002186,0.00019832,0.00016891,-0.00001033,0.00001654,-0.0000
 1636,-0.00001628,0.00001401,0.00001130,0.00000619,-0.00000879,0.000003
 26,0.00000399,0.00002787,0.00001198,0.00001442,0.00007986,0.00002869,0
 .00000237,-0.00000726,0.00000671,0.00001587,0.00001921,0.00001710,0.00
 080870,0.00037891,-0.00019740,-0.02104615,0.01163658,0.00768728,0.0001
 6799,-0.00090044,0.00008810,0.25678326,0.00018873,0.00006841,0.0000005
 6,0.00005387,-0.00024119,-0.00003918,-0.00024048,-0.00039172,-0.000555
 47,0.00029908,0.00002488,0.00017331,0.00185524,-0.00023553,0.00028797,
 -0.00029040,0.00067512,0.00034044,-0.00159681,-0.00615917,0.00322299,0
 .02744243,-0.01398959,-0.00958659,0.09971411,-0.10127730,-0.03260777,0
 .00047216,0.00105095,-0.00127004,-0.00064684,-0.00000549,-0.00003319,0
 .00002726,-0.00001226,0.00004458,0.00007210,-0.00010235,-0.00005590,-0
 .00002295,0.00001609,-0.00000050,-0.00002527,0.00000162,0.00000806,-0.
 00003225,0.00000876,0.00009366,0.00002953,-0.00008181,-0.00008973,-0.0
 0005399,0.00000231,-0.00017315,-0.00031382,0.00112876,-0.00076967,-0.0
 1571062,0.00920677,0.00627335,0.00002925,-0.00091699,-0.00055894,-0.11
 056072,0.11077017,-0.00003914,-0.00001935,0.00000898,0.00007131,0.0000
 3819,-0.00000069,-0.00000685,0.00005412,0.00019628,-0.00006399,0.00002
 235,-0.00004554,-0.00043000,0.00004341,0.00036581,0.00006723,0.0001601
 4,0.00045771,0.00029555,0.00199985,-0.00116024,-0.01191172,0.00531839,
 0.00254203,0.06171734,-0.03307368,-0.07002981,-0.00092287,0.00019558,0
 .00076036,0.00008963,0.00005986,0.00002545,0.00001963,-0.00000432,0.00
 000118,-0.00001299,0.00002154,0.00001056,0.00000135,-0.00000093,0.0000
 0017,0.00000234,-0.00000203,0.00000311,0.00002508,-0.00007535,-0.00000
 920,-0.00002564,0.00006281,0.00002752,0.00005051,0.00017721,0.00009026
 ,0.00027031,-0.00068869,0.00023872,-0.01021244,0.00613660,0.00285378,0
 .02906936,-0.01485407,-0.00754330,-0.06834416,0.03456687,0.07128550,-0
 .00022879,0.00010683,-0.00000609,0.00032835,-0.00034002,0.00008583,0.0
 0001859,0.00005474,-0.00004419,0.00000716,-0.00001982,-0.00001566,0.00
 000883,-0.00006277,-0.00010362,-0.00014952,-0.00020001,0.00004746,0.00
 098210,-0.00015337,0.00025503,-0.00099388,0.00022913,-0.00082107,-0.00
 009128,0.00012702,-0.00040758,-0.24311897,0.09690479,0.06355710,0.0000
 4685,0.00011285,-0.00010933,0.00000113,-0.00001086,0.00001152,-0.00001
 586,0.00000036,0.00000128,0.00000044,0.00000128,0.00000787,0.00000559,
 0.00002417,0.00000807,0.00000685,0.00002891,0.00000848,0.00003357,0.00
 009081,0.00001416,0.00002814,0.00003310,0.00002482,0.00085505,-0.00003
 622,0.00036443,-0.00007037,0.00005470,0.00005600,0.00027913,-0.0002298
 8,-0.00003916,0.00040283,-0.00047708,0.00028682,0.26196687,0.00005520,
 0.00007806,-0.00000929,-0.00000741,-0.00026489,0.00009448,-0.00007834,
 0.00008260,-0.00002143,0.00003946,0.00004064,0.00000499,-0.00009803,0.
 00068402,0.00012590,0.00042708,0.00031502,-0.00032206,-0.00048622,-0.0
 0020728,-0.00062420,-0.00008824,-0.00156233,-0.00016463,-0.00071985,0.
 00042020,0.00044958,0.09716987,-0.09793708,-0.03105342,-0.00026925,0.0
 0009556,0.00004783,-0.00004123,0.00006882,-0.00001951,0.00001648,-0.00
 002168,-0.00000926,-0.00000120,-0.00000383,-0.00001514,-0.00000713,-0.
 00000229,0.00000620,0.00003076,0.00012660,0.00017836,-0.00001624,-0.00
 007535,-0.00019439,0.00000223,0.00000440,-0.00003139,0.00011272,-0.000
 12917,-0.00016854,-0.00007784,-0.00000010,0.00004645,-0.00007813,-0.00
 001121,-0.00016100,0.00009295,0.00023336,0.00014628,-0.10727393,0.1019
 7594,0.00014111,-0.00000669,0.00000542,-0.00001227,-0.00003654,0.00000
 632,-0.00011625,0.00002221,-0.00017027,0.00008768,-0.00000064,0.000023
 81,-0.00038218,0.00041196,0.00043718,0.00196986,-0.00004333,-0.0006219
 1,-0.00134686,0.00049554,-0.00694403,0.03032253,-0.01483152,-0.0094168
 4,0.00074221,-0.00102046,0.00137898,0.06265428,-0.03061110,-0.06818982
 ,-0.00061740,-0.00030145,-0.00022322,0.00006961,-0.00006062,0.00004731
 ,0.00002593,-0.00003153,-0.00000237,-0.00003064,0.00002291,0.00003376,
 -0.00001296,0.00000027,0.00000640,-0.00005674,-0.00026476,0.00004903,-
 0.00000925,-0.00066696,-0.00035922,-0.00003955,0.00013851,0.00002283,-
 0.00038165,-0.00023150,0.00146717,-0.00007575,0.00012996,-0.00005969,-
 0.00043460,-0.00018966,0.00030058,-0.00051657,0.00085094,-0.00017204,-
 0.06926751,0.03478107,0.07518273,0.00009589,-0.00000944,0.00001753,0.0
 0012006,-0.00009315,0.00001843,-0.00004095,0.00005420,-0.00008051,0.00
 003308,0.00000625,0.00001263,-0.00005551,0.00014143,0.00008999,0.00016
 071,-0.00000479,-0.00016253,0.00000090,0.00035570,-0.00027645,0.002310
 12,0.00157936,0.00016204,0.00021137,-0.00002964,0.00008081,-0.19575085
 ,-0.10197755,-0.07766597,-0.00077896,0.00007587,0.00052079,0.00000449,
 0.00000360,0.00001017,0.00001438,-0.00001507,-0.00000404,-0.00000858,0
 .00000282,0.00000463,-0.00000529,0.00000506,0.00000220,-0.00000628,-0.
 00000460,-0.00000024,-0.00003230,-0.00007195,-0.00005773,0.00001298,-0
 .00002405,0.00000988,0.00125817,0.00038094,0.00061697,0.00020268,0.000
 38855,-0.00037970,0.00015935,0.00027888,0.00001234,-0.00009736,-0.0000
 9783,-0.00005041,-0.02121374,-0.01607166,-0.01137637,0.21279236,-0.000
 07693,0.00017138,0.00001997,0.00031433,-0.00056374,0.00007182,-0.00005
 965,0.00015283,-0.00021708,0.00007629,-0.00001601,0.00001778,-0.000136
 95,-0.00016821,-0.00011140,0.00032098,-0.00010394,-0.00003451,-0.00093
 611,-0.00001194,-0.00012128,0.00027952,-0.00112322,-0.00048787,0.00102
 093,0.00079126,0.00040367,-0.10206561,-0.12109601,-0.05357306,-0.00040
 911,-0.00006683,-0.00034098,-0.00000310,-0.00003954,0.00002246,0.00001
 106,-0.00002926,-0.00000960,-0.00001293,0.00001030,0.00001811,-0.00000
 584,0.00003311,0.00001471,0.00009767,0.00020799,0.00009554,0.00004742,
 -0.00001992,-0.00005653,0.00005225,0.00005956,0.00006419,0.00043677,0.
 00095363,0.00007726,-0.00020849,0.00039122,-0.00012854,0.00006132,0.00
 002063,-0.00015655,0.00007786,0.00000595,0.00003191,0.01124470,0.00829
 220,0.00691901,0.11336365,0.12657284,-0.00019845,0.00018790,-0.0000740
 9,0.00047010,-0.00061747,0.00034647,-0.00007958,0.00010837,-0.00014986
 ,0.00008351,0.00000666,0.00000237,0.00016531,-0.00001585,-0.00008104,0
 .00018946,0.00004307,-0.00006530,-0.00118179,0.00023337,0.00103913,-0.
 02730788,-0.01790490,-0.01333369,-0.00061932,-0.00153806,0.00181834,-0
 .07783776,-0.05343320,-0.09022956,-0.00005367,0.00010461,-0.00033517,0
 .00004250,0.00000857,0.00003300,0.00000772,-0.00003015,-0.00000520,-0.
 00001577,0.00000695,0.00001225,-0.00000636,0.00002627,0.00001431,-0.00
 001143,0.00011807,0.00004003,0.00017696,-0.00010085,-0.00000514,0.0000
 9021,0.00017458,0.00021859,0.00089161,0.00002771,-0.00694558,0.0005760
 9,0.00099577,-0.00000984,0.00043941,0.00001305,0.00031488,0.00002838,0
 .00014150,-0.00007113,0.00678114,0.00592498,0.00362806,0.08558789,0.05
 990196,0.09856427,0.00002218,0.00004305,-0.00002958,-0.00008207,-0.000
 12567,0.00015064,-0.00011039,0.00004464,0.00009047,0.00000169,0.000041
 62,-0.00003215,0.00017896,0.00037886,-0.00010272,-0.00002082,-0.000128
 68,-0.00015775,0.00032234,-0.00104539,0.00042673,-0.00153653,-0.001797
 80,0.00063879,0.00030861,0.00010561,0.00047153,-0.05042757,0.00593091,
 -0.00281681,-0.00021288,0.00019590,-0.00004663,-0.00004612,0.00012674,
 -0.00002626,0.00000735,-0.00000972,-0.00000013,0.00000799,-0.00001876,
 -0.00001759,-0.00000163,-0.00001235,0.00000138,0.00002002,0.00002316,0
 .00009589,-0.00002648,0.00000408,-0.00005990,0.00000070,0.00001420,-0.
 00007182,0.00003341,0.00044023,-0.00003001,0.00019497,0.00043360,-0.00
 012918,0.00059254,-0.00010014,0.00005172,0.00026122,-0.00042662,0.0000
 8917,0.00055507,0.02709030,-0.01152896,0.00140165,-0.02408664,0.010446
 35,0.04844918,-0.00009946,0.00010078,-0.00003761,0.00004109,-0.0002434
 4,0.00014195,0.00000943,0.00007921,0.00012727,-0.00003957,0.00003827,-
 0.00004737,-0.00022020,0.00042247,-0.00012179,0.00001541,0.00008810,-0
 .00020062,0.00038585,0.00000534,-0.00023041,-0.00006985,0.00168614,-0.
 00088129,0.00027205,0.00111671,0.00056022,0.00567718,-0.27634902,0.089
 53563,-0.00022571,0.00024356,0.00006686,-0.00005399,0.00011794,-0.0000
 6160,-0.00001130,0.00000717,0.00000312,0.00001450,-0.00001683,-0.00002
 800,0.00000335,0.00000613,0.00000731,0.00004256,0.00008115,-0.00001264
 ,-0.00003099,0.00009387,-0.00006493,-0.00003245,-0.00006869,-0.0000214
 2,0.00018409,0.00053895,0.00056357,0.00013294,0.00022661,-0.00023824,0
 .00001448,-0.00002900,-0.00001127,-0.00012816,0.00014384,-0.00022943,-
 0.00041400,-0.01221571,0.00427032,0.00135330,-0.01502662,0.00561194,-0
 .00689832,0.29913432,-0.00011274,-0.00012837,0.00000301,0.00015773,0.0
 0028013,0.00000127,0.00007330,-0.00030437,0.00003124,-0.00001898,-0.00
 003458,-0.00001216,0.00054034,-0.00077211,0.00009626,-0.00059851,-0.00
 000781,0.00055830,-0.00056349,0.00170834,0.00123521,-0.00049256,0.0325
 5653,-0.01127302,0.00057467,-0.00227785,-0.00704508,-0.00261212,0.0887
 2933,-0.08401217,0.00023465,-0.00017042,-0.00006204,0.00007708,-0.0000
 5437,0.00003624,-0.00001826,0.00001927,0.00000598,0.00000117,0.0000030
 3,0.00001544,0.00000956,-0.00000486,-0.00000279,-0.00018475,-0.0005025
 9,-0.00030043,0.00000521,-0.00000115,0.00024084,0.00002885,0.00006216,
 0.00004648,-0.00048404,-0.00033778,0.00127839,0.00025444,-0.00008315,0
 .00012491,-0.00002905,0.00220335,-0.00094220,-0.00019973,-0.00025996,0
 .00017043,-0.00094525,-0.00915553,0.00322426,0.00174247,-0.01281158,0.
 00506435,0.00265411,-0.09870637,0.09154284,0.00023506,-0.00100543,0.00
 183606,0.00821701,0.01194393,-0.01510465,-0.00208618,0.00272980,0.0021
 7743,0.00104108,0.00042405,-0.00011411,-0.00528695,-0.00023011,0.00116
 103,0.00232139,0.00276732,0.00105237,-0.01014046,-0.02195629,0.0166594
 4,-0.00018446,-0.00153112,-0.00015917,-0.00004447,-0.00002782,0.000082
 70,-0.00005875,0.00010050,-0.00014842,-0.08445551,-0.06720337,0.060861
 55,-0.00022086,-0.00040042,-0.00002591,0.00005318,-0.00014246,-0.00004
 589,-0.00004677,0.00004476,0.00005094,-0.00014859,0.00030667,0.0002257
 1,0.00025597,-0.00155042,-0.00085215,0.00052111,-0.00053560,-0.0008176
 1,0.00011606,0.00020793,-0.00001790,-0.00034031,0.00035785,-0.00003159
 ,-0.00016604,0.00057596,0.00024234,-0.00017244,0.00002964,-0.00019445,
 0.00021010,0.00020743,-0.00007960,-0.00004076,0.00002804,0.00005711,0.
 00003962,-0.00003049,0.00004232,0.00003869,0.00002978,-0.00012698,0.08
 986660,-0.00075206,0.00350459,-0.00276926,-0.01037032,-0.02025093,0.01
 800679,0.00082759,-0.00271217,-0.00313605,-0.00086370,-0.00063029,0.00
 047748,-0.00066997,-0.00122507,0.00085816,-0.00003730,0.00080314,0.000
 61559,-0.00247924,-0.00490224,0.00205775,0.00002072,-0.00011678,-0.000
 19832,-0.00003522,-0.00015486,0.00005502,0.00006895,-0.00015669,-0.000
 12133,-0.06681997,-0.16617768,0.11740230,0.00016770,0.00026019,0.00040
 403,0.00009253,-0.00000070,-0.00001724,-0.00001291,-0.00004300,-0.0000
 7465,0.00025207,-0.00027167,-0.00029238,-0.00001421,-0.00029046,-0.000
 40963,0.00017937,-0.00046219,-0.00060416,0.00020871,0.00007230,-0.0002
 5329,-0.00002912,0.00000284,0.00005904,0.00033696,-0.00002299,0.000031
 11,-0.00003636,-0.00001648,-0.00001874,-0.00002073,0.00009522,-0.00001
 900,0.00005520,0.00006137,0.00005833,0.00003505,0.00013094,0.00006967,
 -0.00002599,-0.00001238,-0.00002559,0.07497935,0.18221418,-0.00129895,
 -0.00020821,0.00063764,0.00152312,-0.00315558,-0.00004004,-0.00022856,
 -0.00051577,-0.00034084,0.00000524,-0.00017993,0.00006830,-0.00229016,
 -0.00238058,0.00021299,0.00015055,0.00055591,0.00241849,-0.00282387,-0
 .00771655,0.00610037,0.00003964,0.00014966,-0.00027381,0.00023253,0.00
 057936,0.00035706,0.00007583,-0.00028965,-0.00018587,0.06112463,0.1158
 8826,-0.15168165,-0.00004176,-0.00003659,0.00004388,0.00000159,-0.0000
 1453,-0.00000714,-0.00000896,0.00002449,0.00002177,0.00001898,-0.00001
 508,-0.00000805,0.00001166,-0.00084940,-0.00029488,0.00054328,0.000289
 30,-0.00003447,-0.00003867,0.00010634,0.00018420,0.00000296,-0.0000223
 5,0.00005572,-0.00018140,-0.00022073,-0.00018543,-0.00003800,-0.000002
 59,-0.00004642,-0.00013305,-0.00012162,-0.00007317,0.00012692,0.000059
 59,0.00008204,0.00007088,0.00023957,0.00011970,-0.00007455,-0.00006087
 ,0.00002564,-0.06722634,-0.12346618,0.16252577,-0.00113838,0.00036790,
 -0.00361103,-0.00013390,0.00579197,0.02089710,-0.00071886,0.00012351,-
 0.00207121,-0.00006538,-0.00002699,-0.00000989,0.00055417,0.00039527,0
 .00029701,-0.00593853,-0.00104506,-0.00105897,0.00173563,-0.01227686,-
 0.02983055,0.00157721,0.00045136,-0.00045281,-0.00023608,0.00016075,0.
 00001169,-0.00098309,-0.00048203,-0.00006355,-0.04583149,-0.00119219,0
 .00004439,0.00074498,0.00038482,0.00019791,0.00004253,-0.00008693,-0.0
 0002495,-0.00007702,-0.00001948,0.00001814,0.00004115,0.00004940,0.000
 01875,-0.00004152,-0.00010352,-0.00008159,-0.00009824,0.00058046,0.000
 05973,-0.00007814,-0.00176664,-0.00078779,0.00052244,-0.00023050,0.000
 08998,-0.00005112,0.00021891,-0.00010521,0.00008681,-0.00012777,0.0001
 5014,0.00003023,0.00010450,0.00004419,0.00039663,0.00024960,0.00013519
 ,-0.00082802,0.00062714,0.00129303,0.00006789,0.00004799,0.00003288,0.
 00047668,0.00494293,0.01045645,0.04994341,-0.00023682,0.00090504,0.002
 96341,-0.00044938,-0.01109568,-0.02673128,0.00039498,-0.00166100,0.004
 63890,0.00031331,-0.00010720,0.00005212,0.00053393,0.00033472,0.000231
 21,-0.00115439,0.00097268,-0.00000619,-0.00033190,-0.00313758,-0.00757
 908,0.00043918,0.00006410,-0.00013075,0.00010659,0.00026567,0.00023000
 ,0.00035013,-0.00007078,-0.00015457,-0.00258380,-0.08482019,-0.0981564
 7,-0.00044137,-0.00147773,-0.00007291,-0.00000510,0.00000151,0.0000278
 1,-0.00002559,0.00006520,-0.00001347,-0.00004133,-0.00002721,-0.000027
 10,-0.00002463,-0.00009368,-0.00017511,0.00008796,0.00004745,0.0000288
 7,0.00011670,-0.00041387,-0.00009289,-0.00002451,-0.00004125,0.0000570
 6,0.00000786,-0.00014064,-0.00000892,-0.00001918,-0.00006016,-0.000001
 26,-0.00008229,-0.00001882,-0.00006826,0.00014938,-0.00004786,0.000195
 73,0.00037508,0.00047141,-0.00006451,-0.00019682,-0.00016885,0.0000762
 8,-0.00011947,0.01030181,0.02136374,0.00286147,0.08995293,-0.00036783,
 -0.00010002,0.00077015,0.00115169,-0.00083671,0.00092668,0.00033457,0.
 00010132,-0.00140703,-0.00003584,-0.00024423,0.00007276,-0.00004221,-0
 .00018865,-0.00018090,-0.00199492,0.00013916,0.00048993,-0.00185200,-0
 .00232798,-0.00679968,0.00067164,-0.00085582,-0.00037390,-0.00023700,-
 0.00026129,-0.00014182,0.00050617,-0.00015883,-0.00009921,-0.00461255,
 -0.09069183,-0.26133546,0.00020620,0.00024649,0.00034762,0.00003533,-0
 .00004079,-0.00000228,-0.00004931,0.00004509,0.00005577,0.00003690,-0.
 00003099,-0.00001515,0.00005140,-0.00015691,0.00006114,-0.00006470,0.0
 0050254,0.00030570,0.00001546,-0.00077756,-0.00006979,-0.00007242,0.00
 016208,0.00002695,0.00005743,0.00034598,-0.00003567,0.00012074,-0.0000
 1753,0.00012639,0.00007044,0.00011749,0.00006730,0.00012253,0.00008408
 ,0.00026354,0.00109430,0.00015102,0.00008984,0.00000726,0.00006567,-0.
 00005121,0.00049575,-0.00868943,-0.01968181,0.00435098,0.10341766,0.28
 659016\\-0.00003322,0.00002455,0.00034758,-0.00007603,0.00000536,-0.00
 017670,-0.00006174,0.00003363,0.00000013,0.00000863,0.00006398,-0.0000
 9540,-0.00000826,-0.00003868,0.00001314,-0.00002208,0.00002193,-0.0000
 7159,0.00000402,-0.00000349,0.00006935,-0.00001485,-0.00003817,0.00004
 315,-0.00001508,0.00001380,0.00000485,0.00002727,-0.00001085,0.0000071
 1,-0.00001736,0.00000763,0.00004885,0.00012224,-0.00011218,-0.00002992
 ,-0.00002694,-0.00004590,0.00004623,0.00005865,0.00001994,0.00001554,-
 0.00004221,0.00001845,-0.00004745,-0.00000190,0.00004809,0.00005684,-0
 .00000058,-0.00000011,-0.00000317,-0.00000635,-0.00000329,-0.00000594,
 0.00001635,-0.00001652,-0.00000627,-0.00000193,-0.00000754,0.00000172,
 -0.00000226,-0.00000385,0.00000691,0.00000355,-0.00000247,0.00000718,0
 .00001051,0.00001068,-0.00000541,0.00002919,-0.00001319,-0.00001345,-0
 .00001551,0.00000413,-0.00000226,-0.00001269,-0.00011442,-0.00013393,0
 .00007857,0.00013849,-0.00007709\\\@


 TIME IS IN FACT THE HERO OF THE PLOT. THE TIME
 WITH WHICH WE HAVE TO DEAL IS OF THE ORDER OF TWO
 BILLION YEARS...GIVEN SO MUCH TIME, THE "IMPOSSIBLE"
 BECOMES POSSIBLE, THE POSSIBLE PROBABLE, THE PROBABLE
 VIRTUALLY CERTAIN.  ONE HAS ONLY TO WAIT, TIME
 ITSELF PERFORMS THE MIRACLES.
 "ORIGIN OF LIFE" LECTURES, GEORGE WALD, 1954
 Job cpu time:       0 days  0 hours  2 minutes 31.7 seconds.
 Elapsed time:       0 days  0 hours  2 minutes 32.5 seconds.
 File lengths (MBytes):  RWF=    127 Int=      0 D2E=      0 Chk=      5 Scr=      1
 Normal termination of Gaussian 16 at Thu Feb 22 10:15:20 2024.
