 Entering Gaussian System, Link 0=g16
 Input=/Volumes/SSD-PMU3/b3lyp_6-31gd_freq/JUNOMGCJVMTXEV-YAMSLAJTSA-N_calculating/gaussianinput0.gjf
 Output=/Volumes/SSD-PMU3/b3lyp_6-31gd_freq/JUNOMGCJVMTXEV-YAMSLAJTSA-N_calculating/gaussianinput0.log
 Initial command:
 /Applications/g16/l1.exe "/Users/macmini_m1_2022/PycharmProjects/sphere_model/sphere_model_lib/Gau-82953.inp" -scrdir="/Users/macmini_m1_2022/PycharmProjects/sphere_model/sphere_model_lib/"
 Entering Link 1 = /Applications/g16/l1.exe PID=     82954.
  
 Copyright (c) 1988,1990,1992,1993,1995,1998,2003,2009,2016,
            Gaussian, Inc.  All Rights Reserved.
  
 This is part of the Gaussian(R) 16 program.  It is based on
 the Gaussian(R) 09 system (copyright 2009, Gaussian, Inc.),
 the Gaussian(R) 03 system (copyright 2003, Gaussian, Inc.),
 the Gaussian(R) 98 system (copyright 1998, Gaussian, Inc.),
 the Gaussian(R) 94 system (copyright 1995, Gaussian, Inc.),
 the Gaussian 92(TM) system (copyright 1992, Gaussian, Inc.),
 the Gaussian 90(TM) system (copyright 1990, Gaussian, Inc.),
 the Gaussian 88(TM) system (copyright 1988, Gaussian, Inc.),
 the Gaussian 86(TM) system (copyright 1986, Carnegie Mellon
 University), and the Gaussian 82(TM) system (copyright 1983,
 Carnegie Mellon University). Gaussian is a federally registered
 trademark of Gaussian, Inc.
  
 This software contains proprietary and confidential information,
 including trade secrets, belonging to Gaussian, Inc.
  
 This software is provided under written license and may be
 used, copied, transmitted, or stored only in accord with that
 written license.
  
 The following legend is applicable only to US Government
 contracts under FAR:
  
                    RESTRICTED RIGHTS LEGEND
  
 Use, reproduction and disclosure by the US Government is
 subject to restrictions as set forth in subparagraphs (a)
 and (c) of the Commercial Computer Software - Restricted
 Rights clause in FAR 52.227-19.
  
 Gaussian, Inc.
 340 Quinnipiac St., Bldg. 40, Wallingford CT 06492
  
  
 ---------------------------------------------------------------
 Warning -- This program may not be used in any manner that
 competes with the business of Gaussian, Inc. or will provide
 assistance to any competitor of Gaussian, Inc.  The licensee
 of this program is prohibited from giving any competitor of
 Gaussian, Inc. access to this program.  By using this program,
 the user acknowledges that Gaussian, Inc. is engaged in the
 business of creating and licensing software in the field of
 computational chemistry and represents and warrants to the
 licensee that it is not a competitor of Gaussian, Inc. and that
 it will not use this program in any manner prohibited above.
 ---------------------------------------------------------------
  

 Cite this work as:
 Gaussian 16, Revision A.03,
 M. J. Frisch, G. W. Trucks, H. B. Schlegel, G. E. Scuseria, 
 M. A. Robb, J. R. Cheeseman, G. Scalmani, V. Barone, 
 G. A. Petersson, H. Nakatsuji, X. Li, M. Caricato, A. V. Marenich, 
 J. Bloino, B. G. Janesko, R. Gomperts, B. Mennucci, H. P. Hratchian, 
 J. V. Ortiz, A. F. Izmaylov, J. L. Sonnenberg, D. Williams-Young, 
 F. Ding, F. Lipparini, F. Egidi, J. Goings, B. Peng, A. Petrone, 
 T. Henderson, D. Ranasinghe, V. G. Zakrzewski, J. Gao, N. Rega, 
 G. Zheng, W. Liang, M. Hada, M. Ehara, K. Toyota, R. Fukuda, 
 J. Hasegawa, M. Ishida, T. Nakajima, Y. Honda, O. Kitao, H. Nakai, 
 T. Vreven, K. Throssell, J. A. Montgomery, Jr., J. E. Peralta, 
 F. Ogliaro, M. J. Bearpark, J. J. Heyd, E. N. Brothers, K. N. Kudin, 
 V. N. Staroverov, T. A. Keith, R. Kobayashi, J. Normand, 
 K. Raghavachari, A. P. Rendell, J. C. Burant, S. S. Iyengar, 
 J. Tomasi, M. Cossi, J. M. Millam, M. Klene, C. Adamo, R. Cammi, 
 J. W. Ochterski, R. L. Martin, K. Morokuma, O. Farkas, 
 J. B. Foresman, and D. J. Fox, Gaussian, Inc., Wallingford CT, 2016.
 
 ******************************************
 Gaussian 16:  EM64M-G16RevA.03 25-Dec-2016
                24-Feb-2024 
 ******************************************
 %nprocshared=10
 Will use up to   10 processors via shared memory.
 %mem=12GB
 %chk= 0.chk
 ---------------------
 # freq b3lyp/6-31g(d)
 ---------------------
 1/10=4,30=1,38=1/1,3;
 2/12=2,17=6,18=5,40=1/2;
 3/5=1,6=6,7=1,11=2,25=1,30=1,71=2,74=-5,140=1/1,2,3;
 4//1;
 5/5=2,38=5,98=1/2;
 8/6=4,10=90,11=11/1;
 11/6=1,8=1,9=11,15=111,16=1/1,2,10;
 10/6=1/2;
 6/7=2,8=2,9=2,10=2,28=1/1;
 7/8=1,10=1,25=1/1,2,3,16;
 1/10=4,30=1/3;
 99//99;
 ---------
 good luck
 ---------
 Symbolic Z-matrix:
 Charge =  0 Multiplicity = 1
 C                    -4.36847   0.37289   2.51909 
 C                    -4.28124   0.04972   1.0199 
 C                    -2.86857   0.26319   0.4003 
 C                    -2.22188  -1.14419   0.55709 
 C                    -0.78853  -1.3411   -0.02501 
 C                    -0.76527  -1.8548   -1.48942 
 C                    -0.01679  -2.36669   0.83265 
 C                     0.        0.        0. 
 O                     1.21803   0.        0. 
 C                    -0.78033   1.31363  -0.02501 
 C                    -1.91313   1.29658   1.02371 
 C                    -1.57692   1.45532  -1.35285 
 C                    -2.93348   0.74859  -1.07918 
 C                    -3.34733  -2.10117   0.13191 
 C                    -4.62146  -1.45288   0.73285 
 H                    -4.15275   1.42802   2.72231 
 H                    -3.66929  -0.23274   3.10889 
 H                    -5.37712   0.16279   2.89457 
 H                    -5.00003   0.70024   0.50589 
 H                    -2.1104   -1.27154   1.64541 
 H                     0.26961  -1.89781  -1.844 
 H                    -1.3331   -1.22677  -2.18039 
 H                    -1.1812   -2.86693  -1.53941 
 H                    -0.52902  -3.33574   0.81798 
 H                     0.05735  -2.03752   1.87541 
 H                     0.99926  -2.49991   0.45325 
 H                    -0.05334   2.11823   0.11396 
 H                    -1.57111   1.01911   2.02723 
 H                    -2.36882   2.29401   1.09194 
 H                    -1.73016   2.52067  -1.55765 
 H                    -1.03573   1.04697  -2.21212 
 H                    -3.1383   -0.06419  -1.78253 
 H                    -3.75845   1.46232  -1.1876 
 H                    -3.42269  -2.1541   -0.9599 
 H                    -3.19293  -3.12567   0.48804 
 H                    -4.90273  -1.95528   1.66593 
 H                    -5.47806  -1.55255   0.05771 
 

 GradGradGradGradGradGradGradGradGradGradGradGradGradGradGradGradGradGrad
 Berny optimization.
 Initialization pass.
 Trust Radius=3.00D-01 FncErr=1.00D-07 GrdErr=1.00D-07 EigMax=2.50D+02 EigMin=1.00D-04
 Number of steps in this run=      2 maximum allowed number of steps=      2.
 GradGradGradGradGradGradGradGradGradGradGradGradGradGradGradGradGradGrad

                          Input orientation:                          
 ---------------------------------------------------------------------
 Center     Atomic      Atomic             Coordinates (Angstroms)
 Number     Number       Type             X           Y           Z
 ---------------------------------------------------------------------
      1          6           0       -4.368473    0.372891    2.519089
      2          6           0       -4.281244    0.049723    1.019898
      3          6           0       -2.868571    0.263187    0.400295
      4          6           0       -2.221877   -1.144190    0.557087
      5          6           0       -0.788525   -1.341101   -0.025013
      6          6           0       -0.765269   -1.854803   -1.489420
      7          6           0       -0.016786   -2.366695    0.832646
      8          6           0        0.000000    0.000000    0.000000
      9          8           0        1.218025    0.000000    0.000000
     10          6           0       -0.780333    1.313630   -0.025013
     11          6           0       -1.913129    1.296576    1.023708
     12          6           0       -1.576923    1.455324   -1.352849
     13          6           0       -2.933483    0.748588   -1.079176
     14          6           0       -3.347326   -2.101172    0.131912
     15          6           0       -4.621458   -1.452877    0.732847
     16          1           0       -4.152751    1.428018    2.722314
     17          1           0       -3.669288   -0.232737    3.108886
     18          1           0       -5.377123    0.162793    2.894574
     19          1           0       -5.000030    0.700238    0.505890
     20          1           0       -2.110397   -1.271538    1.645414
     21          1           0        0.269611   -1.897807   -1.844004
     22          1           0       -1.333103   -1.226773   -2.180394
     23          1           0       -1.181197   -2.866926   -1.539406
     24          1           0       -0.529024   -3.335737    0.817984
     25          1           0        0.057352   -2.037517    1.875414
     26          1           0        0.999263   -2.499906    0.453249
     27          1           0       -0.053341    2.118230    0.113956
     28          1           0       -1.571109    1.019114    2.027232
     29          1           0       -2.368823    2.294005    1.091941
     30          1           0       -1.730163    2.520670   -1.557653
     31          1           0       -1.035726    1.046972   -2.212118
     32          1           0       -3.138298   -0.064188   -1.782529
     33          1           0       -3.758449    1.462315   -1.187603
     34          1           0       -3.422691   -2.154096   -0.959904
     35          1           0       -3.192930   -3.125671    0.488035
     36          1           0       -4.902731   -1.955280    1.665930
     37          1           0       -5.478058   -1.552553    0.057714
 ---------------------------------------------------------------------
                    Distance matrix (angstroms):
                    1          2          3          4          5
     1  C    0.000000
     2  C    1.536106   0.000000
     3  C    2.598274   1.557280   0.000000
     4  C    3.280070   2.424998   1.556762   0.000000
     5  C    4.714473   3.901963   2.661056   1.559523   0.000000
     6  C    5.832139   4.720803   3.532815   2.610530   1.552069
     7  C    5.411710   4.905073   3.903317   2.536312   1.543698
     8  C    5.056522   4.401331   2.908299   2.560518   1.555940
     9  O    6.139529   5.593266   4.114580   3.667757   2.413591
    10  C    4.498021   3.865964   2.375933   2.908224   2.654744
    11  C    3.019615   2.676308   1.539288   2.504077   3.053177
    12  C    4.894519   3.862511   2.482551   3.289574   3.194482
    13  C    3.892025   2.590557   1.558417   2.601221   3.174729
    14  C    3.586411   2.507403   2.427227   1.537278   2.673910
    15  C    2.566728   1.567147   2.475496   2.425730   3.908737
    16  H    1.095960   2.194180   2.897882   3.877207   5.151101
    17  H    1.097044   2.195027   2.867674   3.072039   4.398703
    18  H    1.096588   2.174430   3.538974   4.138554   5.642776
    19  H    2.135179   1.097282   2.178367   3.335067   4.710170
    20  H    2.926835   2.617170   2.116726   1.101409   2.131317
    21  H    6.760508   5.718836   4.422099   3.541284   2.176764
    22  H    5.818723   4.534627   3.352253   2.879330   2.226051
    23  H    6.093154   4.966605   4.050590   2.906220   2.185342
    24  H    5.602593   5.057792   4.312795   2.781492   2.180953
    25  H    5.080582   4.889979   4.003778   2.780450   2.193656
    26  H    6.429094   5.891133   4.753696   3.496354   2.183518
    27  H    5.239393   4.793184   3.383592   3.942372   3.539319
    28  H    2.912863   3.049471   2.213991   2.695313   3.224091
    29  H    3.118658   2.949465   2.202804   3.482649   4.118121
    30  H    5.309751   4.388321   3.197775   4.259707   4.260158
    31  H    5.826312   4.687624   3.286083   3.725136   3.247681
    32  H    4.495363   3.028679   2.223656   2.734965   3.200125
    33  H    3.911335   2.672413   2.179727   3.492687   4.246317
    34  H    4.402676   3.084404   2.828506   2.182459   2.910981
    35  H    4.212721   3.398593   3.405476   2.207709   3.037939
    36  H    2.536472   2.196279   3.265155   3.012371   4.490345
    37  H    3.316154   2.219336   3.197451   3.319465   4.695027
                    6          7          8          9         10
     6  C    0.000000
     7  C    2.492840   0.000000
     8  C    2.498860   2.508949   0.000000
     9  O    3.097115   2.796302   1.218025   0.000000
    10  C    3.490513   3.855305   1.528126   2.391586   0.000000
    11  C    4.191012   4.129428   2.527677   3.540228   1.543805
    12  C    3.410920   4.671000   2.536702   3.429271   1.554922
    13  C    3.412784   4.676235   3.214083   4.354311   2.463044
    14  C    3.058829   3.413800   3.954354   5.027400   4.274921
    15  C    4.468804   4.695533   4.899570   6.061970   4.793971
    16  H    6.323816   5.922575   5.166776   6.188333   4.351332
    17  H    5.675283   4.803729   4.814874   5.796996   4.534163
    18  H    6.675275   6.275593   6.108888   7.204237   5.565869
    19  H    5.333170   5.860509   5.074107   6.277776   4.296970
    20  H    3.460744   2.498633   2.962764   3.924613   3.352982
    21  H    1.094786   2.732459   2.659833   2.810963   3.837244
    22  H    1.092841   3.480018   2.834829   3.573142   3.377110
    23  H    1.095394   2.689371   3.461829   4.042932   4.464429
    24  H    2.751925   1.096196   3.475069   3.853365   4.731851
    25  H    3.468746   1.096002   2.769827   3.002635   3.942528
    26  H    2.702535   1.092723   2.730108   2.550063   4.235417
    27  H    4.343115   4.542291   2.121964   2.473107   1.093257
    28  H    4.612550   3.912372   2.759827   3.595488   2.218958
    29  H    5.142705   5.226991   3.473632   4.395483   2.175321
    30  H    4.481120   5.703992   3.431257   4.179937   2.169817
    31  H    3.002622   4.686358   2.657507   3.327012   2.218053
    32  H    2.987220   4.678089   3.609771   4.707343   3.247652
    33  H    4.478113   5.722129   4.204130   5.321096   3.200453
    34  H    2.726143   3.854688   4.156484   5.205554   4.458834
    35  H    3.379197   3.283701   4.494752   5.428123   5.078507
    36  H    5.204318   4.973538   5.534909   6.637929   5.526231
    37  H    4.969443   5.575737   5.694108   6.873957   5.503678
                   11         12         13         14         15
    11  C    0.000000
    12  C    2.405464   0.000000
    13  C    2.400736   1.553907   0.000000
    14  C    3.794326   4.241168   3.123961   0.000000
    15  C    3.870289   4.698612   3.313478   1.550749   0.000000
    16  H    2.813973   4.821057   4.049638   4.451300   3.532311
    17  H    3.125837   5.209090   4.363974   3.529459   2.835653
    18  H    4.096933   5.844036   4.701619   4.108274   2.802585
    19  H    3.186332   3.967711   2.604878   3.274017   2.197892
    20  H    2.649650   4.087781   3.490239   2.123435   2.677889
    21  H    4.815829   3.859327   4.224711   4.126480   5.546231
    22  H    4.119465   2.817432   2.770550   3.188797   4.399020
    23  H    4.943686   4.344335   4.044040   2.841091   4.358677
    24  H    4.839049   5.363289   5.105130   3.152407   4.505599
    25  H    3.965397   5.029162   5.043518   3.825661   4.851652
    26  H    4.818789   5.053966   5.326118   4.376652   5.724242
    27  H    2.227459   2.216363   3.405099   5.352944   5.831254
    28  H    1.095912   3.408117   3.402796   4.059972   4.134102
    29  H    1.098716   2.703237   2.724134   4.603988   4.386620
    30  H    2.862745   1.095623   2.194811   5.179891   5.421720
    31  H    3.361950   1.094527   2.230263   4.555083   5.270630
    32  H    3.350774   2.220683   1.094194   2.803227   3.233471
    33  H    2.884887   2.187787   1.096235   3.822117   3.596006
    34  H    4.256833   4.072981   2.946035   1.095693   2.189556
    35  H    4.634771   5.194790   4.187284   1.095564   2.213338
    36  H    4.463713   5.639703   4.327175   2.189470   1.096434
    37  H    4.664697   5.124048   3.614226   2.201478   1.095218
                   16         17         18         19         20
    16  H    0.000000
    17  H    1.772366   0.000000
    18  H    1.769055   1.766090   0.000000
    19  H    2.481951   3.068698   2.477268   0.000000
    20  H    3.552256   2.377183   3.780106   3.679184   0.000000
    21  H    7.174236   6.543585   7.654136   6.327792   4.269975
    22  H    6.247790   5.867056   6.636286   4.937190   3.904228
    23  H    6.740841   5.893740   6.815069   5.611718   3.681271
    24  H    6.281022   4.973741   6.328981   6.031284   2.728791
    25  H    5.518346   4.320478   5.950930   5.911684   2.310576
    26  H    6.864437   5.829908   7.328597   6.799648   3.549666
    27  H    4.907656   5.250878   6.316504   5.160818   4.250573
    28  H    2.704666   2.671977   3.996412   3.764793   2.384052
    29  H    2.567187   3.484781   4.103830   3.131581   3.617487
    30  H    5.037950   5.754828   6.219504   4.273665   4.978459
    31  H    5.848902   6.073416   6.760755   4.819076   4.627198
    32  H    4.852773   4.923038   5.190294   3.047500   3.776912
    33  H    3.929898   4.619629   4.579632   2.233876   4.268022
    34  H    5.188763   4.506382   4.903548   3.575440   3.047738
    35  H    5.162300   3.932537   4.623432   4.231254   2.439101
    36  H    3.622861   2.563329   2.494163   2.899472   2.874901
    37  H    4.211928   3.784602   3.316681   2.346154   3.733752
                   21         22         23         24         25
    21  H    0.000000
    22  H    1.769784   0.000000
    23  H    1.771106   1.767496   0.000000
    24  H    3.129160   3.752938   2.490462   0.000000
    25  H    3.728088   4.363513   3.725979   1.774083   0.000000
    26  H    2.484409   3.741240   2.976539   1.779693   1.767358
    27  H    4.479560   4.253337   5.371913   5.519754   4.514999
    28  H    5.184896   4.775434   5.289068   4.638205   3.466688
    29  H    5.757812   4.916988   5.913514   5.929073   5.026155
    30  H    4.858398   3.819528   5.415523   6.433031   5.979818
    31  H    3.242088   2.293329   3.973953   5.352233   5.236106
    32  H    3.870372   2.183719   3.427053   4.926866   5.242781
    33  H    5.286450   3.754881   5.050576   6.121509   6.015915
    34  H    3.805314   2.591506   2.422446   3.595896   4.490358
    35  H    4.351465   3.766336   2.867845   2.692469   3.697733
    36  H    6.251085   5.297846   4.995507   4.664117   4.965186
    37  H    6.063945   4.721855   4.768793   5.315138   5.846365
                   26         27         28         29         30
    26  H    0.000000
    27  H    4.748713   0.000000
    28  H    4.633329   2.678115   0.000000
    29  H    5.893515   2.519684   1.771006   0.000000
    30  H    6.058026   2.401659   3.889906   2.734888   0.000000
    31  H    4.881158   2.742862   4.273114   3.774791   1.755663
    32  H    5.296304   4.228069   4.259566   3.796807   2.952102
    33  H    6.405265   3.981470   3.913572   2.796263   2.317541
    34  H    4.655133   5.546031   4.735040   5.010620   5.007534
    35  H    4.238782   6.123353   4.709424   5.515138   6.181075
    36  H    6.049855   6.520636   4.480766   4.980620   6.363238
    37  H    6.558171   6.550219   5.075108   5.053017   5.766045
                   31         32         33         34         35
    31  H    0.000000
    32  H    2.416616   0.000000
    33  H    2.938599   1.751781   0.000000
    34  H    4.184791   2.263914   3.639095   0.000000
    35  H    5.418054   3.811971   4.917031   1.758771   0.000000
    36  H    6.245518   4.310606   4.596954   3.020770   2.383416
    37  H    5.625298   3.328093   3.687452   2.371062   2.807434
                   36         37
    36  H    0.000000
    37  H    1.754864   0.000000
 Stoichiometry    C14H22O
 Framework group  C1[X(C14H22O)]
 Deg. of freedom   105
 Full point group                 C1      NOp   1
 Largest Abelian subgroup         C1      NOp   1
 Largest concise Abelian subgroup C1      NOp   1
                         Standard orientation:                         
 ---------------------------------------------------------------------
 Center     Atomic      Atomic             Coordinates (Angstroms)
 Number     Number       Type             X           Y           Z
 ---------------------------------------------------------------------
      1          6           0       -3.064016   -0.398444   -1.392443
      2          6           0       -2.457099   -0.214116    0.006591
      3          6           0       -0.939418   -0.551572    0.095396
      4          6           0       -0.276238    0.830282   -0.176964
      5          6           0        1.279815    0.903373   -0.103001
      6          6           0        1.829622    1.283511    1.297758
      7          6           0        1.797386    1.961305   -1.100951
      8          6           0        1.909561   -0.467756   -0.482965
      9          8           0        3.053992   -0.528281   -0.895515
     10          6           0        1.084035   -1.738031   -0.282769
     11          6           0       -0.328904   -1.571855   -0.882204
     12          6           0        0.767732   -1.957059    1.223803
     13          6           0       -0.544003   -1.162322    1.473544
     14          6           0       -1.118482    1.800566    0.667072
     15          6           0       -2.565816    1.272183    0.491408
     16          1           0       -3.010003   -1.440825   -1.726588
     17          1           0       -2.557435    0.221566   -2.142423
     18          1           0       -4.120896   -0.106042   -1.389205
     19          1           0       -3.010823   -0.871091    0.689087
     20          1           0       -0.524840    1.047861   -1.227658
     21          1           0        2.923574    1.243450    1.282895
     22          1           0        1.478496    0.625723    2.096713
     23          1           0        1.533078    2.306637    1.553027
     24          1           0        1.395263    2.949488   -0.849086
     25          1           0        1.493906    1.722538   -2.126675
     26          1           0        2.888837    2.009722   -1.080135
     27          1           0        1.659067   -2.562281   -0.713074
     28          1           0       -0.321097   -1.223908   -1.921384
     29          1           0       -0.856280   -2.535434   -0.858397
     30          1           0        0.610426   -3.027426    1.396893
     31          1           0        1.594214   -1.653847    1.874171
     32          1           0       -0.439481   -0.405893    2.257221
     33          1           0       -1.337654   -1.840970    1.807140
     34          1           0       -0.820965    1.760223    1.720826
     35          1           0       -1.013707    2.843647    0.348850
     36          1           0       -3.102900    1.868638   -0.255552
     37          1           0       -3.137770    1.354090    1.421819
 ---------------------------------------------------------------------
 Rotational constants (GHZ):           0.9281861           0.5656412           0.4751896
 Standard basis: 6-31G(d) (6D, 7F)
 There are   269 symmetry adapted cartesian basis functions of A   symmetry.
 There are   269 symmetry adapted basis functions of A   symmetry.
   269 basis functions,   508 primitive gaussians,   269 cartesian basis functions
    57 alpha electrons       57 beta electrons
       nuclear repulsion energy      1126.0826632802 Hartrees.
 NAtoms=   37 NActive=   37 NUniq=   37 SFac= 1.00D+00 NAtFMM=   60 NAOKFM=F Big=F
 Integral buffers will be    131072 words long.
 Raffenetti 2 integral format.
 Two-electron integral symmetry is turned on.
 One-electron integrals computed using PRISM.
 NBasis=   269 RedAO= T EigKep=  1.86D-03  NBF=   269
 NBsUse=   269 1.00D-06 EigRej= -1.00D+00 NBFU=   269
 ExpMin= 1.61D-01 ExpMax= 5.48D+03 ExpMxC= 8.25D+02 IAcc=3 IRadAn=         5 AccDes= 0.00D+00
 Harris functional with IExCor=  402 and IRadAn=       5 diagonalized for initial guess.
 HarFok:  IExCor=  402 AccDes= 0.00D+00 IRadAn=         5 IDoV= 1 UseB2=F ITyADJ=14
 ICtDFT=  3500011 ScaDFX=  1.000000  1.000000  1.000000  1.000000
 FoFCou: FMM=F IPFlag=           0 FMFlag=      100000 FMFlg1=           0
         NFxFlg=           0 DoJE=T BraDBF=F KetDBF=T FulRan=T
         wScrn=  0.000000 ICntrl=       500 IOpCl=  0 I1Cent=   200000004 NGrid=           0
         NMat0=    1 NMatS0=      1 NMatT0=    0 NMatD0=    1 NMtDS0=    0 NMtDT0=    0
 Petite list used in FoFCou.
 Requested convergence on RMS density matrix=1.00D-08 within 128 cycles.
 Requested convergence on MAX density matrix=1.00D-06.
 Requested convergence on             energy=1.00D-06.
 No special actions if energy rises.
 Integral accuracy reduced to 1.0D-05 until final iterations.
 Initial convergence to 1.0D-05 achieved.  Increase integral accuracy.
 SCF Done:  E(RB3LYP) =  -621.964534480     A.U. after   14 cycles
            NFock= 14  Conv=0.37D-08     -V/T= 2.0097
 DoSCS=F DFT=T ScalE2(SS,OS)=  1.000000  1.000000
 Range of M.O.s used for correlation:     1   269
 NBasis=   269 NAE=    57 NBE=    57 NFC=     0 NFV=     0
 NROrb=    269 NOA=    57 NOB=    57 NVA=   212 NVB=   212
 Symmetrizing basis deriv contribution to polar:
 IMax=3 JMax=2 DiffMx= 0.00D+00
 G2DrvN: will do    38 centers at a time, making    1 passes.
 Calling FoFCou, ICntrl=  3107 FMM=F I1Cent=   0 AccDes= 0.00D+00.
 End of G2Drv F.D. properties file   721 does not exist.
 End of G2Drv F.D. properties file   722 does not exist.
 End of G2Drv F.D. properties file   788 does not exist.
          IDoAtm=1111111111111111111111111111111111111
          Differentiating once with respect to electric field.
                with respect to dipole field.
          Differentiating once with respect to nuclear coordinates.
 Keep R1 ints in memory in canonical form, NReq=670427990.
          There are   114 degrees of freedom in the 1st order CPHF.  IDoFFX=6 NUNeed=     3.
    111 vectors produced by pass  0 Test12= 1.21D-14 1.00D-09 XBig12= 9.92D+01 1.90D+00.
 AX will form   111 AO Fock derivatives at one time.
    111 vectors produced by pass  1 Test12= 1.21D-14 1.00D-09 XBig12= 1.52D+01 9.97D-01.
    111 vectors produced by pass  2 Test12= 1.21D-14 1.00D-09 XBig12= 1.09D-01 3.26D-02.
    111 vectors produced by pass  3 Test12= 1.21D-14 1.00D-09 XBig12= 3.21D-04 1.52D-03.
    111 vectors produced by pass  4 Test12= 1.21D-14 1.00D-09 XBig12= 4.14D-07 5.68D-05.
     50 vectors produced by pass  5 Test12= 1.21D-14 1.00D-09 XBig12= 3.08D-10 1.46D-06.
      3 vectors produced by pass  6 Test12= 1.21D-14 1.00D-09 XBig12= 2.17D-13 4.15D-08.
      1 vectors produced by pass  7 Test12= 1.21D-14 1.00D-09 XBig12= 1.69D-16 1.43D-09.
 InvSVY:  IOpt=1 It=  1 EMax= 1.24D-14
 Solved reduced A of dimension   609 with   114 vectors.
 Isotropic polarizability for W=    0.000000      136.17 Bohr**3.
 End of Minotr F.D. properties file   721 does not exist.
 End of Minotr F.D. properties file   722 does not exist.
 End of Minotr F.D. properties file   788 does not exist.

 **********************************************************************

            Population analysis using the SCF density.

 **********************************************************************

 Orbital symmetries:
       Occupied  (A) (A) (A) (A) (A) (A) (A) (A) (A) (A) (A) (A)
                 (A) (A) (A) (A) (A) (A) (A) (A) (A) (A) (A) (A)
                 (A) (A) (A) (A) (A) (A) (A) (A) (A) (A) (A) (A)
                 (A) (A) (A) (A) (A) (A) (A) (A) (A) (A) (A) (A)
                 (A) (A) (A) (A) (A) (A) (A) (A) (A)
       Virtual   (A) (A) (A) (A) (A) (A) (A) (A) (A) (A) (A) (A)
                 (A) (A) (A) (A) (A) (A) (A) (A) (A) (A) (A) (A)
                 (A) (A) (A) (A) (A) (A) (A) (A) (A) (A) (A) (A)
                 (A) (A) (A) (A) (A) (A) (A) (A) (A) (A) (A) (A)
                 (A) (A) (A) (A) (A) (A) (A) (A) (A) (A) (A) (A)
                 (A) (A) (A) (A) (A) (A) (A) (A) (A) (A) (A) (A)
                 (A) (A) (A) (A) (A) (A) (A) (A) (A) (A) (A) (A)
                 (A) (A) (A) (A) (A) (A) (A) (A) (A) (A) (A) (A)
                 (A) (A) (A) (A) (A) (A) (A) (A) (A) (A) (A) (A)
                 (A) (A) (A) (A) (A) (A) (A) (A) (A) (A) (A) (A)
                 (A) (A) (A) (A) (A) (A) (A) (A) (A) (A) (A) (A)
                 (A) (A) (A) (A) (A) (A) (A) (A) (A) (A) (A) (A)
                 (A) (A) (A) (A) (A) (A) (A) (A) (A) (A) (A) (A)
                 (A) (A) (A) (A) (A) (A) (A) (A) (A) (A) (A) (A)
                 (A) (A) (A) (A) (A) (A) (A) (A) (A) (A) (A) (A)
                 (A) (A) (A) (A) (A) (A) (A) (A) (A) (A) (A) (A)
                 (A) (A) (A) (A) (A) (A) (A) (A) (A) (A) (A) (A)
                 (A) (A) (A) (A) (A) (A) (A) (A)
 The electronic state is 1-A.
 Alpha  occ. eigenvalues --  -19.12979 -10.26179 -10.20169 -10.19204 -10.19020
 Alpha  occ. eigenvalues --  -10.18907 -10.18770 -10.18577 -10.18534 -10.18251
 Alpha  occ. eigenvalues --  -10.18010 -10.17978 -10.17930 -10.17574 -10.17010
 Alpha  occ. eigenvalues --   -1.02944  -0.87250  -0.81258  -0.79966  -0.73569
 Alpha  occ. eigenvalues --   -0.71993  -0.71431  -0.68288  -0.66456  -0.63960
 Alpha  occ. eigenvalues --   -0.60360  -0.58650  -0.55271  -0.53595  -0.50819
 Alpha  occ. eigenvalues --   -0.48277  -0.47519  -0.45794  -0.44889  -0.43450
 Alpha  occ. eigenvalues --   -0.43207  -0.42535  -0.41209  -0.40987  -0.39649
 Alpha  occ. eigenvalues --   -0.39549  -0.38156  -0.37626  -0.37020  -0.36681
 Alpha  occ. eigenvalues --   -0.36424  -0.34629  -0.33848  -0.33576  -0.32629
 Alpha  occ. eigenvalues --   -0.32292  -0.31718  -0.31278  -0.30643  -0.29849
 Alpha  occ. eigenvalues --   -0.29064  -0.22796
 Alpha virt. eigenvalues --   -0.01042   0.06706   0.08533   0.09359   0.09923
 Alpha virt. eigenvalues --    0.10711   0.12664   0.13465   0.14294   0.14585
 Alpha virt. eigenvalues --    0.15192   0.15540   0.16411   0.16784   0.17068
 Alpha virt. eigenvalues --    0.17509   0.18039   0.18228   0.18909   0.19367
 Alpha virt. eigenvalues --    0.19933   0.20471   0.21474   0.21887   0.22606
 Alpha virt. eigenvalues --    0.23031   0.23554   0.23941   0.25382   0.26296
 Alpha virt. eigenvalues --    0.27228   0.27447   0.28674   0.29522   0.30616
 Alpha virt. eigenvalues --    0.31847   0.33633   0.34117   0.37257   0.38655
 Alpha virt. eigenvalues --    0.48883   0.49968   0.50890   0.53021   0.53266
 Alpha virt. eigenvalues --    0.54609   0.56152   0.57452   0.58354   0.59045
 Alpha virt. eigenvalues --    0.60464   0.60489   0.61585   0.62656   0.64154
 Alpha virt. eigenvalues --    0.64694   0.65179   0.66382   0.66897   0.68015
 Alpha virt. eigenvalues --    0.68612   0.70148   0.71596   0.72585   0.74096
 Alpha virt. eigenvalues --    0.76024   0.76354   0.77876   0.79033   0.80408
 Alpha virt. eigenvalues --    0.82391   0.82606   0.83873   0.84317   0.85735
 Alpha virt. eigenvalues --    0.86506   0.86793   0.87125   0.87385   0.88662
 Alpha virt. eigenvalues --    0.89538   0.90066   0.90935   0.91770   0.91842
 Alpha virt. eigenvalues --    0.92062   0.92973   0.93885   0.93962   0.94451
 Alpha virt. eigenvalues --    0.95411   0.96297   0.97078   0.97921   0.98865
 Alpha virt. eigenvalues --    0.99531   1.00908   1.01162   1.02786   1.03248
 Alpha virt. eigenvalues --    1.05508   1.06500   1.07014   1.13540   1.14436
 Alpha virt. eigenvalues --    1.17917   1.20520   1.24835   1.27406   1.27897
 Alpha virt. eigenvalues --    1.31982   1.33541   1.36507   1.41276   1.44178
 Alpha virt. eigenvalues --    1.49517   1.52443   1.56207   1.59081   1.60505
 Alpha virt. eigenvalues --    1.61340   1.66051   1.66332   1.67257   1.70438
 Alpha virt. eigenvalues --    1.71181   1.73093   1.73786   1.76560   1.78832
 Alpha virt. eigenvalues --    1.80461   1.81641   1.83065   1.83355   1.83818
 Alpha virt. eigenvalues --    1.84790   1.87058   1.89000   1.89459   1.90004
 Alpha virt. eigenvalues --    1.92969   1.93872   1.95245   1.96550   1.97714
 Alpha virt. eigenvalues --    1.98655   1.99602   2.03216   2.05165   2.06626
 Alpha virt. eigenvalues --    2.06796   2.08965   2.09071   2.10936   2.11750
 Alpha virt. eigenvalues --    2.13263   2.15639   2.16948   2.18055   2.20187
 Alpha virt. eigenvalues --    2.20632   2.22211   2.24468   2.27104   2.28574
 Alpha virt. eigenvalues --    2.28878   2.29431   2.31753   2.34745   2.36365
 Alpha virt. eigenvalues --    2.38999   2.40981   2.41427   2.42573   2.44254
 Alpha virt. eigenvalues --    2.44862   2.48241   2.51093   2.54355   2.54565
 Alpha virt. eigenvalues --    2.58758   2.59095   2.62714   2.65423   2.67336
 Alpha virt. eigenvalues --    2.70397   2.71603   2.72718   2.73394   2.75907
 Alpha virt. eigenvalues --    2.79351   2.85725   2.87320   2.90376   2.96924
 Alpha virt. eigenvalues --    3.02167   3.05234   4.10231   4.14285   4.20728
 Alpha virt. eigenvalues --    4.23559   4.27752   4.32487   4.34037   4.35900
 Alpha virt. eigenvalues --    4.48050   4.48956   4.62225   4.67809   4.77753
 Alpha virt. eigenvalues --    4.83731   4.88148
          Condensed to atoms (all electrons):
               1          2          3          4          5          6
     1  C    5.117628   0.368696  -0.036184  -0.004355   0.000065  -0.000002
     2  C    0.368696   4.963506   0.388615  -0.050658   0.004575  -0.000066
     3  C   -0.036184   0.388615   4.875153   0.380675  -0.027441  -0.001922
     4  C   -0.004355  -0.050658   0.380675   5.112865   0.313323  -0.042210
     5  C    0.000065   0.004575  -0.027441   0.313323   5.121481   0.366335
     6  C   -0.000002  -0.000066  -0.001922  -0.042210   0.366335   5.158430
     7  C   -0.000004  -0.000169   0.003764  -0.047461   0.355853  -0.054744
     8  C   -0.000024   0.000478  -0.016197  -0.026146   0.298631  -0.039444
     9  O    0.000000   0.000001   0.000172   0.003273  -0.084250  -0.005267
    10  C    0.000261   0.004094  -0.020680  -0.002840  -0.119273   0.000499
    11  C   -0.009389  -0.038534   0.362730  -0.053200  -0.000855   0.000033
    12  C   -0.000206   0.005277  -0.059060  -0.005999   0.007390  -0.001421
    13  C    0.004663  -0.044112   0.384547  -0.052202  -0.000774  -0.001764
    14  C    0.001106  -0.067340  -0.047828   0.360079  -0.025647  -0.010533
    15  C   -0.038837   0.361449  -0.060276  -0.064473   0.004089   0.000271
    16  H    0.368584  -0.029144  -0.006128   0.000223  -0.000007   0.000000
    17  H    0.372095  -0.035097  -0.004937   0.000867  -0.000096   0.000001
    18  H    0.367253  -0.026783   0.004291  -0.000007   0.000001   0.000000
    19  H   -0.048245   0.368700  -0.040990   0.005581  -0.000157   0.000001
    20  H    0.001369  -0.006148  -0.050907   0.365613  -0.045994   0.005701
    21  H   -0.000000   0.000003  -0.000035   0.005349  -0.033341   0.364695
    22  H   -0.000000  -0.000040   0.000296  -0.002970  -0.030004   0.363736
    23  H   -0.000000   0.000003   0.000001  -0.006747  -0.028489   0.368221
    24  H    0.000000   0.000001   0.000074  -0.004212  -0.031214  -0.006239
    25  H   -0.000004  -0.000004   0.000031  -0.006085  -0.030477   0.005479
    26  H   -0.000000   0.000002  -0.000136   0.005103  -0.028086  -0.003599
    27  H    0.000005  -0.000158   0.004006  -0.000027   0.006734  -0.000154
    28  H    0.002167  -0.002711  -0.029698  -0.007870   0.001352   0.000029
    29  H   -0.000768  -0.004139  -0.033360   0.005612  -0.000386  -0.000001
    30  H    0.000003  -0.000178   0.000337   0.000056  -0.000359   0.000124
    31  H    0.000002  -0.000061   0.002759   0.000269  -0.000087   0.000763
    32  H   -0.000105   0.000660  -0.032560  -0.008040  -0.000742  -0.000980
    33  H    0.000227  -0.008056  -0.033579   0.005451  -0.000109   0.000112
    34  H   -0.000072  -0.000349  -0.005218  -0.036106  -0.008624   0.004719
    35  H   -0.000076   0.004497   0.005345  -0.027256   0.000334  -0.000779
    36  H   -0.010319  -0.038554   0.001532   0.000747  -0.000120   0.000002
    37  H    0.003832  -0.025779   0.002646   0.003713  -0.000086  -0.000007
               7          8          9         10         11         12
     1  C   -0.000004  -0.000024   0.000000   0.000261  -0.009389  -0.000206
     2  C   -0.000169   0.000478   0.000001   0.004094  -0.038534   0.005277
     3  C    0.003764  -0.016197   0.000172  -0.020680   0.362730  -0.059060
     4  C   -0.047461  -0.026146   0.003273  -0.002840  -0.053200  -0.005999
     5  C    0.355853   0.298631  -0.084250  -0.119273  -0.000855   0.007390
     6  C   -0.054744  -0.039444  -0.005267   0.000499   0.000033  -0.001421
     7  C    5.146108  -0.036027  -0.002912   0.005856  -0.000330  -0.000013
     8  C   -0.036027   4.573804   0.537304   0.362459  -0.032311  -0.033198
     9  O   -0.002912   0.537304   8.064370  -0.068306   0.001713  -0.000415
    10  C    0.005856   0.362459  -0.068306   5.187323   0.320921   0.350435
    11  C   -0.000330  -0.032311   0.001713   0.320921   5.192919  -0.069345
    12  C   -0.000013  -0.033198  -0.000415   0.350435  -0.069345   5.114728
    13  C   -0.000076  -0.007899  -0.000051  -0.060794  -0.088079   0.338923
    14  C   -0.000866   0.001844  -0.000048   0.000109   0.006684  -0.000029
    15  C   -0.000100  -0.000104   0.000000  -0.000133   0.005033  -0.000214
    16  H    0.000000  -0.000005  -0.000000   0.000040   0.002619  -0.000017
    17  H   -0.000001   0.000002  -0.000000  -0.000019  -0.000606   0.000002
    18  H   -0.000000   0.000000  -0.000000  -0.000005   0.000307   0.000004
    19  H    0.000002  -0.000005  -0.000000  -0.000033   0.001460   0.000216
    20  H   -0.009670  -0.001583  -0.000056  -0.000456  -0.007888  -0.000010
    21  H   -0.005081  -0.003092   0.006017   0.000698  -0.000014  -0.000245
    22  H    0.005486  -0.002877   0.000033   0.000344   0.000073  -0.000101
    23  H   -0.006458   0.003993  -0.000021  -0.000201  -0.000001   0.000051
    24  H    0.363280   0.004907   0.000418  -0.000111  -0.000022   0.000002
    25  H    0.368236  -0.003515   0.000643   0.000143  -0.000015   0.000006
    26  H    0.365797  -0.008116   0.011109   0.000332  -0.000022  -0.000014
    27  H   -0.000182  -0.031240   0.004165   0.344313  -0.030664  -0.032407
    28  H   -0.000220  -0.002975   0.000289  -0.035318   0.364782   0.005786
    29  H    0.000026   0.003871  -0.000067  -0.029737   0.359150  -0.003798
    30  H    0.000002   0.003732  -0.000089  -0.028876  -0.000068   0.366349
    31  H   -0.000021  -0.003872   0.000927  -0.037902   0.005664   0.369522
    32  H   -0.000023   0.000859   0.000003   0.002498   0.006537  -0.031932
    33  H    0.000002   0.000073   0.000001   0.001559  -0.000180  -0.029671
    34  H    0.000054   0.000007  -0.000001  -0.000012   0.000065   0.000015
    35  H    0.000763   0.000010   0.000001  -0.000003  -0.000210  -0.000005
    36  H    0.000006   0.000002  -0.000000   0.000002  -0.000099   0.000003
    37  H    0.000000   0.000002  -0.000000   0.000001  -0.000106   0.000004
              13         14         15         16         17         18
     1  C    0.004663   0.001106  -0.038837   0.368584   0.372095   0.367253
     2  C   -0.044112  -0.067340   0.361449  -0.029144  -0.035097  -0.026783
     3  C    0.384547  -0.047828  -0.060276  -0.006128  -0.004937   0.004291
     4  C   -0.052202   0.360079  -0.064473   0.000223   0.000867  -0.000007
     5  C   -0.000774  -0.025647   0.004089  -0.000007  -0.000096   0.000001
     6  C   -0.001764  -0.010533   0.000271   0.000000   0.000001   0.000000
     7  C   -0.000076  -0.000866  -0.000100   0.000000  -0.000001  -0.000000
     8  C   -0.007899   0.001844  -0.000104  -0.000005   0.000002   0.000000
     9  O   -0.000051  -0.000048   0.000000  -0.000000  -0.000000  -0.000000
    10  C   -0.060794   0.000109  -0.000133   0.000040  -0.000019  -0.000005
    11  C   -0.088079   0.006684   0.005033   0.002619  -0.000606   0.000307
    12  C    0.338923  -0.000029  -0.000214  -0.000017   0.000002   0.000004
    13  C    5.159368  -0.006777   0.000090   0.000112   0.000020  -0.000128
    14  C   -0.006777   5.072957   0.362251  -0.000168   0.000763   0.000024
    15  C    0.000090   0.362251   5.092267   0.004908  -0.005374  -0.005350
    16  H    0.000112  -0.000168   0.004908   0.578194  -0.031252  -0.031483
    17  H    0.000020   0.000763  -0.005374  -0.031252   0.577952  -0.031676
    18  H   -0.000128   0.000024  -0.005350  -0.031483  -0.031676   0.580112
    19  H   -0.011305   0.004332  -0.040164  -0.002925   0.005693  -0.003374
    20  H    0.006823  -0.049477  -0.000229   0.000126   0.004656  -0.000183
    21  H    0.000017   0.000249  -0.000002   0.000000  -0.000000   0.000000
    22  H    0.000294  -0.000890  -0.000053  -0.000000   0.000000   0.000000
    23  H    0.000063   0.002827  -0.000007   0.000000  -0.000000   0.000000
    24  H   -0.000003   0.001233  -0.000059   0.000000   0.000000   0.000000
    25  H    0.000007  -0.000070  -0.000003   0.000000  -0.000003  -0.000000
    26  H    0.000006  -0.000125   0.000003   0.000000  -0.000000   0.000000
    27  H    0.005834   0.000013   0.000003   0.000001   0.000001  -0.000000
    28  H    0.006649   0.000247  -0.000021  -0.000062   0.000466  -0.000004
    29  H   -0.002652  -0.000239  -0.000038   0.002160   0.000188  -0.000066
    30  H   -0.028067  -0.000007   0.000003   0.000000   0.000000  -0.000000
    31  H   -0.032077   0.000021   0.000003   0.000000  -0.000000  -0.000000
    32  H    0.363801   0.002144   0.000895  -0.000003   0.000000   0.000004
    33  H    0.360911  -0.000031  -0.000339   0.000018   0.000007  -0.000021
    34  H    0.001494   0.370687  -0.032824   0.000007   0.000003  -0.000000
    35  H    0.000180   0.364896  -0.030563   0.000004  -0.000091  -0.000002
    36  H   -0.000094  -0.030868   0.370645   0.000298   0.003265   0.002917
    37  H    0.000488  -0.028575   0.363624  -0.000206  -0.000025   0.000270
              19         20         21         22         23         24
     1  C   -0.048245   0.001369  -0.000000  -0.000000  -0.000000   0.000000
     2  C    0.368700  -0.006148   0.000003  -0.000040   0.000003   0.000001
     3  C   -0.040990  -0.050907  -0.000035   0.000296   0.000001   0.000074
     4  C    0.005581   0.365613   0.005349  -0.002970  -0.006747  -0.004212
     5  C   -0.000157  -0.045994  -0.033341  -0.030004  -0.028489  -0.031214
     6  C    0.000001   0.005701   0.364695   0.363736   0.368221  -0.006239
     7  C    0.000002  -0.009670  -0.005081   0.005486  -0.006458   0.363280
     8  C   -0.000005  -0.001583  -0.003092  -0.002877   0.003993   0.004907
     9  O   -0.000000  -0.000056   0.006017   0.000033  -0.000021   0.000418
    10  C   -0.000033  -0.000456   0.000698   0.000344  -0.000201  -0.000111
    11  C    0.001460  -0.007888  -0.000014   0.000073  -0.000001  -0.000022
    12  C    0.000216  -0.000010  -0.000245  -0.000101   0.000051   0.000002
    13  C   -0.011305   0.006823   0.000017   0.000294   0.000063  -0.000003
    14  C    0.004332  -0.049477   0.000249  -0.000890   0.002827   0.001233
    15  C   -0.040164  -0.000229  -0.000002  -0.000053  -0.000007  -0.000059
    16  H   -0.002925   0.000126   0.000000  -0.000000   0.000000   0.000000
    17  H    0.005693   0.004656  -0.000000   0.000000  -0.000000   0.000000
    18  H   -0.003374  -0.000183   0.000000   0.000000   0.000000   0.000000
    19  H    0.636063   0.000036  -0.000000   0.000004  -0.000000  -0.000000
    20  H    0.000036   0.651325  -0.000160  -0.000114   0.000023  -0.000185
    21  H   -0.000000  -0.000160   0.553747  -0.028506  -0.028777  -0.000157
    22  H    0.000004  -0.000114  -0.028506   0.568984  -0.030390  -0.000004
    23  H   -0.000000   0.000023  -0.028777  -0.030390   0.569324   0.004275
    24  H   -0.000000  -0.000185  -0.000157  -0.000004   0.004275   0.589815
    25  H    0.000000   0.006991  -0.000046  -0.000195   0.000032  -0.031414
    26  H   -0.000000   0.000297   0.004776   0.000012  -0.000396  -0.029243
    27  H    0.000003  -0.000019  -0.000024  -0.000019   0.000005   0.000003
    28  H   -0.000163   0.005509  -0.000003  -0.000008   0.000000   0.000002
    29  H    0.001188   0.000099   0.000000   0.000004  -0.000000  -0.000000
    30  H   -0.000021   0.000009   0.000003   0.000049  -0.000003  -0.000000
    31  H   -0.000005  -0.000002  -0.000070   0.002545   0.000065   0.000000
    32  H    0.000304   0.000117   0.000047   0.003823  -0.000150  -0.000001
    33  H    0.008617  -0.000194  -0.000003   0.000030  -0.000003   0.000000
    34  H   -0.000008   0.006197  -0.000027   0.000183   0.000789  -0.000021
    35  H   -0.000109  -0.006597  -0.000018   0.000095   0.000498   0.001816
    36  H    0.004346   0.001220   0.000000  -0.000000  -0.000001  -0.000003
    37  H   -0.007818  -0.000045  -0.000000   0.000002   0.000004   0.000001
              25         26         27         28         29         30
     1  C   -0.000004  -0.000000   0.000005   0.002167  -0.000768   0.000003
     2  C   -0.000004   0.000002  -0.000158  -0.002711  -0.004139  -0.000178
     3  C    0.000031  -0.000136   0.004006  -0.029698  -0.033360   0.000337
     4  C   -0.006085   0.005103  -0.000027  -0.007870   0.005612   0.000056
     5  C   -0.030477  -0.028086   0.006734   0.001352  -0.000386  -0.000359
     6  C    0.005479  -0.003599  -0.000154   0.000029  -0.000001   0.000124
     7  C    0.368236   0.365797  -0.000182  -0.000220   0.000026   0.000002
     8  C   -0.003515  -0.008116  -0.031240  -0.002975   0.003871   0.003732
     9  O    0.000643   0.011109   0.004165   0.000289  -0.000067  -0.000089
    10  C    0.000143   0.000332   0.344313  -0.035318  -0.029737  -0.028876
    11  C   -0.000015  -0.000022  -0.030664   0.364782   0.359150  -0.000068
    12  C    0.000006  -0.000014  -0.032407   0.005786  -0.003798   0.366349
    13  C    0.000007   0.000006   0.005834   0.006649  -0.002652  -0.028067
    14  C   -0.000070  -0.000125   0.000013   0.000247  -0.000239  -0.000007
    15  C   -0.000003   0.000003   0.000003  -0.000021  -0.000038   0.000003
    16  H    0.000000   0.000000   0.000001  -0.000062   0.002160   0.000000
    17  H   -0.000003  -0.000000   0.000001   0.000466   0.000188   0.000000
    18  H   -0.000000   0.000000  -0.000000  -0.000004  -0.000066  -0.000000
    19  H    0.000000  -0.000000   0.000003  -0.000163   0.001188  -0.000021
    20  H    0.006991   0.000297  -0.000019   0.005509   0.000099   0.000009
    21  H   -0.000046   0.004776  -0.000024  -0.000003   0.000000   0.000003
    22  H   -0.000195   0.000012  -0.000019  -0.000008   0.000004   0.000049
    23  H    0.000032  -0.000396   0.000005   0.000000  -0.000000  -0.000003
    24  H   -0.031414  -0.029243   0.000003   0.000002  -0.000000  -0.000000
    25  H    0.575854  -0.026697  -0.000010   0.000193   0.000000   0.000000
    26  H   -0.026697   0.540941  -0.000010  -0.000004   0.000000   0.000000
    27  H   -0.000010  -0.000010   0.597179   0.000694  -0.004670  -0.006593
    28  H    0.000193  -0.000004   0.000694   0.585953  -0.035921  -0.000119
    29  H    0.000000   0.000000  -0.004670  -0.035921   0.602476   0.002710
    30  H    0.000000   0.000000  -0.006593  -0.000119   0.002710   0.583725
    31  H   -0.000001  -0.000005   0.001896  -0.000159  -0.000070  -0.034755
    32  H   -0.000001   0.000001  -0.000095  -0.000186  -0.000078   0.003813
    33  H   -0.000000  -0.000000  -0.000206  -0.000142   0.001894  -0.009705
    34  H    0.000002   0.000004  -0.000000   0.000002   0.000004   0.000003
    35  H   -0.000006  -0.000038  -0.000000  -0.000006   0.000003   0.000000
    36  H   -0.000001  -0.000000  -0.000000  -0.000006   0.000002  -0.000000
    37  H    0.000000  -0.000000  -0.000000  -0.000000  -0.000002  -0.000000
              31         32         33         34         35         36
     1  C    0.000002  -0.000105   0.000227  -0.000072  -0.000076  -0.010319
     2  C   -0.000061   0.000660  -0.008056  -0.000349   0.004497  -0.038554
     3  C    0.002759  -0.032560  -0.033579  -0.005218   0.005345   0.001532
     4  C    0.000269  -0.008040   0.005451  -0.036106  -0.027256   0.000747
     5  C   -0.000087  -0.000742  -0.000109  -0.008624   0.000334  -0.000120
     6  C    0.000763  -0.000980   0.000112   0.004719  -0.000779   0.000002
     7  C   -0.000021  -0.000023   0.000002   0.000054   0.000763   0.000006
     8  C   -0.003872   0.000859   0.000073   0.000007   0.000010   0.000002
     9  O    0.000927   0.000003   0.000001  -0.000001   0.000001  -0.000000
    10  C   -0.037902   0.002498   0.001559  -0.000012  -0.000003   0.000002
    11  C    0.005664   0.006537  -0.000180   0.000065  -0.000210  -0.000099
    12  C    0.369522  -0.031932  -0.029671   0.000015  -0.000005   0.000003
    13  C   -0.032077   0.363801   0.360911   0.001494   0.000180  -0.000094
    14  C    0.000021   0.002144  -0.000031   0.370687   0.364896  -0.030868
    15  C    0.000003   0.000895  -0.000339  -0.032824  -0.030563   0.370645
    16  H    0.000000  -0.000003   0.000018   0.000007   0.000004   0.000298
    17  H   -0.000000   0.000000   0.000007   0.000003  -0.000091   0.003265
    18  H   -0.000000   0.000004  -0.000021  -0.000000  -0.000002   0.002917
    19  H   -0.000005   0.000304   0.008617  -0.000008  -0.000109   0.004346
    20  H   -0.000002   0.000117  -0.000194   0.006197  -0.006597   0.001220
    21  H   -0.000070   0.000047  -0.000003  -0.000027  -0.000018   0.000000
    22  H    0.002545   0.003823   0.000030   0.000183   0.000095  -0.000000
    23  H    0.000065  -0.000150  -0.000003   0.000789   0.000498  -0.000001
    24  H    0.000000  -0.000001   0.000000  -0.000021   0.001816  -0.000003
    25  H   -0.000001  -0.000001  -0.000000   0.000002  -0.000006  -0.000001
    26  H   -0.000005   0.000001  -0.000000   0.000004  -0.000038  -0.000000
    27  H    0.001896  -0.000095  -0.000206  -0.000000  -0.000000  -0.000000
    28  H   -0.000159  -0.000186  -0.000142   0.000002  -0.000006  -0.000006
    29  H   -0.000070  -0.000078   0.001894   0.000004   0.000003   0.000002
    30  H   -0.034755   0.003813  -0.009705   0.000003   0.000000  -0.000000
    31  H    0.578917  -0.008332   0.003746  -0.000018  -0.000000  -0.000000
    32  H   -0.008332   0.587085  -0.036239   0.004862  -0.000192   0.000030
    33  H    0.003746  -0.036239   0.598951  -0.000182   0.000003  -0.000002
    34  H   -0.000018   0.004862  -0.000182   0.598811  -0.038317   0.004581
    35  H   -0.000000  -0.000192   0.000003  -0.038317   0.594784  -0.007814
    36  H   -0.000000   0.000030  -0.000002   0.004581  -0.007814   0.596989
    37  H    0.000000  -0.000158  -0.000020  -0.008808   0.002938  -0.037150
              37
     1  C    0.003832
     2  C   -0.025779
     3  C    0.002646
     4  C    0.003713
     5  C   -0.000086
     6  C   -0.000007
     7  C    0.000000
     8  C    0.000002
     9  O   -0.000000
    10  C    0.000001
    11  C   -0.000106
    12  C    0.000004
    13  C    0.000488
    14  C   -0.028575
    15  C    0.363624
    16  H   -0.000206
    17  H   -0.000025
    18  H    0.000270
    19  H   -0.007818
    20  H   -0.000045
    21  H   -0.000000
    22  H    0.000002
    23  H    0.000004
    24  H    0.000001
    25  H    0.000000
    26  H   -0.000000
    27  H   -0.000000
    28  H   -0.000000
    29  H   -0.000002
    30  H   -0.000000
    31  H    0.000000
    32  H   -0.000158
    33  H   -0.000020
    34  H   -0.008808
    35  H    0.002938
    36  H   -0.037150
    37  H    0.594965
 Mulliken charges:
               1
     1  C   -0.459366
     2  C   -0.092476
     3  C    0.090161
     4  C   -0.119934
     5  C    0.016457
     6  C   -0.470021
     7  C   -0.450876
     8  C    0.456653
     9  O   -0.468954
    10  C   -0.177187
    11  C   -0.298754
    12  C   -0.290613
    13  C   -0.297434
    14  C   -0.282947
    15  C   -0.286371
    16  H    0.144102
    17  H    0.143198
    18  H    0.143898
    19  H    0.118778
    20  H    0.123807
    21  H    0.164001
    22  H    0.150177
    23  H    0.151471
    24  H    0.137060
    25  H    0.140928
    26  H    0.168110
    27  H    0.141624
    28  H    0.141476
    29  H    0.136605
    30  H    0.147924
    31  H    0.150339
    32  H    0.142336
    33  H    0.137082
    34  H    0.138100
    35  H    0.135914
    36  H    0.138442
    37  H    0.136293
 Sum of Mulliken charges =  -0.00000
 Mulliken charges with hydrogens summed into heavy atoms:
               1
     1  C   -0.028168
     2  C    0.026302
     3  C    0.090161
     4  C    0.003873
     5  C    0.016457
     6  C   -0.004373
     7  C   -0.004777
     8  C    0.456653
     9  O   -0.468954
    10  C   -0.035563
    11  C   -0.020674
    12  C    0.007650
    13  C   -0.018016
    14  C   -0.008934
    15  C   -0.011636
 APT charges:
               1
     1  C    0.060562
     2  C    0.117458
     3  C    0.041927
     4  C    0.059831
     5  C   -0.019240
     6  C    0.036064
     7  C    0.047488
     8  C    0.676802
     9  O   -0.654137
    10  C   -0.040640
    11  C    0.071783
    12  C    0.093118
    13  C    0.048320
    14  C    0.068571
    15  C    0.086908
    16  H   -0.022726
    17  H   -0.015392
    18  H   -0.034069
    19  H   -0.076249
    20  H   -0.057190
    21  H   -0.002203
    22  H   -0.011318
    23  H   -0.012777
    24  H   -0.019313
    25  H   -0.021135
    26  H    0.006337
    27  H   -0.046191
    28  H   -0.022922
    29  H   -0.047023
    30  H   -0.045592
    31  H   -0.026462
    32  H   -0.023193
    33  H   -0.044803
    34  H   -0.033245
    35  H   -0.040377
    36  H   -0.045162
    37  H   -0.053808
 Sum of APT charges =   0.00000
 APT charges with hydrogens summed into heavy atoms:
               1
     1  C   -0.011625
     2  C    0.041209
     3  C    0.041927
     4  C    0.002642
     5  C   -0.019240
     6  C    0.009766
     7  C    0.013376
     8  C    0.676802
     9  O   -0.654137
    10  C   -0.086831
    11  C    0.001838
    12  C    0.021063
    13  C   -0.019677
    14  C   -0.005051
    15  C   -0.012063
 Electronic spatial extent (au):  <R**2>=           2838.8620
 Charge=             -0.0000 electrons
 Dipole moment (field-independent basis, Debye):
    X=             -2.7531    Y=              0.1422    Z=              1.1434  Tot=              2.9844
 Quadrupole moment (field-independent basis, Debye-Ang):
   XX=           -103.7568   YY=            -90.3966   ZZ=            -92.8679
   XY=              2.2954   XZ=              4.1557   YZ=             -0.8546
 Traceless Quadrupole moment (field-independent basis, Debye-Ang):
   XX=             -8.0830   YY=              5.2772   ZZ=              2.8059
   XY=              2.2954   XZ=              4.1557   YZ=             -0.8546
 Octapole moment (field-independent basis, Debye-Ang**2):
  XXX=            -29.4237  YYY=             -7.5690  ZZZ=             -2.4635  XYY=              3.8623
  XXY=              7.5486  XXZ=             15.2378  XZZ=              1.1270  YZZ=             -0.0257
  YYZ=             -0.3247  XYZ=             -1.3626
 Hexadecapole moment (field-independent basis, Debye-Ang**3):
 XXXX=          -2133.2071 YYYY=          -1120.2093 ZZZZ=           -668.0175 XXXY=             25.1888
 XXXZ=             36.0173 YYYX=             -6.1505 YYYZ=              1.5099 ZZZX=            -12.9251
 ZZZY=              1.9808 XXYY=           -527.2259 XXZZ=           -460.2349 YYZZ=           -305.2203
 XXYZ=            -10.5781 YYXZ=             -0.7697 ZZXY=             -2.7611
 N-N= 1.126082663280D+03 E-N=-3.693438068567D+03  KE= 6.159626392904D+02
  Exact polarizability: 149.721   0.341 136.929  -1.251   0.051 121.858
 Approx polarizability: 207.099   0.261 194.820  -7.287  -0.273 189.957
 Calling FoFJK, ICntrl=    100127 FMM=F ISym2X=0 I1Cent= 0 IOpClX= 0 NMat=1 NMatS=1 NMatT=0.
 Full mass-weighted force constant matrix:
 Low frequencies ---   -4.4609   -0.0008   -0.0003    0.0004    8.9870   10.6265
 Low frequencies ---   39.4020   69.6937  134.7340
 Diagonal vibrational polarizability:
        4.3942168       5.6024761      18.1370021
 Harmonic frequencies (cm**-1), IR intensities (KM/Mole), Raman scattering
 activities (A**4/AMU), depolarization ratios for plane and unpolarized
 incident light, reduced masses (AMU), force constants (mDyne/A),
 and normal coordinates:
                      1                      2                      3
                      A                      A                      A
 Frequencies --     39.4002                69.6922               134.7330
 Red. masses --      2.3143                 5.8675                 2.4474
 Frc consts  --      0.0021                 0.0168                 0.0262
 IR Inten    --      0.0134                 3.0713                 0.0778
  Atom  AN      X      Y      Z        X      Y      Z        X      Y      Z
     1   6     0.09   0.18  -0.10    -0.10   0.00   0.09     0.08   0.02  -0.08
     2   6     0.01  -0.03  -0.04    -0.02   0.01   0.05     0.00   0.02  -0.05
     3   6    -0.00  -0.02  -0.01    -0.01   0.01  -0.03    -0.01  -0.01   0.02
     4   6    -0.02  -0.01  -0.02    -0.02   0.02  -0.00    -0.00   0.00   0.10
     5   6    -0.02  -0.00  -0.03    -0.02   0.01  -0.05     0.00   0.00   0.00
     6   6    -0.01   0.04  -0.05     0.01   0.13  -0.10     0.07   0.07  -0.05
     7   6    -0.03  -0.03  -0.07    -0.04  -0.08  -0.17    -0.09  -0.04  -0.10
     8   6    -0.00  -0.01   0.01     0.03  -0.00   0.07    -0.00   0.00   0.01
     9   8    -0.00  -0.01   0.02     0.15  -0.02   0.42    -0.03   0.00  -0.05
    10   6     0.01  -0.01   0.04    -0.03   0.01  -0.13     0.01   0.00   0.05
    11   6     0.01  -0.03   0.02    -0.03   0.06  -0.10     0.02   0.01   0.01
    12   6    -0.01   0.02   0.04    -0.01  -0.09  -0.14    -0.02  -0.00   0.04
    13   6    -0.01   0.02   0.01     0.04  -0.05  -0.06    -0.05  -0.05   0.01
    14   6    -0.02  -0.01  -0.01     0.01  -0.02   0.07     0.01  -0.08   0.20
    15   6    -0.02  -0.11   0.18     0.01   0.01   0.05     0.01   0.03  -0.07
    16   1     0.14   0.23  -0.27    -0.12  -0.00   0.09     0.04   0.01  -0.06
    17   1     0.11   0.31   0.02    -0.14  -0.00   0.05     0.16  -0.02  -0.06
    18   1     0.08   0.15  -0.11    -0.10   0.00   0.15     0.10   0.08  -0.16
    19   1    -0.03  -0.14  -0.17     0.02   0.01   0.08    -0.05   0.04  -0.07
    20   1    -0.02  -0.02  -0.02    -0.07   0.06   0.02    -0.06   0.09   0.13
    21   1    -0.01   0.03  -0.05     0.01   0.18  -0.14     0.07   0.11  -0.10
    22   1    -0.01   0.07  -0.02     0.07   0.16  -0.06     0.13   0.08  -0.01
    23   1     0.00   0.05  -0.08    -0.03   0.13  -0.15     0.05   0.07  -0.07
    24   1    -0.04  -0.03  -0.10    -0.02  -0.05  -0.25    -0.12  -0.04  -0.14
    25   1    -0.03  -0.07  -0.06    -0.09  -0.17  -0.14    -0.14  -0.12  -0.06
    26   1    -0.03  -0.02  -0.07    -0.04  -0.09  -0.21    -0.09   0.01  -0.17
    27   1     0.02  -0.02   0.07    -0.03   0.03  -0.18     0.01  -0.00   0.06
    28   1     0.03  -0.05   0.01    -0.04   0.13  -0.08     0.06   0.04   0.02
    29   1     0.02  -0.03   0.03    -0.04   0.06  -0.15     0.02   0.02  -0.03
    30   1     0.00   0.03   0.07    -0.05  -0.09  -0.21     0.03  -0.01   0.05
    31   1    -0.02   0.05   0.04     0.02  -0.16  -0.14    -0.05   0.04   0.06
    32   1    -0.02   0.04  -0.01     0.10  -0.07  -0.05    -0.10  -0.08   0.05
    33   1    -0.01   0.02   0.02     0.03  -0.02  -0.04    -0.05  -0.08  -0.05
    34   1     0.09   0.09  -0.04     0.02  -0.09   0.06    -0.10  -0.31   0.23
    35   1    -0.11  -0.03  -0.10     0.02   0.00   0.13     0.11  -0.03   0.42
    36   1    -0.23  -0.05   0.39     0.03   0.02   0.04     0.23   0.07  -0.20
    37   1     0.18  -0.29   0.32    -0.01   0.03   0.04    -0.19   0.10  -0.20
                      4                      5                      6
                      A                      A                      A
 Frequencies --    188.0132               215.8476               219.8453
 Red. masses --      1.8269                 2.5415                 1.5941
 Frc consts  --      0.0380                 0.0698                 0.0454
 IR Inten    --      0.0970                 0.7940                 0.0334
  Atom  AN      X      Y      Z        X      Y      Z        X      Y      Z
     1   6     0.12  -0.04  -0.04    -0.10  -0.05   0.03    -0.08  -0.02  -0.01
     2   6     0.02  -0.01   0.01     0.02  -0.03  -0.02    -0.02  -0.02  -0.03
     3   6     0.01   0.02   0.05     0.03   0.03  -0.06    -0.01   0.01  -0.05
     4   6    -0.01   0.02   0.02     0.02   0.05  -0.00    -0.01   0.02  -0.01
     5   6    -0.01   0.02   0.01     0.04   0.03   0.03     0.01   0.01  -0.03
     6   6     0.06  -0.01  -0.01    -0.01   0.12   0.03     0.07  -0.06  -0.03
     7   6    -0.03   0.02   0.00     0.12  -0.07  -0.03     0.04   0.04   0.01
     8   6    -0.03   0.00   0.01     0.02  -0.00   0.06     0.01  -0.00  -0.02
     9   8    -0.03  -0.01   0.01    -0.04  -0.00  -0.10     0.03  -0.03   0.03
    10   6    -0.03  -0.01  -0.02     0.03  -0.01   0.07     0.01   0.01   0.03
    11   6    -0.03   0.02   0.02     0.08   0.06  -0.06     0.02  -0.00  -0.01
    12   6    -0.05  -0.12  -0.04    -0.12  -0.09   0.01    -0.01   0.09   0.04
    13   6     0.08   0.07   0.06    -0.02   0.06  -0.03    -0.03   0.06  -0.02
    14   6    -0.05   0.04  -0.02    -0.02  -0.01   0.05    -0.02  -0.04   0.05
    15   6    -0.04  -0.01  -0.02    -0.01  -0.06   0.04    -0.02  -0.04   0.01
    16   1     0.17  -0.05  -0.02     0.02  -0.03  -0.02    -0.03  -0.00  -0.05
    17   1     0.18  -0.05  -0.01    -0.27   0.06   0.00    -0.18   0.05  -0.02
    18   1     0.12  -0.06  -0.13    -0.14  -0.21   0.17    -0.10  -0.10   0.07
    19   1    -0.01  -0.02  -0.02     0.09  -0.07  -0.00     0.02  -0.05  -0.03
    20   1    -0.01  -0.00   0.01     0.03   0.10   0.00    -0.02   0.07   0.00
    21   1     0.07   0.20  -0.15    -0.01   0.19   0.05     0.07   0.05  -0.13
    22   1     0.30  -0.17  -0.04     0.02   0.13   0.05     0.21  -0.18  -0.07
    23   1    -0.11  -0.10   0.13    -0.09   0.11  -0.03    -0.02  -0.12   0.09
    24   1     0.10   0.05   0.11     0.06  -0.05  -0.20     0.41   0.11   0.30
    25   1    -0.19   0.12   0.03     0.26  -0.21  -0.04    -0.32   0.32   0.05
    26   1    -0.03  -0.09  -0.13     0.12  -0.04   0.09     0.06  -0.31  -0.27
    27   1    -0.03   0.01  -0.06     0.05   0.00   0.07     0.01  -0.01   0.08
    28   1    -0.05   0.04   0.03     0.19   0.12  -0.04     0.05  -0.02  -0.02
    29   1    -0.05   0.04   0.03     0.06   0.07  -0.16     0.02  -0.00  -0.01
    30   1    -0.25  -0.12  -0.19    -0.29  -0.09  -0.11     0.01   0.09   0.09
    31   1     0.00  -0.36  -0.00    -0.13  -0.27   0.12    -0.02   0.14   0.03
    32   1     0.29   0.13  -0.03     0.07   0.10  -0.08    -0.06   0.09  -0.04
    33   1     0.03   0.22   0.23    -0.09   0.17   0.03    -0.02   0.06  -0.01
    34   1    -0.06   0.09  -0.02    -0.01  -0.04   0.04    -0.02  -0.11   0.05
    35   1    -0.07   0.03  -0.07    -0.07   0.00   0.09    -0.03  -0.02   0.13
    36   1    -0.06  -0.04  -0.02    -0.05  -0.04   0.09    -0.00  -0.01   0.02
    37   1    -0.03  -0.02  -0.02     0.01  -0.12   0.06    -0.04  -0.07   0.01
                      7                      8                      9
                      A                      A                      A
 Frequencies --    239.0701               247.3712               263.8451
 Red. masses --      2.1954                 1.6017                 1.9739
 Frc consts  --      0.0739                 0.0577                 0.0810
 IR Inten    --      0.0442                 0.4367                 0.0364
  Atom  AN      X      Y      Z        X      Y      Z        X      Y      Z
     1   6     0.10  -0.08  -0.03     0.02   0.03   0.02     0.02  -0.06   0.01
     2   6     0.00  -0.02   0.01     0.01   0.02   0.03    -0.00   0.00   0.01
     3   6     0.00   0.04   0.02     0.00  -0.02   0.03    -0.01   0.01   0.03
     4   6    -0.02   0.06   0.03     0.01  -0.02  -0.00     0.01   0.01   0.05
     5   6    -0.00   0.01   0.01    -0.01   0.02   0.00     0.02   0.02   0.02
     6   6    -0.02   0.03   0.02    -0.12   0.10   0.02     0.15  -0.02  -0.02
     7   6     0.14  -0.07  -0.00     0.04  -0.03  -0.02    -0.05   0.00  -0.03
     8   6    -0.05  -0.02  -0.03     0.00   0.01   0.02     0.01   0.01   0.02
     9   8    -0.04  -0.05   0.00    -0.02   0.01  -0.04     0.00   0.01  -0.01
    10   6    -0.06   0.01  -0.08     0.01  -0.00   0.01     0.00   0.02   0.03
    11   6    -0.07   0.04  -0.01     0.01  -0.00   0.00     0.03   0.07  -0.02
    12   6     0.07   0.08  -0.04     0.01  -0.05  -0.00    -0.05  -0.03   0.02
    13   6     0.04   0.03  -0.00    -0.02  -0.11  -0.00    -0.10  -0.12  -0.01
    14   6    -0.07   0.01   0.07     0.02   0.02  -0.04    -0.03   0.09  -0.08
    15   6    -0.06  -0.03   0.02     0.02   0.03  -0.00    -0.02   0.00   0.02
    16   1     0.19  -0.09   0.01    -0.07   0.01   0.06     0.16  -0.05   0.01
    17   1     0.13  -0.08  -0.00     0.11  -0.05   0.02    -0.07   0.01   0.01
    18   1     0.09  -0.14  -0.12     0.05   0.14  -0.02    -0.02  -0.21   0.01
    19   1     0.01  -0.05  -0.01    -0.02   0.04   0.03     0.00   0.01   0.01
    20   1    -0.03   0.09   0.03    -0.00  -0.06  -0.01     0.04  -0.05   0.03
    21   1    -0.03  -0.27   0.14    -0.11   0.29   0.08     0.14  -0.31  -0.05
    22   1    -0.30   0.25   0.07    -0.05   0.04   0.00    -0.01   0.12   0.03
    23   1     0.24   0.15  -0.16    -0.30   0.05   0.00     0.43   0.08  -0.07
    24   1     0.31  -0.00  -0.02     0.43   0.08   0.19     0.03   0.02   0.03
    25   1     0.10  -0.04   0.00    -0.30   0.17   0.03    -0.18   0.03   0.01
    26   1     0.15  -0.27  -0.01     0.06  -0.39  -0.29    -0.04  -0.05  -0.16
    27   1    -0.09  -0.00  -0.10     0.02   0.02  -0.02    -0.00   0.02   0.02
    28   1    -0.10   0.05  -0.00     0.01   0.01   0.01     0.09   0.16   0.01
    29   1    -0.10   0.06   0.01     0.02  -0.01  -0.01     0.03   0.08  -0.13
    30   1     0.15   0.08   0.07     0.06  -0.06  -0.02     0.02  -0.05  -0.01
    31   1     0.10   0.19  -0.14    -0.01  -0.03   0.01    -0.09   0.01   0.05
    32   1     0.02   0.00   0.03    -0.08  -0.17   0.07    -0.21  -0.20   0.09
    33   1     0.07  -0.02  -0.02    -0.02  -0.16  -0.10    -0.10  -0.20  -0.17
    34   1    -0.08  -0.03   0.07     0.03   0.06  -0.04    -0.01   0.28  -0.07
    35   1    -0.11   0.03   0.12     0.04   0.00  -0.08    -0.08   0.04  -0.26
    36   1    -0.06  -0.04   0.02     0.01   0.01  -0.00    -0.13  -0.02   0.08
    37   1    -0.08  -0.07   0.01     0.04   0.05   0.01     0.06  -0.05   0.07
                     10                     11                     12
                      A                      A                      A
 Frequencies --    273.1819               296.1880               302.3154
 Red. masses --      1.1115                 1.7558                 1.8007
 Frc consts  --      0.0489                 0.0908                 0.0970
 IR Inten    --      0.0019                 0.2878                 0.2794
  Atom  AN      X      Y      Z        X      Y      Z        X      Y      Z
     1   6     0.00   0.04   0.00    -0.04   0.01  -0.02    -0.09   0.08  -0.02
     2   6     0.00   0.01   0.00    -0.03  -0.01  -0.02    -0.02  -0.02  -0.03
     3   6     0.00  -0.00   0.02    -0.03  -0.01   0.01    -0.01  -0.04  -0.01
     4   6     0.00  -0.01   0.01     0.01  -0.02   0.05     0.01  -0.04   0.01
     5   6    -0.00  -0.01   0.01     0.04  -0.01   0.09     0.01   0.01   0.06
     6   6    -0.02   0.01   0.01     0.11   0.09   0.04     0.09   0.11   0.02
     7   6    -0.01  -0.01   0.00     0.03  -0.05   0.04    -0.01   0.01   0.06
     8   6    -0.00  -0.01  -0.00     0.01  -0.02   0.01    -0.01   0.01   0.02
     9   8    -0.00  -0.01  -0.00    -0.00  -0.04  -0.02    -0.02   0.02  -0.01
    10   6    -0.00  -0.01  -0.01    -0.03   0.01  -0.05     0.01  -0.02  -0.02
    11   6    -0.02  -0.01   0.02    -0.04   0.01  -0.01    -0.02  -0.08   0.02
    12   6     0.03  -0.00  -0.01     0.05   0.07  -0.02     0.01  -0.04  -0.03
    13   6     0.02  -0.02   0.01    -0.01  -0.03  -0.01     0.06   0.03   0.02
    14   6     0.00   0.00  -0.01    -0.05   0.02  -0.04    -0.01  -0.04  -0.03
    15   6    -0.00   0.03  -0.05    -0.04  -0.02  -0.01    -0.01  -0.02  -0.06
    16   1     0.47   0.15  -0.26    -0.13  -0.00  -0.01    -0.23   0.09  -0.09
    17   1    -0.35   0.47   0.12     0.01  -0.04  -0.03    -0.07   0.07  -0.02
    18   1    -0.14  -0.47   0.15    -0.02   0.10  -0.02    -0.06   0.19   0.06
    19   1    -0.00   0.01   0.00    -0.04  -0.02  -0.02    -0.03  -0.02  -0.04
    20   1     0.00  -0.03   0.01     0.08  -0.03   0.03     0.06  -0.05  -0.00
    21   1    -0.02   0.07   0.01     0.12   0.50  -0.15     0.08  -0.22   0.04
    22   1     0.01  -0.01   0.01     0.49  -0.10   0.06    -0.12   0.39   0.15
    23   1    -0.08  -0.01   0.01    -0.24  -0.04   0.15     0.40   0.26  -0.21
    24   1    -0.01  -0.01   0.00    -0.08  -0.07  -0.08     0.11   0.03   0.17
    25   1    -0.03  -0.02   0.01     0.13  -0.17   0.03    -0.16   0.11   0.08
    26   1    -0.01  -0.02  -0.02     0.02   0.05   0.12    -0.01  -0.10  -0.07
    27   1    -0.01  -0.01  -0.03    -0.05  -0.00  -0.06     0.03   0.01  -0.03
    28   1    -0.04  -0.02   0.01    -0.07   0.01  -0.01    -0.08  -0.15   0.00
    29   1    -0.02  -0.01   0.04    -0.04   0.00  -0.00     0.00  -0.09   0.11
    30   1     0.06  -0.00   0.01     0.18   0.07   0.08    -0.05  -0.04  -0.07
    31   1     0.04   0.02  -0.03     0.06   0.21  -0.10     0.04  -0.11  -0.02
    32   1     0.02  -0.03   0.02    -0.06  -0.04   0.01     0.17   0.09  -0.06
    33   1     0.03  -0.03   0.01     0.04  -0.10  -0.04     0.06   0.10   0.16
    34   1    -0.03  -0.01  -0.00    -0.06   0.12  -0.03    -0.03  -0.02  -0.02
    35   1     0.03   0.00   0.00    -0.07  -0.01  -0.13     0.01  -0.04  -0.04
    36   1     0.05   0.00  -0.10    -0.09  -0.03   0.02     0.04  -0.03  -0.10
    37   1    -0.05   0.08  -0.08    -0.01  -0.04   0.01    -0.05   0.02  -0.09
                     13                     14                     15
                      A                      A                      A
 Frequencies --    315.3914               335.6247               364.1577
 Red. masses --      3.0320                 2.7579                 3.2669
 Frc consts  --      0.1777                 0.1830                 0.2553
 IR Inten    --      3.3101                 0.5376                 1.6146
  Atom  AN      X      Y      Z        X      Y      Z        X      Y      Z
     1   6     0.06  -0.09  -0.00    -0.01   0.04  -0.00     0.04  -0.11  -0.03
     2   6     0.02   0.00  -0.00    -0.03  -0.01   0.01     0.00   0.05  -0.03
     3   6    -0.00  -0.01  -0.02    -0.02  -0.03   0.04    -0.04  -0.02  -0.06
     4   6     0.04  -0.01  -0.04    -0.02   0.01  -0.02     0.04  -0.05  -0.02
     5   6     0.04   0.06  -0.05    -0.01   0.07  -0.07    -0.01  -0.03   0.09
     6   6     0.02   0.16  -0.06     0.08  -0.04  -0.08     0.04   0.00   0.08
     7   6     0.01   0.21   0.09     0.21   0.03  -0.04    -0.03  -0.13  -0.01
     8   6    -0.02  -0.01  -0.02    -0.05   0.08  -0.01    -0.05   0.05   0.02
     9   8    -0.02  -0.15   0.02    -0.03   0.14   0.04    -0.04   0.19   0.02
    10   6    -0.08  -0.00  -0.01     0.00   0.04   0.02    -0.04   0.03  -0.05
    11   6    -0.08  -0.06   0.01    -0.05  -0.09   0.09    -0.08  -0.09  -0.01
    12   6    -0.07  -0.01  -0.00    -0.02  -0.07   0.01    -0.06   0.06  -0.04
    13   6    -0.08  -0.04  -0.02    -0.04  -0.10   0.03    -0.06   0.07  -0.05
    14   6     0.08  -0.04   0.02    -0.04  -0.02   0.00     0.15  -0.04  -0.00
    15   6     0.07  -0.01   0.06    -0.04  -0.00  -0.02     0.11   0.03   0.08
    16   1     0.21  -0.10   0.05    -0.02   0.05  -0.05     0.22  -0.15   0.10
    17   1    -0.00  -0.07  -0.02     0.00   0.07   0.03    -0.03  -0.13  -0.09
    18   1     0.02  -0.24  -0.04    -0.01   0.05   0.00    -0.01  -0.29  -0.10
    19   1     0.03   0.00   0.00    -0.05  -0.01   0.00    -0.00   0.07  -0.02
    20   1     0.02  -0.00  -0.04    -0.05  -0.02  -0.03     0.08  -0.02  -0.02
    21   1     0.02   0.21  -0.06     0.07  -0.02  -0.19     0.04   0.02   0.00
    22   1     0.04   0.21  -0.00     0.17  -0.15  -0.13     0.10  -0.01   0.10
    23   1    -0.03   0.17  -0.16     0.07  -0.08   0.06     0.04  -0.00   0.10
    24   1    -0.10   0.13   0.22     0.20   0.06  -0.19     0.07  -0.07  -0.06
    25   1     0.12   0.35   0.02     0.46  -0.02  -0.10    -0.16  -0.20   0.05
    26   1     0.01   0.33   0.19     0.21  -0.03   0.23    -0.03  -0.22  -0.14
    27   1    -0.05   0.01   0.00     0.04   0.08   0.00    -0.00   0.03  -0.02
    28   1    -0.12  -0.13  -0.02    -0.16  -0.23   0.05    -0.18  -0.23  -0.05
    29   1    -0.08  -0.06   0.10     0.00  -0.12   0.27    -0.03  -0.12   0.17
    30   1    -0.04  -0.02  -0.00    -0.01  -0.09  -0.10    -0.08   0.07  -0.04
    31   1    -0.08   0.02  -0.00    -0.04  -0.12   0.06    -0.07   0.06  -0.03
    32   1    -0.12  -0.07   0.01    -0.08  -0.17   0.10    -0.03   0.12  -0.11
    33   1    -0.10  -0.05  -0.10    -0.05  -0.14  -0.07    -0.05   0.10   0.02
    34   1     0.13  -0.10   0.00    -0.03  -0.09   0.00     0.21  -0.04  -0.02
    35   1     0.08  -0.03   0.07    -0.03  -0.00   0.07     0.20  -0.05  -0.01
    36   1     0.03   0.03   0.12     0.00  -0.02  -0.06     0.05   0.12   0.20
    37   1     0.12  -0.06   0.09    -0.07   0.03  -0.05     0.22  -0.05   0.15
                     16                     17                     18
                      A                      A                      A
 Frequencies --    411.0562               423.0155               453.7969
 Red. masses --      4.7717                 2.3243                 2.9915
 Frc consts  --      0.4750                 0.2451                 0.3630
 IR Inten    --      0.8894                 0.6941                 3.1214
  Atom  AN      X      Y      Z        X      Y      Z        X      Y      Z
     1   6    -0.00  -0.02  -0.04    -0.09  -0.04  -0.08     0.09   0.07   0.13
     2   6    -0.15  -0.00   0.03     0.03   0.03  -0.10     0.06  -0.12   0.11
     3   6    -0.14  -0.06   0.12     0.04   0.06   0.01     0.02  -0.02  -0.02
     4   6    -0.00  -0.14   0.04     0.05   0.07   0.05     0.05  -0.02  -0.03
     5   6     0.09  -0.05  -0.03     0.07   0.07   0.02     0.06   0.09   0.04
     6   6    -0.04   0.01   0.00    -0.04  -0.03   0.10     0.02  -0.03   0.12
     7   6     0.05  -0.01  -0.01    -0.03   0.03  -0.10    -0.01   0.03  -0.10
     8   6     0.22   0.02  -0.09     0.04   0.03  -0.01    -0.02   0.07   0.02
     9   8     0.24  -0.00  -0.09     0.04  -0.08  -0.02    -0.03  -0.07   0.00
    10   6     0.02   0.15  -0.05     0.01   0.03  -0.02    -0.05   0.10  -0.02
    11   6    -0.06   0.09   0.05    -0.04  -0.05   0.11    -0.04  -0.01  -0.04
    12   6    -0.10   0.05  -0.05     0.02  -0.04  -0.03    -0.08   0.07  -0.03
    13   6    -0.09   0.04   0.12     0.01  -0.03   0.00    -0.06   0.03  -0.03
    14   6     0.01  -0.09  -0.01    -0.02   0.06   0.04    -0.01  -0.08  -0.06
    15   6    -0.05   0.01   0.02    -0.01  -0.01   0.02     0.02  -0.11  -0.07
    16   1     0.12  -0.02  -0.04    -0.15  -0.07   0.00    -0.01   0.13  -0.06
    17   1     0.06   0.01   0.03    -0.18  -0.10  -0.20     0.18   0.16   0.27
    18   1    -0.02  -0.09  -0.19    -0.09  -0.03   0.05     0.12   0.20   0.14
    19   1    -0.23   0.03   0.00     0.05   0.00  -0.12     0.11  -0.14   0.12
    20   1    -0.01  -0.19   0.03     0.04   0.08   0.05     0.11  -0.04  -0.05
    21   1    -0.04  -0.01   0.16    -0.03  -0.05   0.25     0.02  -0.08   0.19
    22   1    -0.17   0.08   0.00    -0.16  -0.12  -0.03    -0.06  -0.12   0.00
    23   1    -0.05   0.04  -0.12    -0.06  -0.06   0.17     0.05  -0.05   0.24
    24   1     0.06  -0.01   0.01    -0.06   0.04  -0.17    -0.01   0.06  -0.21
    25   1     0.06   0.01  -0.02    -0.15  -0.09  -0.04    -0.12  -0.13  -0.04
    26   1     0.05  -0.02   0.00    -0.03   0.09  -0.24    -0.01   0.04  -0.23
    27   1    -0.11   0.04  -0.02     0.01   0.05  -0.05     0.00   0.12   0.02
    28   1    -0.21   0.19   0.08    -0.21  -0.29   0.03    -0.08  -0.02  -0.04
    29   1     0.12  -0.01  -0.01    -0.04  -0.05   0.43     0.00  -0.03   0.00
    30   1    -0.20   0.03  -0.28    -0.01  -0.05  -0.11    -0.09   0.06  -0.08
    31   1    -0.12  -0.15   0.06     0.02  -0.10   0.00    -0.09   0.03  -0.00
    32   1     0.05   0.12   0.03    -0.01  -0.11   0.08    -0.11   0.05  -0.04
    33   1    -0.04   0.08   0.32    -0.00  -0.06  -0.09    -0.07   0.03  -0.05
    34   1    -0.02  -0.07   0.00    -0.05   0.10   0.05    -0.02  -0.10  -0.05
    35   1     0.06  -0.10  -0.02    -0.07   0.06   0.02    -0.05  -0.06  -0.01
    36   1    -0.05   0.05   0.05    -0.09   0.05   0.12     0.13  -0.23  -0.25
    37   1    -0.00   0.05   0.05     0.04  -0.16   0.06    -0.09   0.08  -0.16
                     19                     20                     21
                      A                      A                      A
 Frequencies --    463.2509               510.9576               566.9443
 Red. masses --      3.1253                 3.2861                 2.4825
 Frc consts  --      0.3952                 0.5055                 0.4701
 IR Inten    --      0.5268                 4.2442                 1.9295
  Atom  AN      X      Y      Z        X      Y      Z        X      Y      Z
     1   6    -0.09  -0.03  -0.11    -0.00   0.02   0.02     0.00  -0.00   0.00
     2   6     0.02  -0.05  -0.10     0.16  -0.09  -0.04     0.02  -0.03  -0.01
     3   6    -0.01  -0.05   0.10     0.08   0.07   0.05    -0.02  -0.12  -0.01
     4   6     0.04  -0.06   0.02     0.06   0.04   0.07    -0.01  -0.04   0.20
     5   6    -0.01   0.05  -0.02     0.01  -0.09  -0.03    -0.01   0.02  -0.02
     6   6    -0.02  -0.03   0.00    -0.04   0.01  -0.08    -0.03  -0.01  -0.03
     7   6     0.03   0.04  -0.05    -0.01  -0.03   0.05     0.04   0.03  -0.02
     8   6    -0.10   0.06   0.03     0.02  -0.08  -0.08    -0.04   0.03  -0.05
     9   8    -0.11  -0.02   0.04     0.06   0.15   0.00    -0.02  -0.03   0.02
    10   6    -0.08   0.08   0.01    -0.07  -0.09  -0.05     0.03   0.02  -0.03
    11   6    -0.02   0.14  -0.01    -0.09   0.07   0.05     0.06  -0.12  -0.09
    12   6     0.05   0.01   0.03    -0.09   0.02   0.02    -0.04   0.05  -0.03
    13   6     0.05  -0.03   0.15    -0.08   0.02   0.04    -0.04   0.01   0.00
    14   6     0.12  -0.06  -0.03     0.01   0.05   0.02     0.00   0.13   0.10
    15   6     0.12  -0.06  -0.02     0.08  -0.13  -0.06     0.06   0.01   0.00
    16   1    -0.17  -0.03  -0.12    -0.19   0.04  -0.10     0.01   0.00  -0.02
    17   1    -0.19  -0.03  -0.17    -0.10   0.05  -0.02    -0.01   0.02   0.01
    18   1    -0.08  -0.01   0.05     0.03   0.13   0.27    -0.00  -0.01   0.02
    19   1    -0.04  -0.02  -0.12     0.20  -0.14  -0.05    -0.02   0.02   0.00
    20   1    -0.01  -0.15   0.01     0.01   0.04   0.08    -0.10   0.04   0.23
    21   1    -0.02  -0.06   0.02    -0.04   0.10  -0.03    -0.03   0.01   0.03
    22   1    -0.04  -0.08  -0.06    -0.03   0.08  -0.02    -0.08  -0.02  -0.07
    23   1    -0.00  -0.04   0.08    -0.14   0.01  -0.21    -0.07  -0.02  -0.03
    24   1     0.06   0.06  -0.10    -0.06  -0.08   0.17     0.06   0.05  -0.06
    25   1     0.07   0.00  -0.05    -0.01   0.07   0.03     0.12   0.03  -0.05
    26   1     0.03  -0.00  -0.00    -0.02   0.01   0.06     0.04  -0.02   0.07
    27   1    -0.06   0.13  -0.05    -0.20  -0.19  -0.03     0.13   0.03   0.07
[...]
 0001781,0.00003949,0.00040269,-0.00061838,0.00009847,-0.00017054,0.000
 24429,0.00006008,-0.00239637,-0.00161969,0.00104889,-0.00010378,0.0005
 8250,0.00046255,-0.02061985,0.01555287,-0.00125704,-0.19170644,0.12952
 018,-0.01900338,-0.00017093,-0.00008541,-0.00006308,0.00006216,-0.0000
 8491,0.00026213,-0.00002556,0.00000851,-0.00005894,0.00000118,-0.00008
 270,0.00014051,0.00001104,-0.00002182,-0.00004464,0.00069248,-0.000256
 29,0.00043973,0.00005757,0.00001268,0.00003702,0.00001692,-0.00003086,
 0.00000567,-0.00008802,-0.00011028,-0.00002124,-0.00001108,0.00006695,
 -0.00000344,-0.00000264,0.00003922,-0.00001564,-0.00000722,-0.00000421
 ,-0.00001191,-0.00000731,-0.00001537,-0.00000224,-0.00037657,0.0001206
 2,-0.00079407,0.00011713,-0.00021020,-0.00017183,0.00001623,-0.0004360
 1,-0.00032282,0.00149433,-0.00007675,0.00001351,-0.00288626,-0.0012780
 4,-0.00035111,0.00507887,-0.00341539,0.00087323,0.21055786,-0.00046697
 ,0.00032165,-0.00009348,0.00169945,-0.00001877,-0.00038829,0.00681203,
 -0.00917884,0.00172930,-0.00038478,0.00085101,0.00277473,-0.00037832,0
 .00023298,-0.00010906,0.00011176,0.00024985,-0.00054094,0.00011180,0.0
 0008823,-0.00000538,-0.00019367,-0.00083171,-0.00011915,0.00005103,0.0
 0035235,0.00007966,-0.00171529,-0.00043731,0.00043206,-0.00005464,0.00
 010031,-0.00014649,-0.01486780,0.00897097,-0.00117125,0.12938649,-0.16
 120895,0.01244316,0.00040442,0.00020867,-0.00009786,0.00013386,-0.0000
 7643,-0.00013487,0.00002944,-0.00000128,0.00002025,-0.00000690,0.00000
 534,-0.00028140,-0.00000152,0.00000967,0.00006503,-0.00137468,0.000544
 81,0.00019599,0.00033040,-0.00088607,0.00034085,0.00013890,-0.00018007
 ,0.00009116,0.00003842,-0.00022613,0.00039463,0.00003707,-0.00004471,0
 .00006227,-0.00002056,0.00003572,-0.00001188,-0.00001526,-0.00001755,0
 .00002032,0.00003819,-0.00004913,-0.00001703,-0.00016233,0.00001108,-0
 .00035839,0.00000387,0.00007209,0.00015880,0.00021344,0.00030375,-0.00
 012298,-0.00053385,0.00197734,0.00006813,-0.00181050,-0.00012731,0.000
 36807,0.01913426,-0.01715633,0.00211589,-0.13644823,0.17581713,-0.0000
 5515,-0.00027125,0.00012758,-0.00249233,0.00115500,0.00089663,-0.02131
 212,0.02369426,-0.00441613,-0.00007295,-0.00060254,-0.00623357,0.00044
 223,-0.00030559,-0.00026516,0.00004183,0.00011538,-0.00049876,-0.00018
 635,-0.00000091,0.00012774,0.00003846,0.00044185,-0.00002128,-0.000030
 72,-0.00019767,0.00003550,0.00017316,-0.00033977,-0.00099635,0.0002384
 7,0.00052492,0.00114981,0.00564512,-0.00395832,0.00044586,-0.01875264,
 0.01175916,-0.04993448,-0.00026568,-0.00037448,-0.00017017,0.00010448,
 0.00002122,0.00023311,0.00000033,-0.00002369,-0.00007973,0.00000535,-0
 .00000198,0.00021288,-0.00000026,0.00000044,0.00006284,0.00127790,-0.0
 0026065,-0.00000404,-0.00062590,0.00196137,-0.00043002,0.00009702,-0.0
 0012035,0.00018841,-0.00001025,-0.00003616,0.00041240,0.00002493,-0.00
 005400,0.00005318,0.00002954,-0.00003034,-0.00001012,0.00005114,-0.000
 00300,0.00009102,-0.00007734,0.00006797,0.00000523,-0.00010042,-0.0000
 3556,0.00006928,0.00028710,-0.00020262,-0.00008203,-0.00012321,-0.0005
 8741,-0.00017707,-0.00012293,-0.00011065,0.00114106,0.00125582,0.00046
 123,-0.00015417,0.01708570,-0.01484494,0.00271981,0.01705005,-0.018000
 86,0.05518796,0.00004984,0.00043207,-0.00004431,-0.00118094,-0.0006202
 8,0.00041413,0.00019890,0.00097930,0.00008014,-0.00265683,0.00017619,-
 0.02752445,0.00159135,0.00081614,-0.00042393,-0.00085695,0.00009206,-0
 .00000716,-0.00022011,0.00010855,0.00000906,0.00021878,-0.00025981,0.0
 0006696,0.00007745,0.00012596,0.00002916,-0.00001853,0.00005425,-0.000
 16332,0.00002595,0.00000078,-0.00009658,0.00002065,0.00007517,-0.00007
 270,0.00023686,-0.00018760,0.00012736,-0.04702066,-0.00094684,-0.01895
 244,-0.00151516,0.00036955,0.02874643,0.00011094,0.00014678,0.00012933
 ,-0.00005968,-0.00006845,0.00008720,0.00017415,-0.00008380,-0.00010452
 ,0.00008075,0.00026448,0.00007072,-0.00358013,-0.00442250,-0.00160269,
 0.00019668,0.00008705,0.00005552,-0.00030248,-0.00021371,0.00052884,-0
 .00110381,0.00045745,0.00053235,0.00001102,-0.00005906,-0.00004562,0.0
 0010611,-0.00001813,0.00020836,-0.00007691,0.00003273,0.00003309,-0.00
 000237,-0.00000119,0.00001542,0.00008854,0.00005788,0.00018094,0.00002
 771,-0.00015054,0.00012296,0.00000873,0.00003903,0.00001446,-0.0000303
 5,-0.00003036,0.00005662,0.00034373,-0.00034750,0.00023058,0.00003153,
 0.00007603,0.00017926,0.05735590,-0.00009211,-0.00005074,-0.00010313,0
 .00065585,-0.00015655,0.00005691,0.00009623,0.00109501,-0.00059700,-0.
 00125227,0.00000175,-0.02074624,0.00082262,0.00059109,0.00011590,-0.00
 010903,0.00071254,0.00001354,0.00003907,-0.00019346,0.00002909,0.00010
 627,0.00011546,-0.00009168,0.00004635,-0.00002680,0.00000195,0.0000312
 3,0.00002701,-0.00002353,-0.00013362,-0.00002741,0.00014506,-0.0001818
 3,-0.00000945,0.00009271,-0.00031638,-0.00119171,-0.00035142,-0.000580
 27,-0.05311995,-0.00867827,-0.00093845,-0.00011860,-0.01206741,-0.0000
 2450,-0.00009044,-0.00002915,0.00005507,-0.00004299,0.00008689,-0.0000
 0950,0.00002309,0.00007190,0.00009604,-0.00020260,-0.00009658,-0.00269
 333,-0.00237877,-0.00138359,0.00006328,-0.00018805,0.00010095,-0.00017
 702,-0.00007829,0.00035434,0.00032689,-0.00014536,0.00000043,-0.000012
 20,0.00011830,0.00006013,0.00005598,-0.00002224,0.00006595,0.00000890,
 0.00008952,0.00005002,0.00002570,-0.00002708,0.00005648,0.00013716,0.0
 0002574,0.00018579,0.00005580,-0.00007120,0.00007528,0.00007624,0.0000
 5096,0.00002464,0.00002317,-0.00000202,0.00001374,-0.00018819,-0.00122
 700,0.00101208,0.00005023,0.00023279,0.00016344,0.00075287,0.05355966,
 -0.00011794,-0.00020642,-0.00001445,0.00040061,0.00012167,-0.00020564,
 -0.00033752,0.00058781,-0.00056950,-0.00261729,-0.00099788,-0.00940340
 ,0.00089130,-0.00056313,-0.00038228,0.00098984,-0.00049449,-0.00032360
 ,-0.00007964,0.00004727,0.00010218,-0.00007487,0.00019609,0.00013370,-
 0.00015562,-0.00010934,0.00002464,0.00007053,0.00001024,-0.00014221,-0
 .00000761,-0.00014854,0.00011022,-0.00021184,0.00033495,0.00017467,0.0
 0046790,0.00029436,-0.00076323,-0.01931732,-0.00848034,-0.30595603,0.0
 0007084,0.00083209,-0.01015254,-0.00001995,-0.00010379,-0.00007061,0.0
 0004388,0.00002666,0.00011425,-0.00001763,0.00004432,0.00008487,0.0000
 8006,-0.00024727,-0.00004003,-0.00130129,-0.00162556,0.00080063,0.0003
 4019,0.00042621,0.00044318,0.00026217,-0.00033202,0.00006450,0.0004172
 0,0.00078539,-0.00014862,0.00003216,-0.00006457,-0.00005257,0.00007317
 ,0.00000202,0.00014267,-0.00008696,0.00003271,0.00002564,-0.00000857,-
 0.00002442,0.00007404,0.00009471,0.00001738,0.00014519,-0.00004122,-0.
 00011471,-0.00000967,0.00013616,0.00007561,0.00000143,-0.00001668,-0.0
 0004340,0.00004756,0.00017360,0.00080928,0.00091905,0.00002984,0.00010
 416,0.00019760,0.01911544,0.01011255,0.33406722,0.00017598,0.00060894,
 -0.00028293,-0.00378021,0.00072691,0.00077967,-0.00468825,-0.00249161,
 -0.00125528,0.00564006,-0.02384431,0.01014904,0.00056758,-0.00011020,0
 .00009466,0.00005842,-0.00003541,0.00007899,-0.00021648,-0.00026846,-0
 .00015472,-0.00004803,-0.00020393,-0.00005271,-0.00006525,0.00013933,-
 0.00002127,0.00024254,0.00024515,-0.00001933,0.00120472,-0.00122374,0.
 00004546,0.00004894,0.00005638,-0.00005685,-0.00002833,0.00010529,-0.0
 0057617,-0.05256899,0.03459085,-0.01352646,-0.00292602,0.02421089,-0.0
 0825252,0.00002125,0.00005876,0.00032779,0.00004357,-0.00007029,0.0000
 9767,0.00000518,-0.00001152,-0.00006438,0.00032677,0.00082280,0.000147
 05,0.00114513,0.00127630,0.00031042,0.00000652,0.00010189,0.00002523,-
 0.00002958,0.00000498,-0.00011927,-0.00011215,0.00000914,0.00023813,-0
 .00051080,0.00029811,-0.00009124,0.00000148,0.00004330,0.00003013,0.00
 004886,0.00014975,-0.00001255,-0.00001427,0.00001628,0.00000953,-0.000
 01561,0.00005518,-0.00004091,-0.00043909,-0.00051271,-0.00022020,-0.00
 000292,-0.00000738,-0.00000945,0.00000955,-0.00000463,0.00003218,-0.00
 002698,0.00019917,0.00010199,0.00006483,-0.00009118,0.00014340,-0.0002
 8057,0.00249199,-0.00092025,0.05593190,0.00009384,-0.00031292,0.000251
 76,0.00056802,-0.00030954,-0.00017725,-0.00277509,-0.00159946,-0.00192
 907,0.00400415,-0.01580040,0.00615234,0.00023637,-0.00040522,-0.000143
 79,-0.00025300,-0.00017742,-0.00012973,-0.00012658,-0.00074203,0.00011
 823,0.00007032,-0.00023618,0.00006903,-0.00029513,0.00014150,-0.000074
 88,0.00010716,0.00016836,-0.00008755,0.00093693,-0.00095417,0.00028497
 ,0.00006545,0.00010383,-0.00001708,-0.00005348,0.00024662,-0.00042686,
 0.03457688,-0.27469724,0.08306694,0.00024628,-0.00833670,0.00361498,-0
 .00004289,-0.00000855,-0.00016578,-0.00007888,0.00001551,-0.00007552,0
 .00004484,-0.00000479,-0.00005290,0.00003626,-0.00034500,-0.00017232,0
 .00035915,0.00099888,-0.00032005,-0.00003060,0.00008791,0.00003439,0.0
 0008415,0.00010524,-0.00012798,-0.00003834,0.00014680,0.00027419,0.000
 00484,0.00067318,0.00000139,0.00004971,0.00008270,0.00000658,0.0000085
 1,0.00026751,-0.00001818,-0.00008007,0.00002553,0.00004218,-0.00001429
 ,0.00002672,-0.00004308,-0.00036791,-0.00036091,-0.00016511,-0.0000305
 1,-0.00001503,-0.00000967,-0.00004439,-0.00001895,0.00006469,0.0000394
 8,0.00010107,0.00005660,0.00002429,-0.00000298,0.00006393,-0.00010248,
 0.00207501,0.00023856,-0.03747967,0.29846480,0.00002538,-0.00031191,0.
 00014286,0.00148645,-0.00202668,-0.00038032,-0.00065874,-0.00161260,-0
 .00077483,0.00185802,-0.00948233,0.00229974,0.00000215,0.00020589,0.00
 001862,-0.00005732,0.00064946,-0.00009910,0.00005071,0.00024145,0.0000
 2759,-0.00001078,0.00002112,-0.00002146,0.00004213,-0.00001552,-0.0000
 0777,0.00006329,0.00003395,-0.00003470,0.00019285,-0.00048227,0.000191
 56,-0.00015385,0.00019344,0.00011155,0.00021051,-0.00021142,-0.0003054
 4,-0.01350820,0.08530086,-0.08067596,0.00165982,-0.01310328,0.00312079
 ,-0.00001441,0.00000258,-0.00016192,-0.00006839,0.00003250,-0.00006667
 ,0.00001877,-0.00000794,-0.00000910,-0.00006614,-0.00056729,-0.0001741
 7,0.00063790,-0.00017246,0.00088719,0.00004637,-0.00020517,0.00007187,
 0.00002308,-0.00018884,0.00019249,-0.00000424,-0.00018276,-0.00015821,
 -0.00006311,-0.00009760,0.00013184,-0.00006287,-0.00009570,-0.00005578
 ,-0.00000320,-0.00002414,-0.00003973,0.00000757,-0.00001723,0.00004169
 ,0.00002521,0.00003994,0.00000839,-0.00010046,-0.00015136,-0.00007851,
 0.00010298,0.00005320,0.00000640,-0.00000382,-0.00001771,0.00000650,-0
 .00000484,-0.00002634,0.00061587,-0.00000810,0.00011387,0.00013991,-0.
 00455628,0.03193201,-0.01141940,0.01282493,-0.08927729,0.08517999,0.00
 152312,0.00014286,0.00075994,-0.00211993,-0.00316751,0.00507843,-0.000
 81756,-0.00099070,-0.00045886,0.00024498,0.00040117,0.00098398,-0.0003
 2010,-0.00001774,-0.00037134,-0.00009441,0.00005193,-0.00002226,-0.000
 07045,-0.00004633,0.00006249,0.00002626,0.00013565,-0.00001076,-0.0001
 2954,-0.00007015,-0.00001557,-0.00007912,-0.00008727,-0.00003705,-0.00
 016398,0.00002065,0.00026828,-0.00003663,-0.00001698,0.00001130,0.0000
 4199,0.00008837,-0.00007857,-0.00587829,-0.01082022,0.02424350,-0.0655
 0277,-0.02946090,0.05244203,0.00000407,0.00026908,-0.00002010,-0.00039
 715,-0.00009912,-0.00015720,0.00008376,0.00007962,-0.00026153,-0.00009
 213,-0.00017968,0.00014185,-0.00043807,-0.00018686,-0.00050026,-0.0000
 5910,-0.00005616,-0.00002213,0.00003685,0.00005249,-0.00006299,0.00005
 083,-0.00013304,-0.00002533,-0.00000327,0.00002602,0.00003042,-0.00002
 650,-0.00001783,-0.00003398,-0.00001845,0.00003220,-0.00003221,-0.0000
 3141,-0.00000678,0.00004071,-0.00005444,-0.00001414,-0.00002721,0.0000
 0956,-0.00004884,-0.00000372,0.00000400,-0.00001376,0.00000061,0.00000
 302,0.00000678,-0.00000451,-0.00002142,0.00008671,-0.00004422,0.000014
 92,-0.00007913,-0.00002107,-0.00370151,0.00111451,0.00150643,0.0017507
 2,-0.00022294,-0.00034155,0.06853545,-0.00049651,0.00141762,0.00214527
 ,-0.00732402,-0.01699759,0.02397555,0.00073734,-0.00363247,-0.00146863
 ,-0.00005341,-0.00061730,-0.00025437,0.00002816,0.00019009,-0.00007701
 ,0.00011067,-0.00003422,-0.00004300,-0.00004362,0.00002303,0.00006496,
 0.00015938,-0.00032643,0.00002785,-0.00007649,0.00014967,-0.00001132,-
 0.00028918,-0.00020738,-0.00012730,-0.00050340,0.00038770,0.00076235,-
 0.00008545,0.00006967,0.00001551,0.00000196,0.00007382,-0.00012280,0.0
 0492576,0.00520579,-0.01497682,-0.02980634,-0.09912266,0.10297820,0.00
 019248,0.00065813,0.00011933,-0.00050949,0.00006902,-0.00076810,0.0007
 9091,-0.00038328,-0.00061069,-0.00132199,-0.00324809,-0.00040263,-0.00
 017885,0.00016692,0.00002984,0.00004289,0.00003393,0.00000908,-0.00001
 795,-0.00005510,0.00001969,-0.00003228,0.00010987,0.00001661,0.0000052
 9,0.00001292,-0.00000858,-0.00000038,-0.00000831,0.00000246,-0.0000181
 3,0.00000134,-0.00001414,-0.00012053,0.00001624,0.00010385,-0.00012380
 ,-0.00000957,-0.00009520,0.00006553,0.00001931,0.00004695,-0.00001044,
 -0.00001324,-0.00000166,-0.00006285,-0.00002681,0.00004401,-0.00001408
 ,-0.00003360,0.00013357,-0.00007801,0.00013190,-0.00005165,0.00304014,
 -0.00042523,-0.00167709,-0.00050615,0.00116028,-0.00039434,0.03050336,
 0.11356399,-0.00018012,-0.00254401,0.00042426,-0.00255448,-0.00403640,
 0.00571511,-0.00010577,-0.00097111,-0.00023392,-0.00014896,-0.00023832
 ,-0.00049973,0.00006250,0.00015658,0.00012330,0.00002832,-0.00003902,-
 0.00000717,0.00002487,0.00001657,-0.00003382,-0.00006242,-0.00017140,-
 0.00000317,0.00014164,0.00008491,0.00001313,-0.00003561,0.00002305,-0.
 00000297,-0.00023803,-0.00000079,0.00004826,-0.00005250,0.00001472,0.0
 0003783,-0.00005482,-0.00010222,-0.00007278,0.00217007,0.00336691,-0.0
 1046309,0.05297752,0.10324416,-0.23953268,-0.00008364,-0.00034390,0.00
 010722,0.00000124,0.00022494,0.00062652,-0.00018540,0.00015555,0.00063
 776,0.00038276,-0.00058802,0.00016153,0.00015690,0.00023896,0.00028930
 ,0.00004730,0.00003614,0.00001998,-0.00002494,-0.00004520,0.00004323,-
 0.00004486,0.00009814,0.00001698,-0.00000908,0.00000399,-0.00001829,0.
 00001482,0.00001193,0.00002518,0.00001516,-0.00001068,0.00001247,-0.00
 000103,0.00000241,0.00001845,0.00001760,0.00000295,0.00001283,0.000018
 31,0.00008227,0.00002408,0.00001936,0.00002491,-0.00000086,0.00000488,
 -0.00000680,0.00000715,-0.00003722,0.00000212,0.00014725,-0.00001157,0
 .00000472,-0.00000539,0.00249937,-0.00085816,0.00026276,-0.00009473,-0
 .00046814,0.00120110,-0.05960493,-0.10728418,0.25936066,-0.00003604,-0
 .00067093,0.00049892,-0.00281370,0.00148534,-0.00255579,-0.00040517,-0
 .00010343,-0.00014653,-0.00344318,0.00227584,0.00255814,-0.00019951,-0
 .00130282,-0.00064031,-0.00002314,-0.00002702,-0.00014004,-0.00002056,
 -0.00005852,0.00014613,-0.00010243,0.00071847,0.00020449,-0.00040115,-
 0.00036082,-0.00004626,0.00000956,-0.00005650,-0.00007109,-0.00006910,
 -0.00018693,0.00026153,-0.00005957,-0.00000163,0.00004155,-0.00001661,
 -0.00019371,-0.00025173,-0.01880815,-0.00226682,-0.01504549,-0.2059700
 2,-0.01803432,-0.12886334,-0.00005703,0.00013517,-0.00016737,-0.000027
 90,0.00004023,0.00001590,0.00000202,0.00000442,-0.00007450,0.00138146,
 0.00001342,0.00051618,0.00036325,0.00018662,-0.00004629,-0.00002572,0.
 00001519,0.00006498,0.00000412,-0.00002787,0.00005580,0.00004652,0.000
 02367,-0.00004185,0.00005364,-0.00002745,-0.00000198,-0.00000049,-0.00
 001181,-0.00000756,-0.00006236,0.00003778,-0.00001202,-0.00000754,-0.0
 0003397,0.00004620,0.00001627,0.00004061,0.00002429,-0.00002372,-0.000
 08086,-0.00002665,0.00003658,-0.00000790,0.00001342,0.00000762,0.00001
 201,0.00000060,-0.00012627,0.00011431,0.00017485,0.00001010,-0.0001452
 9,0.00007806,0.00165143,-0.00042273,0.00013618,-0.00154046,0.00047962,
 0.00040817,0.00772670,0.00106949,0.00494750,0.22293053,-0.00150032,-0.
 00359221,0.00079389,-0.02236357,-0.00257447,-0.02010394,-0.00056247,-0
 .00213127,-0.00114762,0.00128967,-0.00231647,-0.00097690,0.00011980,0.
 00083909,0.00009273,-0.00001372,0.00003578,0.00003288,-0.00003493,0.00
 002157,-0.00003078,0.00014514,-0.00055885,-0.00009894,0.00011230,0.000
 26665,0.00002274,-0.00014222,-0.00017843,-0.00008426,-0.00062886,0.000
 09029,0.00067304,-0.00006869,-0.00004092,0.00012268,-0.00031085,0.0000
 0799,-0.00015550,0.01118325,0.00187808,0.00901851,-0.01763843,-0.04918
 498,-0.01223681,0.00027261,-0.00045486,-0.00128236,-0.00017478,0.00008
 997,0.00005217,0.00026479,0.00010459,-0.00006833,0.00012806,0.00144357
 ,-0.00006567,-0.00006681,-0.00020198,-0.00001952,0.00001462,-0.0000155
 6,-0.00001243,-0.00000242,-0.00000541,-0.00001323,-0.00002527,-0.00000
 293,0.00003218,-0.00003573,0.00004629,0.00000175,-0.00000056,-0.000003
 26,0.00000701,0.00001229,0.00000436,-0.00000640,-0.00008873,0.00001461
 ,0.00011271,0.00006604,0.00001414,-0.00001265,0.00003059,0.00005847,-0
 .00000485,-0.00001454,-0.00000447,0.00000369,-0.00000837,-0.00001868,0
 .00003470,-0.00004773,0.00005167,0.00018649,0.00001843,-0.00007410,-0.
 00001577,-0.00067224,0.00107801,0.00013363,0.00064980,-0.00056396,-0.0
 0014811,0.01272470,0.00168005,0.00991242,0.01736914,0.05419762,-0.0004
 5955,-0.00169225,0.00016624,-0.00195963,0.00104190,-0.00269707,0.00045
 765,-0.00015020,-0.00044780,0.00217275,-0.00111504,-0.00075844,0.00038
 796,0.00061069,0.00028501,-0.00009763,0.00001773,0.00007171,-0.0000229
 7,0.00002087,-0.00004389,0.00016487,-0.00030396,-0.00008384,0.00006566
 ,0.00016077,0.00002212,-0.00003481,-0.00002322,-0.00002358,-0.00005817
 ,0.00008672,0.00008189,0.00001323,0.00002881,-0.00000622,-0.00004208,0
 .00007360,-0.00003343,0.01334873,0.00142320,0.00846712,-0.12997226,-0.
 01257038,-0.15348534,0.00018348,-0.00047746,-0.00040499,0.00025716,0.0
 0012803,0.00045103,-0.00002772,0.00005120,-0.00006568,0.00048210,-0.00
 025591,0.00118175,0.00018140,0.00002330,0.00022900,-0.00000895,-0.0000
 0607,-0.00000762,0.00001346,0.00001059,-0.00003273,-0.00000585,-0.0000
 3010,0.00000697,-0.00001290,0.00000835,-0.00000868,0.00001707,0.000011
 21,0.00000919,0.00000386,-0.00000881,0.00000728,-0.00003123,0.00002105
 ,0.00001369,0.00002410,-0.00001382,-0.00000141,0.00000234,0.00003250,-
 0.00000655,-0.00001002,-0.00000610,-0.00000591,-0.00001317,-0.00000479
 ,0.00001766,0.00006525,0.00000027,-0.00001806,-0.00001272,0.00001628,-
 0.00001933,0.00006031,0.00020437,0.00171775,0.00033494,-0.00045855,0.0
 0006715,-0.02341260,-0.00210559,-0.01846246,0.13794592,0.01525082,0.16
 381749\\0.00000640,0.00000306,0.00003964,0.00000825,0.00002122,-0.0000
 0972,0.00000096,0.00000315,-0.00003441,0.00002250,0.00000401,0.0000261
 6,0.00000681,0.00000422,0.00001368,-0.00000240,-0.00001953,-0.00005394
 ,0.00000716,-0.00000500,-0.00000100,-0.00005827,0.00000222,0.00002152,
 0.00003864,0.00000206,0.00000330,0.00003188,-0.00000266,-0.00002692,-0
 .00002817,0.00004029,0.00002414,0.00000059,0.00001480,-0.00001591,0.00
 002159,-0.00007066,0.00000466,-0.00000262,-0.00000541,-0.00003060,-0.0
 0002268,-0.00003569,0.00004208,0.00000468,0.00000017,-0.00000953,-0.00
 001317,0.00000649,0.00001289,0.00000381,0.00000064,-0.00000222,-0.0000
 1546,0.00001319,0.00003604,-0.00000287,-0.00000200,-0.00000592,-0.0000
 0607,0.00000387,-0.00000118,0.00000242,-0.00001072,-0.00000883,0.00000
 281,0.00000776,-0.00000734,-0.00001107,0.00001026,-0.00000221,-0.00000
 097,0.00000144,-0.00000561,-0.00000324,0.00000464,-0.00000452,-0.00000
 692,0.00000104,0.00000062,-0.00000465,-0.00000211,-0.00000197,-0.00000
 161,-0.00000845,-0.00000357,-0.00000132,0.00000232,0.00000843,0.000000
 82,0.00000032,0.00001320,0.00002390,-0.00000823,0.00000919,0.00000236,
 -0.00000212,-0.00000272,-0.00000114,-0.00001854,-0.00000050,0.00000314
 ,0.00001649,0.00002946,-0.00003917,-0.00000095,-0.00002658,0.00003310,
 0.00002839,-0.00002980\\\@


 I CLAIM NOT TO HAVE CONTROLLED EVENTS,
 BUT CONFESS PLAINLY THAT EVENTS HAVE CONTROLLED ME.

                                         A. LINCOLN
 Job cpu time:       0 days  0 hours  5 minutes 58.0 seconds.
 Elapsed time:       0 days  0 hours  6 minutes 10.9 seconds.
 File lengths (MBytes):  RWF=    314 Int=      0 D2E=      0 Chk=     16 Scr=      1
 Normal termination of Gaussian 16 at Sat Feb 24 01:12:16 2024.
