 Entering Gaussian System, Link 0=g16
 Input=/Volumes/SSD-PMU3/b3lyp_6-31gd_freq/FVEVRESQRWANEP-IOLNDXNPSA-N_calculating/gaussianinput0.gjf
 Output=/Volumes/SSD-PMU3/b3lyp_6-31gd_freq/FVEVRESQRWANEP-IOLNDXNPSA-N_calculating/gaussianinput0.log
 Initial command:
 /Applications/g16/l1.exe "/Users/macmini_m1_2022/PycharmProjects/sphere_model/sphere_model_lib/Gau-59981.inp" -scrdir="/Users/macmini_m1_2022/PycharmProjects/sphere_model/sphere_model_lib/"
 Entering Link 1 = /Applications/g16/l1.exe PID=     59982.
  
 Copyright (c) 1988,1990,1992,1993,1995,1998,2003,2009,2016,
            Gaussian, Inc.  All Rights Reserved.
  
 This is part of the Gaussian(R) 16 program.  It is based on
 the Gaussian(R) 09 system (copyright 2009, Gaussian, Inc.),
 the Gaussian(R) 03 system (copyright 2003, Gaussian, Inc.),
 the Gaussian(R) 98 system (copyright 1998, Gaussian, Inc.),
 the Gaussian(R) 94 system (copyright 1995, Gaussian, Inc.),
 the Gaussian 92(TM) system (copyright 1992, Gaussian, Inc.),
 the Gaussian 90(TM) system (copyright 1990, Gaussian, Inc.),
 the Gaussian 88(TM) system (copyright 1988, Gaussian, Inc.),
 the Gaussian 86(TM) system (copyright 1986, Carnegie Mellon
 University), and the Gaussian 82(TM) system (copyright 1983,
 Carnegie Mellon University). Gaussian is a federally registered
 trademark of Gaussian, Inc.
  
 This software contains proprietary and confidential information,
 including trade secrets, belonging to Gaussian, Inc.
  
 This software is provided under written license and may be
 used, copied, transmitted, or stored only in accord with that
 written license.
  
 The following legend is applicable only to US Government
 contracts under FAR:
  
                    RESTRICTED RIGHTS LEGEND
  
 Use, reproduction and disclosure by the US Government is
 subject to restrictions as set forth in subparagraphs (a)
 and (c) of the Commercial Computer Software - Restricted
 Rights clause in FAR 52.227-19.
  
 Gaussian, Inc.
 340 Quinnipiac St., Bldg. 40, Wallingford CT 06492
  
  
 ---------------------------------------------------------------
 Warning -- This program may not be used in any manner that
 competes with the business of Gaussian, Inc. or will provide
 assistance to any competitor of Gaussian, Inc.  The licensee
 of this program is prohibited from giving any competitor of
 Gaussian, Inc. access to this program.  By using this program,
 the user acknowledges that Gaussian, Inc. is engaged in the
 business of creating and licensing software in the field of
 computational chemistry and represents and warrants to the
 licensee that it is not a competitor of Gaussian, Inc. and that
 it will not use this program in any manner prohibited above.
 ---------------------------------------------------------------
  

 Cite this work as:
 Gaussian 16, Revision A.03,
 M. J. Frisch, G. W. Trucks, H. B. Schlegel, G. E. Scuseria, 
 M. A. Robb, J. R. Cheeseman, G. Scalmani, V. Barone, 
 G. A. Petersson, H. Nakatsuji, X. Li, M. Caricato, A. V. Marenich, 
 J. Bloino, B. G. Janesko, R. Gomperts, B. Mennucci, H. P. Hratchian, 
 J. V. Ortiz, A. F. Izmaylov, J. L. Sonnenberg, D. Williams-Young, 
 F. Ding, F. Lipparini, F. Egidi, J. Goings, B. Peng, A. Petrone, 
 T. Henderson, D. Ranasinghe, V. G. Zakrzewski, J. Gao, N. Rega, 
 G. Zheng, W. Liang, M. Hada, M. Ehara, K. Toyota, R. Fukuda, 
 J. Hasegawa, M. Ishida, T. Nakajima, Y. Honda, O. Kitao, H. Nakai, 
 T. Vreven, K. Throssell, J. A. Montgomery, Jr., J. E. Peralta, 
 F. Ogliaro, M. J. Bearpark, J. J. Heyd, E. N. Brothers, K. N. Kudin, 
 V. N. Staroverov, T. A. Keith, R. Kobayashi, J. Normand, 
 K. Raghavachari, A. P. Rendell, J. C. Burant, S. S. Iyengar, 
 J. Tomasi, M. Cossi, J. M. Millam, M. Klene, C. Adamo, R. Cammi, 
 J. W. Ochterski, R. L. Martin, K. Morokuma, O. Farkas, 
 J. B. Foresman, and D. J. Fox, Gaussian, Inc., Wallingford CT, 2016.
 
 ******************************************
 Gaussian 16:  EM64M-G16RevA.03 25-Dec-2016
                22-Feb-2024 
 ******************************************
 %nprocshared=8
 Will use up to    8 processors via shared memory.
 %mem=8GB
 %chk= 0.chk
 ---------------------
 # freq b3lyp/6-31g(d)
 ---------------------
 1/10=4,30=1,38=1/1,3;
 2/12=2,17=6,18=5,40=1/2;
 3/5=1,6=6,7=1,11=2,25=1,30=1,71=2,74=-5,140=1/1,2,3;
 4//1;
 5/5=2,38=5,98=1/2;
 8/6=4,10=90,11=11/1;
 11/6=1,8=1,9=11,15=111,16=1/1,2,10;
 10/6=1/2;
 6/7=2,8=2,9=2,10=2,28=1/1;
 7/8=1,10=1,25=1/1,2,3,16;
 1/10=4,30=1/3;
 99//99;
 ---------
 good luck
 ---------
 Symbolic Z-matrix:
 Charge =  0 Multiplicity = 1
 O                     1.21425   0.        0. 
 C                     0.        0.        0. 
 C                    -0.83635  -1.2966    0.00687 
 C                    -1.85691  -1.24474  -1.15369 
 C                    -2.66491   0.00002  -0.75443 
 F                    -3.94006   0.00003  -1.30247 
 C                    -1.85689   1.24476  -1.15369 
 C                    -0.83633   1.29661   0.00687 
 C                    -1.82051   1.2443    1.20311 
 C                    -2.65901   0.00002   0.83348 
 C                    -1.82053  -1.24428   1.20311 
 H                    -0.16681  -2.15965  -0.00683 
 H                    -1.41133  -1.15759  -2.14977 
 H                    -2.49058  -2.1389   -1.13563 
 H                    -1.41132   1.15761  -2.14977 
 H                    -2.49055   2.13894  -1.13563 
 H                    -0.16678   2.15966  -0.00683 
 H                    -2.4221    2.16081   1.21816 
 H                    -1.33075   1.14969   2.17804 
 H                    -3.67104   0.00003   1.24466 
 H                    -2.42213  -2.16077   1.21816 
 H                    -1.33077  -1.14967   2.17804 
 

 GradGradGradGradGradGradGradGradGradGradGradGradGradGradGradGradGradGrad
 Berny optimization.
 Initialization pass.
 Trust Radius=3.00D-01 FncErr=1.00D-07 GrdErr=1.00D-07 EigMax=2.50D+02 EigMin=1.00D-04
 Number of steps in this run=      2 maximum allowed number of steps=      2.
 GradGradGradGradGradGradGradGradGradGradGradGradGradGradGradGradGradGrad

                          Input orientation:                          
 ---------------------------------------------------------------------
 Center     Atomic      Atomic             Coordinates (Angstroms)
 Number     Number       Type             X           Y           Z
 ---------------------------------------------------------------------
      1          8           0        1.214246    0.000000    0.000000
      2          6           0        0.000000    0.000000    0.000000
      3          6           0       -0.836352   -1.296596    0.006865
      4          6           0       -1.856912   -1.244737   -1.153685
      5          6           0       -2.664912    0.000020   -0.754429
      6          9           0       -3.940058    0.000030   -1.302473
      7          6           0       -1.856894    1.244764   -1.153685
      8          6           0       -0.836333    1.296608    0.006865
      9          6           0       -1.820508    1.244304    1.203107
     10          6           0       -2.659005    0.000020    0.833482
     11          6           0       -1.820527   -1.244277    1.203107
     12          1           0       -0.166808   -2.159655   -0.006833
     13          1           0       -1.411332   -1.157594   -2.149770
     14          1           0       -2.490582   -2.138904   -1.135632
     15          1           0       -1.411315    1.157614   -2.149771
     16          1           0       -2.490550    2.138941   -1.135632
     17          1           0       -0.166776    2.159657   -0.006833
     18          1           0       -2.422099    2.160807    1.218161
     19          1           0       -1.330751    1.149689    2.178040
     20          1           0       -3.671042    0.000028    1.244656
     21          1           0       -2.422131   -2.160770    1.218161
     22          1           0       -1.330767   -1.149669    2.178040
 ---------------------------------------------------------------------
                    Distance matrix (angstroms):
                    1          2          3          4          5
     1  O    0.000000
     2  C    1.214246   0.000000
     3  C    2.426141   1.542949   0.000000
     4  C    3.508899   2.515647   1.546321   0.000000
     5  C    3.951839   2.769642   2.367364   1.536779   0.000000
     6  F    5.316323   4.149758   3.609515   2.431271   1.387930
     7  C    3.508893   2.515647   2.974373   2.489501   1.536778
     8  C    2.426131   1.542949   2.593204   2.974373   2.367364
     9  C    3.493636   2.511973   2.975858   3.427991   2.468442
    10  C    3.961914   2.786575   2.384654   2.478226   1.587922
    11  C    3.493643   2.511973   1.549946   2.357073   2.468442
    12  H    2.563487   2.166098   1.092405   2.238034   3.385797
    13  H    3.585414   2.820176   2.236291   1.094678   2.204203
    14  H    4.426095   3.473841   2.179738   1.096083   2.179611
    15  H    3.585409   2.820177   3.317350   2.638567   2.204202
    16  H    4.426087   3.473841   3.980526   3.442543   2.179610
    17  H    2.563472   2.166098   3.520540   3.970104   3.385796
    18  H    4.401819   3.466925   3.991925   4.188415   2.935825
    19  H    3.541561   2.799382   3.307981   4.136486   3.420687
    20  H    5.041350   3.876302   3.353927   3.254619   2.237999
    21  H    4.401827   3.466924   2.174564   2.604658   2.935825
    22  H    3.541566   2.799382   2.231599   3.374353   3.420687
                    6          7          8          9         10
     6  F    0.000000
     7  C    2.431270   0.000000
     8  C    3.609514   1.546321   0.000000
     9  C    3.509792   2.357073   1.549946   0.000000
    10  C    2.490663   2.478226   2.384653   1.545297   0.000000
    11  C    3.509792   3.427990   2.975858   2.488581   1.545297
    12  H    4.536556   3.970104   3.520540   3.973112   3.403141
    13  H    2.907312   2.638567   3.317349   4.144674   3.434611
    14  H    2.589180   3.442542   3.980525   4.167109   2.912177
    15  H    2.907311   1.094679   2.236292   3.378867   3.434611
    16  H    2.589179   1.096083   2.179738   2.592110   2.912176
    17  H    4.536555   2.238034   1.092405   2.244249   3.403141
    18  H    3.650582   2.604658   2.174565   1.096411   2.207511
    19  H    4.499352   3.374353   2.231599   1.095129   2.212201
    20  H    2.561296   3.254618   3.353926   2.230342   1.092375
    21  H    3.650583   4.188414   3.991924   3.457847   2.207510
    22  H    4.499353   4.136485   3.307981   2.630864   2.212202
                   11         12         13         14         15
    11  C    0.000000
    12  H    2.244250   0.000000
    13  H    3.378866   2.673040   0.000000
    14  H    2.592109   2.583514   1.776577   0.000000
    15  H    4.144674   4.140683   2.315208   3.613907   0.000000
    16  H    4.167109   5.015166   3.613908   4.277845   1.776578
    17  H    3.973111   4.319312   4.140683   5.015166   2.673041
    18  H    3.457848   5.025270   4.834914   4.902300   3.656644
    19  H    2.630865   4.132819   4.905098   4.810455   4.328568
    20  H    2.230342   4.302338   4.238927   3.410907   4.238927
    21  H    1.096409   2.566533   3.656643   2.354890   4.834913
    22  H    1.095130   2.673676   4.328567   3.647489   4.905098
                   16         17         18         19         20
    16  H    0.000000
    17  H    2.583513   0.000000
    18  H    2.354890   2.566533   0.000000
    19  H    3.647489   2.673676   1.770528   0.000000
    20  H    3.410906   4.302337   2.495902   2.769456   0.000000
    21  H    4.902299   5.025269   4.321577   3.615469   2.495902
    22  H    4.810455   4.132818   3.615470   2.299358   2.769458
                   21         22
    21  H    0.000000
    22  H    1.770528   0.000000
 Stoichiometry    C9H11FO
 Framework group  C1[X(C9H11FO)]
 Deg. of freedom    60
 Full point group                 C1      NOp   1
 Largest Abelian subgroup         C1      NOp   1
 Largest concise Abelian subgroup C1      NOp   1
                         Standard orientation:                         
 ---------------------------------------------------------------------
 Center     Atomic      Atomic             Coordinates (Angstroms)
 Number     Number       Type             X           Y           Z
 ---------------------------------------------------------------------
      1          8           0       -2.735275   -0.000004   -0.669715
      2          6           0       -1.568191    0.000004   -0.334589
      3          6           0       -0.766225    1.296605   -0.097168
      4          6           0        0.535001    1.244748   -0.930973
      5          6           0        1.201432   -0.000003   -0.324215
      6          9           0        2.578307   -0.000007   -0.499039
      7          6           0        0.534996   -1.244753   -0.930966
      8          6           0       -0.766230   -1.296599   -0.097162
      9          6           0       -0.150438   -1.244286    1.324244
     10          6           0        0.757499    0.000002    1.200390
     11          6           0       -0.150432    1.244295    1.324238
     12          1           0       -1.405987    2.159660   -0.295129
     13          1           0        0.381642    1.157600   -2.011346
     14          1           0        1.139072    2.138919   -0.738735
     15          1           0        0.381638   -1.157608   -2.011341
     16          1           0        1.139062   -2.138926   -0.738725
     17          1           0       -1.405997   -2.159652   -0.295118
     18          1           0        0.423636   -2.160785    1.504753
     19          1           0       -0.890249   -1.149671    2.126139
     20          1           0        1.616746    0.000001    1.874910
     21          1           0        0.423646    2.160792    1.504742
     22          1           0       -0.890245    1.149687    2.126133
 ---------------------------------------------------------------------
 Rotational constants (GHZ):           1.8747376           1.1128326           1.0512371
 Standard basis: 6-31G(d) (6D, 7F)
 There are   187 symmetry adapted cartesian basis functions of A   symmetry.
 There are   187 symmetry adapted basis functions of A   symmetry.
   187 basis functions,   352 primitive gaussians,   187 cartesian basis functions
    41 alpha electrons       41 beta electrons
       nuclear repulsion energy       668.2912143341 Hartrees.
 NAtoms=   22 NActive=   22 NUniq=   22 SFac= 1.00D+00 NAtFMM=   60 NAOKFM=F Big=F
 Integral buffers will be    131072 words long.
 Raffenetti 2 integral format.
 Two-electron integral symmetry is turned on.
 One-electron integrals computed using PRISM.
 NBasis=   187 RedAO= T EigKep=  1.60D-03  NBF=   187
 NBsUse=   187 1.00D-06 EigRej= -1.00D+00 NBFU=   187
 ExpMin= 1.61D-01 ExpMax= 7.00D+03 ExpMxC= 1.05D+03 IAcc=3 IRadAn=         5 AccDes= 0.00D+00
 Harris functional with IExCor=  402 and IRadAn=       5 diagonalized for initial guess.
 HarFok:  IExCor=  402 AccDes= 0.00D+00 IRadAn=         5 IDoV= 1 UseB2=F ITyADJ=14
 ICtDFT=  3500011 ScaDFX=  1.000000  1.000000  1.000000  1.000000
 FoFCou: FMM=F IPFlag=           0 FMFlag=      100000 FMFlg1=           0
         NFxFlg=           0 DoJE=T BraDBF=F KetDBF=T FulRan=T
         wScrn=  0.000000 ICntrl=       500 IOpCl=  0 I1Cent=   200000004 NGrid=           0
         NMat0=    1 NMatS0=      1 NMatT0=    0 NMatD0=    1 NMtDS0=    0 NMtDT0=    0
 Petite list used in FoFCou.
 Requested convergence on RMS density matrix=1.00D-08 within 128 cycles.
 Requested convergence on MAX density matrix=1.00D-06.
 Requested convergence on             energy=1.00D-06.
 No special actions if energy rises.
 Integral accuracy reduced to 1.0D-05 until final iterations.
 Initial convergence to 1.0D-05 achieved.  Increase integral accuracy.
 SCF Done:  E(RB3LYP) =  -524.637402813     A.U. after   14 cycles
            NFock= 14  Conv=0.51D-08     -V/T= 2.0088
 DoSCS=F DFT=T ScalE2(SS,OS)=  1.000000  1.000000
 Range of M.O.s used for correlation:     1   187
 NBasis=   187 NAE=    41 NBE=    41 NFC=     0 NFV=     0
 NROrb=    187 NOA=    41 NOB=    41 NVA=   146 NVB=   146

 **** Warning!!: The largest alpha MO coefficient is  0.13887825D+02

 Symmetrizing basis deriv contribution to polar:
 IMax=3 JMax=2 DiffMx= 0.00D+00
 G2DrvN: will do    23 centers at a time, making    1 passes.
 Calling FoFCou, ICntrl=  3107 FMM=F I1Cent=   0 AccDes= 0.00D+00.
 End of G2Drv F.D. properties file   721 does not exist.
 End of G2Drv F.D. properties file   722 does not exist.
 End of G2Drv F.D. properties file   788 does not exist.
          IDoAtm=1111111111111111111111
          Differentiating once with respect to electric field.
                with respect to dipole field.
          Differentiating once with respect to nuclear coordinates.
 Keep R1 ints in memory in canonical form, NReq=162602428.
          There are    69 degrees of freedom in the 1st order CPHF.  IDoFFX=6 NUNeed=     3.
     66 vectors produced by pass  0 Test12= 8.68D-15 1.45D-09 XBig12= 6.91D+01 3.18D+00.
 AX will form    66 AO Fock derivatives at one time.
     66 vectors produced by pass  1 Test12= 8.68D-15 1.45D-09 XBig12= 1.08D+01 7.13D-01.
     66 vectors produced by pass  2 Test12= 8.68D-15 1.45D-09 XBig12= 1.48D-01 3.82D-02.
     66 vectors produced by pass  3 Test12= 8.68D-15 1.45D-09 XBig12= 7.61D-04 5.02D-03.
     66 vectors produced by pass  4 Test12= 8.68D-15 1.45D-09 XBig12= 8.40D-07 9.81D-05.
     39 vectors produced by pass  5 Test12= 8.68D-15 1.45D-09 XBig12= 6.57D-10 2.80D-06.
      5 vectors produced by pass  6 Test12= 8.68D-15 1.45D-09 XBig12= 4.15D-13 6.31D-08.
      1 vectors produced by pass  7 Test12= 8.68D-15 1.45D-09 XBig12= 3.15D-16 2.62D-09.
 InvSVY:  IOpt=1 It=  1 EMax= 4.44D-15
 Solved reduced A of dimension   375 with    69 vectors.
 Isotropic polarizability for W=    0.000000       84.89 Bohr**3.
 End of Minotr F.D. properties file   721 does not exist.
 End of Minotr F.D. properties file   722 does not exist.
 End of Minotr F.D. properties file   788 does not exist.

 **********************************************************************

            Population analysis using the SCF density.

 **********************************************************************

 Orbital symmetries:
       Occupied  (A) (A) (A) (A) (A) (A) (A) (A) (A) (A) (A) (A)
                 (A) (A) (A) (A) (A) (A) (A) (A) (A) (A) (A) (A)
                 (A) (A) (A) (A) (A) (A) (A) (A) (A) (A) (A) (A)
                 (A) (A) (A) (A) (A)
       Virtual   (A) (A) (A) (A) (A) (A) (A) (A) (A) (A) (A) (A)
                 (A) (A) (A) (A) (A) (A) (A) (A) (A) (A) (A) (A)
                 (A) (A) (A) (A) (A) (A) (A) (A) (A) (A) (A) (A)
                 (A) (A) (A) (A) (A) (A) (A) (A) (A) (A) (A) (A)
                 (A) (A) (A) (A) (A) (A) (A) (A) (A) (A) (A) (A)
                 (A) (A) (A) (A) (A) (A) (A) (A) (A) (A) (A) (A)
                 (A) (A) (A) (A) (A) (A) (A) (A) (A) (A) (A) (A)
                 (A) (A) (A) (A) (A) (A) (A) (A) (A) (A) (A) (A)
                 (A) (A) (A) (A) (A) (A) (A) (A) (A) (A) (A) (A)
                 (A) (A) (A) (A) (A) (A) (A) (A) (A) (A) (A) (A)
                 (A) (A) (A) (A) (A) (A) (A) (A) (A) (A) (A) (A)
                 (A) (A) (A) (A) (A) (A) (A) (A) (A) (A) (A) (A)
                 (A) (A)
 The electronic state is 1-A.
 Alpha  occ. eigenvalues --  -24.67591 -19.14153 -10.27518 -10.27087 -10.20452
 Alpha  occ. eigenvalues --  -10.20451 -10.20156 -10.19889 -10.19887 -10.19699
 Alpha  occ. eigenvalues --  -10.19698  -1.18321  -1.04019  -0.89637  -0.79974
 Alpha  occ. eigenvalues --   -0.75644  -0.72301  -0.67309  -0.61654  -0.61373
 Alpha  occ. eigenvalues --   -0.55682  -0.54098  -0.52098  -0.47621  -0.45711
 Alpha  occ. eigenvalues --   -0.45593  -0.45060  -0.42722  -0.42637  -0.41608
 Alpha  occ. eigenvalues --   -0.40266  -0.40151  -0.38328  -0.37817  -0.35007
 Alpha  occ. eigenvalues --   -0.34248  -0.32934  -0.32738  -0.30841  -0.30461
 Alpha  occ. eigenvalues --   -0.23968
 Alpha virt. eigenvalues --   -0.01890   0.06995   0.09105   0.11390   0.12400
 Alpha virt. eigenvalues --    0.13258   0.13951   0.13984   0.16133   0.16665
 Alpha virt. eigenvalues --    0.17365   0.17560   0.17870   0.19701   0.20069
 Alpha virt. eigenvalues --    0.20413   0.21950   0.22918   0.24874   0.26586
 Alpha virt. eigenvalues --    0.27838   0.31428   0.31457   0.32305   0.34780
 Alpha virt. eigenvalues --    0.51538   0.51808   0.52052   0.55249   0.56111
 Alpha virt. eigenvalues --    0.57255   0.58506   0.60072   0.60871   0.61752
 Alpha virt. eigenvalues --    0.62770   0.63533   0.64932   0.66857   0.68842
 Alpha virt. eigenvalues --    0.69861   0.72834   0.73873   0.75376   0.75551
 Alpha virt. eigenvalues --    0.79252   0.81680   0.83515   0.83813   0.85005
 Alpha virt. eigenvalues --    0.85181   0.85932   0.86670   0.87505   0.91650
 Alpha virt. eigenvalues --    0.92265   0.93615   0.93942   0.96175   0.96530
 Alpha virt. eigenvalues --    0.98816   0.99104   1.06387   1.09167   1.11753
 Alpha virt. eigenvalues --    1.15768   1.19260   1.19464   1.20589   1.29177
 Alpha virt. eigenvalues --    1.35477   1.37946   1.38202   1.41491   1.42644
 Alpha virt. eigenvalues --    1.52602   1.55413   1.56999   1.61697   1.63655
 Alpha virt. eigenvalues --    1.65404   1.66693   1.69587   1.73226   1.75529
 Alpha virt. eigenvalues --    1.76579   1.77542   1.77938   1.80741   1.82161
 Alpha virt. eigenvalues --    1.84394   1.85822   1.89753   1.90282   1.90962
 Alpha virt. eigenvalues --    1.91952   1.97679   1.99299   2.00784   2.02285
 Alpha virt. eigenvalues --    2.05265   2.07391   2.10303   2.11986   2.13969
 Alpha virt. eigenvalues --    2.17326   2.18593   2.20672   2.23463   2.25315
 Alpha virt. eigenvalues --    2.28357   2.29974   2.30174   2.37847   2.39502
 Alpha virt. eigenvalues --    2.40270   2.41250   2.47816   2.48116   2.52475
 Alpha virt. eigenvalues --    2.57797   2.58736   2.61725   2.62585   2.64975
 Alpha virt. eigenvalues --    2.66624   2.67883   2.68370   2.75603   2.76013
 Alpha virt. eigenvalues --    2.83749   2.86357   3.00562   3.01062   3.15589
 Alpha virt. eigenvalues --    4.03758   4.19422   4.28660   4.32647   4.36182
 Alpha virt. eigenvalues --    4.47691   4.61341   4.77582   4.82076   4.85740
 Alpha virt. eigenvalues --    5.40494
          Condensed to atoms (all electrons):
               1          2          3          4          5          6
     1  O    8.007183   0.575261  -0.071397   0.001680  -0.000093   0.000000
     2  C    0.575261   4.503999   0.332330  -0.024505  -0.024699   0.000235
     3  C   -0.071397   0.332330   5.289864   0.280442  -0.033597   0.001320
     4  C    0.001680  -0.024505   0.280442   5.275594   0.356029  -0.035815
     5  C   -0.000093  -0.024699  -0.033597   0.356029   4.583628   0.262776
     6  F    0.000000   0.000235   0.001320  -0.035815   0.262776   9.168884
     7  C    0.001680  -0.024505  -0.001330  -0.068126   0.356029  -0.035815
     8  C   -0.071399   0.332332  -0.121136  -0.001330  -0.033597   0.001320
     9  C    0.001291  -0.026373  -0.007575   0.003691  -0.061537   0.001434
    10  C   -0.000157  -0.030877  -0.031965  -0.101050   0.377258  -0.030188
    11  C    0.001291  -0.026372   0.320912  -0.055190  -0.061537   0.001434
    12  H    0.003260  -0.029784   0.344924  -0.025056   0.003883  -0.000029
    13  H    0.000330  -0.001814  -0.032940   0.362069  -0.029056   0.001198
    14  H   -0.000076   0.003142  -0.023249   0.348270  -0.024499   0.001072
    15  H    0.000330  -0.001814   0.000866  -0.009549  -0.029056   0.001198
    16  H   -0.000076   0.003142  -0.000392   0.006109  -0.024499   0.001072
    17  H    0.003260  -0.029784   0.006308  -0.000502   0.003883  -0.000029
    18  H   -0.000080   0.003262  -0.000301  -0.000032  -0.002258   0.000078
    19  H    0.000411  -0.001961   0.000701  -0.000264   0.004293  -0.000027
    20  H    0.000002   0.000688   0.004121   0.004290  -0.031270   0.002147
    21  H   -0.000080   0.003262  -0.030432  -0.004665  -0.002258   0.000078
    22  H    0.000411  -0.001961  -0.034331   0.005807   0.004293  -0.000027
               7          8          9         10         11         12
     1  O    0.001680  -0.071399   0.001291  -0.000157   0.001291   0.003260
     2  C   -0.024505   0.332332  -0.026373  -0.030877  -0.026372  -0.029784
     3  C   -0.001330  -0.121136  -0.007575  -0.031965   0.320912   0.344924
     4  C   -0.068126  -0.001330   0.003691  -0.101050  -0.055190  -0.025056
     5  C    0.356029  -0.033597  -0.061537   0.377258  -0.061537   0.003883
     6  F   -0.035815   0.001320   0.001434  -0.030188   0.001434  -0.000029
     7  C    5.275594   0.280441  -0.055189  -0.101050   0.003690  -0.000502
     8  C    0.280441   5.289865   0.320911  -0.031965  -0.007575   0.006308
     9  C   -0.055189   0.320911   5.120818   0.351515  -0.043955  -0.000231
    10  C   -0.101050  -0.031965   0.351515   5.161008   0.351515   0.004983
    11  C    0.003690  -0.007575  -0.043955   0.351515   5.120817  -0.027597
    12  H   -0.000502   0.006308  -0.000231   0.004983  -0.027597   0.578782
    13  H   -0.009549   0.000866  -0.000176   0.006645   0.005664   0.000130
    14  H    0.006109  -0.000392   0.000053  -0.004584  -0.004956  -0.004245
    15  H    0.362069  -0.032940   0.005664   0.006645  -0.000176  -0.000077
    16  H    0.348270  -0.023249  -0.004956  -0.004584   0.000053   0.000022
    17  H   -0.025056   0.344924  -0.027597   0.004983  -0.000231  -0.000139
    18  H   -0.004665  -0.030431   0.362676  -0.028514   0.004943   0.000020
    19  H    0.005807  -0.034331   0.367879  -0.032271  -0.008547  -0.000094
    20  H    0.004290   0.004121  -0.028634   0.356525  -0.028634  -0.000153
    21  H   -0.000032  -0.000301   0.004943  -0.028514   0.362676  -0.003877
    22  H   -0.000264   0.000701  -0.008547  -0.032271   0.367879  -0.000037
              13         14         15         16         17         18
     1  O    0.000330  -0.000076   0.000330  -0.000076   0.003260  -0.000080
     2  C   -0.001814   0.003142  -0.001814   0.003142  -0.029784   0.003262
     3  C   -0.032940  -0.023249   0.000866  -0.000392   0.006308  -0.000301
     4  C    0.362069   0.348270  -0.009549   0.006109  -0.000502  -0.000032
     5  C   -0.029056  -0.024499  -0.029056  -0.024499   0.003883  -0.002258
     6  F    0.001198   0.001072   0.001198   0.001072  -0.000029   0.000078
     7  C   -0.009549   0.006109   0.362069   0.348270  -0.025056  -0.004665
     8  C    0.000866  -0.000392  -0.032940  -0.023249   0.344924  -0.030431
     9  C   -0.000176   0.000053   0.005664  -0.004956  -0.027597   0.362676
    10  C    0.006645  -0.004584   0.006645  -0.004584   0.004983  -0.028514
    11  C    0.005664  -0.004956  -0.000176   0.000053  -0.000231   0.004943
    12  H    0.000130  -0.004245  -0.000077   0.000022  -0.000139   0.000020
    13  H    0.570612  -0.032981   0.005345   0.000200  -0.000077   0.000007
    14  H   -0.032981   0.574675   0.000200  -0.000236   0.000022  -0.000005
    15  H    0.005345   0.000200   0.570612  -0.032981   0.000130  -0.000024
    16  H    0.000200  -0.000236  -0.032981   0.574676  -0.004245   0.005868
    17  H   -0.000077   0.000022   0.000130  -0.004245   0.578782  -0.003877
    18  H    0.000007  -0.000005  -0.000024   0.005868  -0.003877   0.584429
    19  H    0.000010   0.000006  -0.000150  -0.000075  -0.000037  -0.034961
    20  H   -0.000113  -0.000086  -0.000113  -0.000086  -0.000153  -0.004976
    21  H   -0.000024   0.005868   0.000007  -0.000005   0.000020  -0.000200
    22  H   -0.000150  -0.000075   0.000010   0.000006  -0.000094   0.000224
              19         20         21         22
     1  O    0.000411   0.000002  -0.000080   0.000411
     2  C   -0.001961   0.000688   0.003262  -0.001961
     3  C    0.000701   0.004121  -0.030432  -0.034331
     4  C   -0.000264   0.004290  -0.004665   0.005807
     5  C    0.004293  -0.031270  -0.002258   0.004293
     6  F   -0.000027   0.002147   0.000078  -0.000027
     7  C    0.005807   0.004290  -0.000032  -0.000264
     8  C   -0.034331   0.004121  -0.000301   0.000701
     9  C    0.367879  -0.028634   0.004943  -0.008547
    10  C   -0.032271   0.356525  -0.028514  -0.032271
    11  C   -0.008547  -0.028634   0.362676   0.367879
    12  H   -0.000094  -0.000153  -0.003877  -0.000037
    13  H    0.000010  -0.000113  -0.000024  -0.000150
    14  H    0.000006  -0.000086   0.005868  -0.000075
    15  H   -0.000150  -0.000113   0.000007   0.000010
    16  H   -0.000075  -0.000086  -0.000005   0.000006
    17  H   -0.000037  -0.000153   0.000020  -0.000094
    18  H   -0.034961  -0.004976  -0.000200   0.000224
    19  H    0.578796   0.000695   0.000224   0.005166
    20  H    0.000695   0.575243  -0.004976   0.000695
    21  H    0.000224  -0.004976   0.584428  -0.034961
    22  H    0.005166   0.000695  -0.034961   0.578796
 Mulliken charges:
               1
     1  O   -0.453033
     2  C    0.466796
     3  C   -0.193142
     4  C   -0.317898
     5  C    0.405885
     6  F   -0.342315
     7  C   -0.317898
     8  C   -0.193142
     9  C   -0.276103
    10  C   -0.163085
    11  C   -0.276103
    12  H    0.149510
    13  H    0.153806
    14  H    0.155967
    15  H    0.153806
    16  H    0.155966
    17  H    0.149510
    18  H    0.148818
    19  H    0.148731
    20  H    0.146376
    21  H    0.148818
    22  H    0.148731
 Sum of Mulliken charges =  -0.00000
 Mulliken charges with hydrogens summed into heavy atoms:
               1
     1  O   -0.453033
     2  C    0.466796
     3  C   -0.043632
     4  C   -0.008125
     5  C    0.405885
     6  F   -0.342315
     7  C   -0.008126
     8  C   -0.043632
     9  C    0.021445
    10  C   -0.016709
    11  C    0.021446
 APT charges:
               1
     1  O   -0.641642
     2  C    0.708117
     3  C   -0.041073
     4  C    0.031384
     5  C    0.580226
     6  F   -0.517612
     7  C    0.031385
     8  C   -0.041073
     9  C    0.101036
    10  C    0.003603
    11  C    0.101036
    12  H   -0.030589
    13  H   -0.020493
    14  H   -0.024160
    15  H   -0.020494
    16  H   -0.024161
    17  H   -0.030589
    18  H   -0.038697
    19  H   -0.027227
    20  H   -0.033054
    21  H   -0.038696
    22  H   -0.027227
 Sum of APT charges =   0.00000
 APT charges with hydrogens summed into heavy atoms:
               1
     1  O   -0.641642
     2  C    0.708117
     3  C   -0.071662
     4  C   -0.013269
     5  C    0.580226
     6  F   -0.517612
     7  C   -0.013270
     8  C   -0.071662
     9  C    0.035112
    10  C   -0.029451
    11  C    0.035113
 Electronic spatial extent (au):  <R**2>=           1338.2722
 Charge=             -0.0000 electrons
 Dipole moment (field-independent basis, Debye):
    X=              1.3156    Y=              0.0000    Z=              1.1721  Tot=              1.7620
 Quadrupole moment (field-independent basis, Debye-Ang):
   XX=            -79.0652   YY=            -59.9107   ZZ=            -61.8055
   XY=              0.0000   XZ=             -1.7697   YZ=             -0.0000
 Traceless Quadrupole moment (field-independent basis, Debye-Ang):
   XX=            -12.1381   YY=              7.0165   ZZ=              5.1216
   XY=              0.0000   XZ=             -1.7697   YZ=             -0.0000
 Octapole moment (field-independent basis, Debye-Ang**2):
  XXX=             28.0637  YYY=             -0.0000  ZZZ=             -7.2720  XYY=              4.4075
  XXY=              0.0001  XXZ=             11.8854  XZZ=              4.4982  YZZ=             -0.0000
  YYZ=             -2.0912  XYZ=             -0.0000
 Hexadecapole moment (field-independent basis, Debye-Ang**3):
 XXXX=           -870.3614 YYYY=           -479.3194 ZZZZ=           -399.8721 XXXY=             -0.0000
 XXXZ=            -20.0975 YYYX=             -0.0001 YYYZ=             -0.0000 ZZZX=             -5.7596
 ZZZY=              0.0001 XXYY=           -197.6780 XXZZ=           -192.5217 YYZZ=           -151.3943
 XXYZ=             -0.0000 YYXZ=              0.2275 ZZXY=             -0.0000
 N-N= 6.682912143341D+02 E-N=-2.560912684110D+03  KE= 5.200741255600D+02
  Exact polarizability:  88.549   0.000  85.810   2.181  -0.000  80.319
 Approx polarizability: 139.954   0.000 120.440   5.617   0.000 118.259
 Calling FoFJK, ICntrl=    100127 FMM=F ISym2X=0 I1Cent= 0 IOpClX= 0 NMat=1 NMatS=1 NMatT=0.
 Full mass-weighted force constant matrix:
 Low frequencies ---  -15.5618   -6.3403    0.0007    0.0010    0.0011    7.0534
 Low frequencies ---  107.5431  211.6371  304.3251
 Diagonal vibrational polarizability:
        5.8757722       5.9943393      12.4421361
 Harmonic frequencies (cm**-1), IR intensities (KM/Mole), Raman scattering
 activities (A**4/AMU), depolarization ratios for plane and unpolarized
 incident light, reduced masses (AMU), force constants (mDyne/A),
 and normal coordinates:
                      1                      2                      3
                      A                      A                      A
 Frequencies --    107.5431               211.6364               304.3250
 Red. masses --      8.1446                 2.9979                 4.1629
 Frc consts  --      0.0555                 0.0791                 0.2272
 IR Inten    --      4.8175                 1.8118                 1.7162
  Atom  AN      X      Y      Z        X      Y      Z        X      Y      Z
     1   8    -0.17   0.00   0.51     0.00   0.05  -0.00    -0.00   0.00  -0.04
     2   6    -0.01  -0.00  -0.04     0.00   0.02  -0.00    -0.03   0.00   0.07
     3   6     0.04  -0.00  -0.20     0.01  -0.01   0.08    -0.02   0.00   0.03
     4   6     0.12  -0.01  -0.07    -0.10  -0.11  -0.05    -0.10  -0.03  -0.13
     5   6     0.06  -0.00   0.01    -0.00  -0.05   0.00    -0.05   0.00  -0.06
     6   9     0.09   0.00   0.18    -0.00   0.19  -0.00    -0.01   0.00   0.31
     7   6     0.12   0.01  -0.07     0.10  -0.11   0.05    -0.10   0.03  -0.13
     8   6     0.04   0.00  -0.20    -0.01  -0.01  -0.08    -0.02  -0.00   0.03
     9   6    -0.09  -0.01  -0.13    -0.15   0.02  -0.03     0.14  -0.04  -0.04
    10   6    -0.09  -0.00  -0.04     0.00  -0.07   0.00     0.04  -0.00  -0.10
    11   6    -0.09   0.01  -0.13     0.15   0.02   0.03     0.14   0.04  -0.04
    12   1     0.06   0.00  -0.25     0.02   0.01   0.13    -0.03   0.00   0.06
    13   1     0.23  -0.03  -0.09    -0.24  -0.25  -0.02    -0.25  -0.14  -0.09
    14   1     0.09  -0.00  -0.03    -0.06  -0.10  -0.24    -0.11   0.01  -0.29
    15   1     0.23   0.03  -0.09     0.24  -0.25   0.02    -0.25   0.14  -0.09
    16   1     0.09   0.00  -0.03     0.06  -0.10   0.24    -0.11  -0.01  -0.29
    17   1     0.06  -0.00  -0.25    -0.02   0.01  -0.13    -0.03  -0.00   0.06
    18   1    -0.10  -0.01  -0.09    -0.28  -0.03   0.12     0.24   0.00  -0.17
    19   1    -0.18  -0.03  -0.21    -0.24   0.16  -0.12     0.23  -0.15   0.06
    20   1    -0.16  -0.00   0.05     0.00  -0.20   0.00     0.13  -0.00  -0.21
    21   1    -0.10   0.01  -0.09     0.28  -0.03  -0.12     0.24  -0.00  -0.17
    22   1    -0.18   0.03  -0.21     0.24   0.16   0.12     0.23   0.15   0.06
                      4                      5                      6
                      A                      A                      A
 Frequencies --    323.4770               393.1917               407.2245
 Red. masses --      3.6103                 2.9416                 8.4560
 Frc consts  --      0.2226                 0.2679                 0.8262
 IR Inten    --      3.5542                 0.9478                 0.6953
  Atom  AN      X      Y      Z        X      Y      Z        X      Y      Z
     1   8     0.00   0.21   0.00    -0.00  -0.08  -0.00     0.36  -0.00   0.11
     2   6     0.00   0.07   0.00    -0.00  -0.04  -0.00     0.34  -0.00   0.06
     3   6     0.04  -0.01  -0.10     0.07  -0.03  -0.09     0.10   0.15  -0.01
     4   6     0.02  -0.09  -0.06     0.15   0.02   0.06    -0.01   0.12  -0.06
     5   6    -0.00  -0.05   0.00     0.00  -0.04   0.00    -0.23  -0.00  -0.08
     6   9     0.00   0.17  -0.00     0.00   0.17   0.00    -0.28   0.00   0.02
     7   6    -0.02  -0.09   0.06    -0.15   0.02  -0.06    -0.01  -0.12  -0.06
     8   6    -0.04  -0.01   0.10    -0.07  -0.03   0.09     0.10  -0.15  -0.01
     9   6     0.14  -0.12   0.04    -0.09  -0.01   0.07    -0.06  -0.11   0.01
    10   6    -0.00  -0.03   0.00     0.00  -0.08   0.00    -0.20  -0.00  -0.04
    11   6    -0.14  -0.12  -0.04     0.09  -0.01  -0.07    -0.06   0.11   0.01
    12   1     0.08   0.02  -0.12     0.09  -0.02  -0.10    -0.10  -0.01  -0.07
    13   1     0.02  -0.15  -0.06     0.37   0.20   0.02    -0.09   0.19  -0.05
    14   1     0.07  -0.12  -0.11     0.17  -0.05   0.32     0.21  -0.03  -0.04
    15   1    -0.02  -0.15   0.06    -0.37   0.20  -0.02    -0.09  -0.19  -0.05
    16   1    -0.07  -0.12   0.11    -0.17  -0.05  -0.32     0.21   0.03  -0.04
    17   1    -0.08   0.02   0.12    -0.09  -0.02   0.10    -0.10   0.01  -0.07
    18   1     0.26  -0.09  -0.19    -0.18  -0.05   0.16     0.06  -0.01   0.15
    19   1     0.28  -0.29   0.19    -0.11   0.12   0.04    -0.17  -0.15  -0.09
    20   1    -0.00   0.10  -0.00     0.00  -0.10   0.00    -0.11  -0.00  -0.15
    21   1    -0.26  -0.09   0.19     0.18  -0.05  -0.16     0.06   0.01   0.15
    22   1    -0.28  -0.29  -0.19     0.11   0.12  -0.04    -0.17   0.15  -0.09
                      7                      8                      9
                      A                      A                      A
 Frequencies --    475.2009               477.1809               498.5582
 Red. masses --      3.9984                 2.2034                 1.9142
 Frc consts  --      0.5320                 0.2956                 0.2803
 IR Inten    --     11.1408                 0.9393                 0.8315
  Atom  AN      X      Y      Z        X      Y      Z        X      Y      Z
     1   8    -0.00   0.29  -0.00     0.02   0.00  -0.01    -0.07  -0.00  -0.02
     2   6    -0.00  -0.19  -0.00     0.00  -0.00   0.04    -0.06   0.00  -0.03
     3   6    -0.04  -0.22   0.00     0.01  -0.00  -0.02    -0.03   0.02  -0.02
     4   6    -0.03   0.04   0.04    -0.01  -0.11  -0.02     0.05   0.07   0.09
     5   6     0.00   0.05  -0.00     0.02   0.00   0.13    -0.05  -0.00   0.02
     6   9     0.00  -0.02   0.00    -0.00  -0.00  -0.08    -0.07   0.00   0.00
     7   6     0.03   0.04  -0.04    -0.01   0.11  -0.02     0.05  -0.07   0.09
     8   6     0.04  -0.22  -0.00     0.01   0.00  -0.02    -0.03  -0.02  -0.02
     9   6    -0.01   0.04   0.04     0.01  -0.11  -0.02     0.08  -0.07  -0.05
    10   6     0.00   0.05  -0.00    -0.09   0.00   0.15    -0.01   0.00  -0.02
    11   6     0.01   0.04  -0.04     0.01   0.11  -0.02     0.08   0.07  -0.05
    12   1    -0.21  -0.36  -0.05     0.03  -0.01  -0.11    -0.02   0.04  -0.02
    13   1     0.06   0.13   0.02    -0.03  -0.35   0.01     0.23   0.26   0.04
    14   1    -0.17   0.11   0.19    -0.04  -0.04  -0.24     0.07  -0.00   0.34
    15   1    -0.06   0.13  -0.02    -0.03   0.35   0.01     0.23  -0.26   0.04
    16   1     0.17   0.11  -0.19    -0.04   0.04  -0.24     0.07   0.00   0.34
    17   1     0.21  -0.36   0.05     0.03   0.01  -0.11    -0.02  -0.04  -0.02
    18   1    -0.00   0.08   0.26     0.18  -0.04  -0.19     0.23  -0.02  -0.24
    19   1    -0.09   0.15  -0.05     0.01  -0.37   0.01     0.18  -0.27   0.07
    20   1     0.00   0.04  -0.00    -0.17   0.00   0.26     0.00   0.00  -0.04
    21   1     0.00   0.08  -0.26     0.18   0.04  -0.19     0.23   0.02  -0.24
    22   1     0.09   0.15   0.05     0.01   0.37   0.01     0.18   0.27   0.07
                     10                     11                     12
                      A                      A                      A
 Frequencies --    519.4132               608.0616               648.9864
 Red. masses --      3.6750                 6.0177                 3.7725
 Frc consts  --      0.5842                 1.3109                 0.9362
 IR Inten    --      0.5094                10.3651                 3.7675
  Atom  AN      X      Y      Z        X      Y      Z        X      Y      Z
     1   8    -0.00   0.00   0.00     0.06  -0.00  -0.02    -0.00  -0.03  -0.00
     2   6    -0.00  -0.00  -0.00    -0.01   0.00   0.20    -0.00  -0.15   0.00
     3   6     0.02  -0.00  -0.08    -0.09   0.07   0.08     0.18  -0.09   0.05
     4   6    -0.02   0.17  -0.16    -0.05   0.12  -0.00     0.13   0.02  -0.10
     5   6     0.00   0.18  -0.00     0.13  -0.00  -0.15     0.00   0.10  -0.00
     6   9    -0.00  -0.04   0.00     0.34  -0.00  -0.03     0.00   0.03  -0.00
     7   6     0.02   0.17   0.16    -0.05  -0.12  -0.00    -0.13   0.02   0.10
     8   6    -0.02  -0.00   0.08    -0.09  -0.07   0.08    -0.18  -0.09  -0.05
     9   6    -0.07  -0.15   0.09    -0.09  -0.14  -0.02    -0.03   0.06  -0.17
    10   6    -0.00  -0.14  -0.00    -0.19  -0.00  -0.09    -0.00   0.10  -0.00
    11   6     0.07  -0.15  -0.09    -0.09   0.14  -0.02     0.03   0.06   0.17
    12   1    -0.04  -0.01   0.09    -0.18  -0.01  -0.04     0.09  -0.17  -0.02
    13   1    -0.06  -0.05  -0.13    -0.14   0.32  -0.01    -0.02  -0.15  -0.07
    14   1    -0.16   0.30  -0.34    -0.11   0.15   0.10     0.12   0.07  -0.30
    15   1     0.06  -0.05   0.13    -0.14  -0.32  -0.01     0.02  -0.15   0.07
    16   1     0.16   0.30   0.34    -0.11  -0.15   0.10    -0.12   0.07   0.30
    17   1     0.04  -0.01  -0.09    -0.18   0.01  -0.04    -0.09  -0.17   0.02
    18   1    -0.20  -0.22   0.10     0.07  -0.05  -0.06     0.13   0.13  -0.35
    19   1    -0.04  -0.01   0.09    -0.04  -0.24   0.04     0.10  -0.15  -0.02
    20   1     0.00  -0.11  -0.00    -0.27   0.00   0.02    -0.00  -0.15  -0.00
    21   1     0.20  -0.22  -0.10     0.07   0.05  -0.06    -0.13   0.13   0.35
    22   1     0.04  -0.01  -0.09    -0.04   0.24   0.04    -0.10  -0.15   0.02
                     13                     14                     15
                      A                      A                      A
 Frequencies --    677.2684               738.5423               819.7959
 Red. masses --      3.6986                 4.2720                 3.8938
 Frc consts  --      0.9996                 1.3729                 1.5418
 IR Inten    --      1.6101                 0.4349                 4.8259
  Atom  AN      X      Y      Z        X      Y      Z        X      Y      Z
     1   8     0.18  -0.00   0.06     0.03  -0.00  -0.07    -0.02  -0.00  -0.03
     2   6     0.16  -0.00   0.03    -0.11   0.00   0.39    -0.04   0.00   0.11
     3   6    -0.10  -0.18  -0.03     0.02  -0.02   0.01     0.06  -0.20   0.00
     4   6    -0.09  -0.03   0.09     0.10  -0.16   0.02     0.05   0.03  -0.15
     5   6     0.02   0.00   0.06    -0.02   0.00  -0.01    -0.01  -0.00  -0.19
     6   9     0.00   0.00   0.01    -0.07  -0.00   0.00    -0.05   0.00   0.02
     7   6    -0.09   0.03   0.09     0.10   0.16   0.02     0.05  -0.03  -0.15
     8   6    -0.10   0.18  -0.03     0.02   0.02   0.01     0.06   0.20   0.00
     9   6    -0.01   0.07  -0.12    -0.03  -0.03  -0.07    -0.00   0.04   0.07
    10   6     0.06   0.00  -0.03    -0.01  -0.00  -0.19    -0.07   0.00   0.23
    11   6    -0.01  -0.07  -0.12    -0.03   0.03  -0.07    -0.00  -0.04   0.07
    12   1    -0.20  -0.26  -0.03     0.11   0.00  -0.19     0.06  -0.19   0.07
    13   1     0.05   0.03   0.06     0.29  -0.05  -0.01     0.12   0.36  -0.18
    14   1    -0.27   0.05   0.23     0.10  -0.20   0.22    -0.06   0.03   0.20
    15   1     0.05  -0.03   0.06     0.29   0.05  -0.01     0.12  -0.36  -0.18
    16   1    -0.27  -0.05   0.23     0.10   0.20   0.22    -0.06  -0.03   0.20
    17   1    -0.20   0.26  -0.03     0.11  -0.00  -0.19     0.06   0.19   0.07
    18   1    -0.06  -0.01  -0.35    -0.11  -0.03   0.15     0.03   0.02  -0.13
    19   1     0.10  -0.01  -0.01    -0.08   0.19  -0.14    -0.10  -0.23   0.02
    20   1    -0.01  -0.00   0.06     0.03  -0.00  -0.24    -0.05   0.00   0.21
    21   1    -0.06   0.01  -0.35    -0.11   0.03   0.15     0.03  -0.02  -0.13
    22   1     0.10   0.01  -0.01    -0.08  -0.19  -0.14    -0.10   0.23   0.02
                     16                     17                     18
                      A                      A                      A
 Frequencies --    852.1603               854.8519               907.7681
 Red. masses --      2.5061                 3.3752                 2.0325
 Frc consts  --      1.0722                 1.4532                 0.9868
 IR Inten    --      0.1653                 0.7011                 0.0184
  Atom  AN      X      Y      Z        X      Y      Z        X      Y      Z
     1   8     0.00  -0.00  -0.00     0.01  -0.00  -0.04    -0.00  -0.02  -0.00
     2   6     0.01   0.00  -0.01    -0.06   0.00   0.18    -0.00  -0.01  -0.00
     3   6    -0.03  -0.02  -0.07    -0.00   0.08  -0.04     0.08  -0.02   0.11
     4   6    -0.04   0.00  -0.01    -0.03   0.15  -0.05     0.06   0.01   0.08
     5   6    -0.01  -0.00  -0.01     0.04  -0.00   0.14     0.00   0.02  -0.00
     6   9     0.00   0.00   0.01    -0.04   0.00  -0.00    -0.00   0.01   0.00
     7   6    -0.04  -0.00  -0.01    -0.03  -0.15  -0.05    -0.06   0.01  -0.08
     8   6    -0.03   0.02  -0.07    -0.00  -0.08  -0.04    -0.08  -0.02  -0.11
     9   6    -0.02  -0.17   0.07     0.04   0.04  -0.14     0.08  -0.03   0.10
    10   6     0.21  -0.00   0.05     0.13   0.00   0.16     0.00   0.02   0.00
    11   6    -0.02   0.17   0.07     0.04  -0.04  -0.14    -0.08  -0.03  -0.10
    12   1    -0.08  -0.09  -0.25    -0.09   0.08   0.21     0.13   0.04   0.18
    13   1     0.05   0.07  -0.03     0.08   0.01  -0.05    -0.24  -0.21   0.14
    14   1    -0.09   0.01   0.09    -0.11   0.22  -0.10     0.11   0.06  -0.26
    15   1     0.05  -0.07  -0.03     0.08  -0.01  -0.05     0.24  -0.21  -0.14
    16   1    -0.09  -0.01   0.09    -0.11  -0.22  -0.10    -0.11   0.06   0.26
    17   1    -0.08   0.09  -0.25    -0.09  -0.08   0.21    -0.13   0.04  -0.18
    18   1    -0.29  -0.34   0.13    -0.11  -0.01   0.10    -0.04  -0.06   0.29
    19   1    -0.10   0.01  -0.02    -0.14   0.15  -0.31     0.05   0.22   0.05
    20   1     0.40  -0.00  -0.18    -0.07   0.00   0.42     0.00   0.32  -0.00
    21   1    -0.29   0.34   0.13    -0.11   0.01   0.10     0.04  -0.06  -0.29
    22   1    -0.10  -0.01  -0.02    -0.14  -0.15  -0.31    -0.05   0.22  -0.05
                     19                     20                     21
                      A                      A                      A
 Frequencies --    918.6775               934.8148               937.1749
 Red. masses --      1.9769                 2.1726                 2.0091
 Frc consts  --      0.9830                 1.1186                 1.0397
 IR Inten    --      0.5658                 6.0751                 0.0771
  Atom  AN      X      Y      Z        X      Y      Z        X      Y      Z
     1   8     0.00   0.02  -0.00    -0.03   0.00  -0.00    -0.00  -0.01  -0.00
     2   6    -0.00   0.01   0.00    -0.02   0.00  -0.03    -0.00  -0.01  -0.00
     3   6    -0.10   0.02  -0.03     0.14  -0.01   0.03     0.08  -0.00  -0.10
     4   6     0.10  -0.01  -0.01    -0.09  -0.04   0.09    -0.07   0.00   0.12
     5   6     0.00   0.04   0.00     0.01  -0.00  -0.09     0.00   0.04  -0.00
     6   9    -0.00   0.00  -0.00     0.00   0.00   0.02    -0.00  -0.01   0.00
     7   6    -0.10  -0.01   0.01    -0.09   0.04   0.09     0.07   0.00  -0.12
     8   6     0.10   0.02   0.03     0.14   0.01   0.03    -0.08  -0.00   0.10
     9   6     0.09  -0.01  -0.11    -0.01  -0.03  -0.09     0.02   0.05  -0.04
    10   6    -0.00  -0.06  -0.00     0.02   0.00   0.04     0.00  -0.10   0.00
    11   6    -0.09  -0.01   0.11    -0.01   0.03  -0.09    -0.02   0.05   0.04
    12   1    -0.13  -0.03  -0.18     0.36   0.14  -0.01     0.20   0.01  -0.42
    13   1     0.14  -0.24  -0.00    -0.34   0.18   0.11    -0.23  -0.13   0.15
    14   1     0.08   0.04  -0.18    -0.08  -0.06   0.13    -0.23   0.15  -0.07
    15   1    -0.14  -0.24   0.00    -0.34  -0.18   0.11     0.23  -0.13  -0.15
    16   1    -0.08   0.04   0.18    -0.08   0.06   0.13     0.23   0.15   0.07
    17   1     0.13  -0.03   0.18     0.36  -0.14  -0.01    -0.20   0.01   0.42
    18   1    -0.18  -0.12   0.19    -0.07  -0.06  -0.02    -0.08  -0.02  -0.07
    19   1    -0.12   0.28  -0.34    -0.19  -0.07  -0.25     0.11   0.12   0.04
    20   1     0.00  -0.03  -0.00    -0.01   0.00   0.06    -0.00  -0.25   0.00
    21   1     0.18  -0.12  -0.19    -0.07   0.06  -0.02     0.08  -0.02   0.07
    22   1     0.12   0.28   0.34    -0.19   0.07  -0.25    -0.11   0.12  -0.04
                     22                     23                     24
                      A                      A                      A
 Frequencies --    970.0324               996.1834              1007.5911
 Red. masses --      2.1557                 1.9811                 1.7750
 Frc consts  --      1.1951                 1.1584                 1.0617
 IR Inten    --      2.5237                36.5594                 1.6963
  Atom  AN      X      Y      Z        X      Y      Z        X      Y      Z
     1   8    -0.02   0.00   0.00     0.00  -0.03   0.00    -0.00  -0.00  -0.00
     2   6    -0.00  -0.00  -0.03     0.00   0.15  -0.00    -0.00  -0.04   0.00
     3   6     0.01  -0.05   0.12     0.05  -0.08  -0.01     0.06   0.01   0.03
     4   6     0.10   0.05  -0.00    -0.02  -0.05  -0.04    -0.05   0.02  -0.09
     5   6     0.03  -0.00  -0.00    -0.00   0.08  -0.00     0.00  -0.07   0.00
     6   9    -0.05   0.00   0.00     0.00  -0.01   0.00    -0.00   0.00  -0.00
     7   6     0.10  -0.05  -0.00     0.02  -0.05   0.04     0.05   0.02   0.09
     8   6     0.01   0.05   0.12    -0.05  -0.08   0.01    -0.06   0.01  -0.03
     9   6    -0.09  -0.05  -0.06     0.01  -0.07  -0.06     0.09   0.04  -0.03
    10   6     0.07  -0.00  -0.05     0.00   0.12   0.00    -0.00  -0.10  -0.00
    11   6    -0.09   0.05  -0.06    -0.01  -0.07   0.06    -0.09   0.04   0.03
    12   1    -0.06  -0.06   0.29     0.36   0.14  -0.01    -0.01  -0.04   0.06
    13   1    -0.12  -0.14   0.05     0.08   0.17  -0.07    -0.11   0.37  -0.11
    14   1     0.20   0.04  -0.26    -0.28   0.06   0.24     0.13  -0.15   0.16
    15   1    -0.12   0.14   0.05    -0.08   0.17   0.07     0.11   0.37   0.11
    16   1     0.20  -0.04  -0.26     0.28   0.06  -0.24    -0.13  -0.15  -0.16
    17   1    -0.06   0.06   0.29    -0.36   0.14   0.01     0.01  -0.04  -0.06
    18   1    -0.23  -0.19  -0.31    -0.02  -0.03   0.23    -0.14  -0.08   0.07
    19   1    -0.02  -0.13   0.01    -0.09   0.12  -0.17     0.22   0.37   0.04
    20   1     0.11  -0.00  -0.11     0.00   0.21   0.00    -0.00  -0.17  -0.00
    21   1    -0.23   0.19  -0.31     0.02  -0.03  -0.23     0.14  -0.08  -0.07
    22   1    -0.02   0.13   0.01     0.09   0.12   0.17    -0.22   0.37  -0.04
                     25                     26                     27
                      A                      A                      A
 Frequencies --   1012.7695              1050.5449              1070.9847
 Red. masses --      2.0846                 1.4115                 1.7692
 Frc consts  --      1.2598                 0.9178                 1.1956
 IR Inten    --     12.5134                10.0176                11.2174
  Atom  AN      X      Y      Z        X      Y      Z        X      Y      Z
     1   8     0.03   0.00   0.02    -0.00   0.01   0.00    -0.02  -0.00   0.01
     2   6     0.03  -0.00  -0.05     0.00  -0.09  -0.00     0.01   0.00  -0.07
     3   6    -0.07   0.08   0.05     0.03   0.04  -0.04     0.04  -0.06   0.05
     4   6    -0.01  -0.10  -0.05    -0.03   0.02   0.01    -0.03  -0.00  -0.04
     5   6    -0.08  -0.00  -0.07    -0.00  -0.04   0.00    -0.04   0.00   0.11
     6   9     0.06  -0.00   0.01     0.00   0.00  -0.00     0.04  -0.00  -0.02
     7   6    -0.01   0.10  -0.05     0.03   0.02  -0.01    -0.03   0.00  -0.04
     8   6    -0.07  -0.08   0.05    -0.03   0.04   0.04     0.04   0.06   0.05
     9   6    -0.00   0.02  -0.05    -0.01  -0.05  -0.02     0.05  -0.06  -0.01
    10   6     0.06  -0.00   0.12     0.00   0.10  -0.00    -0.10  -0.00  -0.06
    11   6    -0.00  -0.02  -0.05     0.01  -0.05   0.02     0.05   0.06  -0.01
    12   1    -0.12   0.11   0.28    -0.04  -0.05  -0.21    -0.06  -0.07   0.35
    13   1     0.16   0.11  -0.09    -0.25   0.17   0.03     0.29  -0.04  -0.08
    14   1     0.30  -0.37   0.20     0.20  -0.13  -0.01    -0.18   0.06   0.12
    15   1     0.16  -0.11  -0.09     0.25   0.17  -0.03     0.29   0.04  -0.08
    16   1     0.30   0.37   0.20    -0.20  -0.13   0.01    -0.18  -0.06   0.12
    17   1    -0.12  -0.11   0.28     0.04  -0.05   0.21    -0.06   0.07   0.35
    18   1    -0.09  -0.04  -0.07    -0.22  -0.19  -0.07    -0.00  -0.05   0.22
    19   1    -0.04  -0.03  -0.08    -0.19  -0.08  -0.17    -0.19   0.03  -0.25
    20   1     0.04  -0.00   0.14     0.00   0.51  -0.00     0.06  -0.00  -0.27
    21   1    -0.09   0.04  -0.07     0.22  -0.19   0.07    -0.00   0.05   0.22
    22   1    -0.04   0.03  -0.08     0.19  -0.08   0.17    -0.19  -0.03  -0.25
                     28                     29                     30
                      A                      A                      A
 Frequencies --   1093.0728              1101.1204              1140.6084
 Red. masses --      1.7121                 1.2227                 1.5823
 Frc consts  --      1.2053                 0.8735                 1.2128
 IR Inten    --     21.7993                 0.6251                 7.6540
  Atom  AN      X      Y      Z        X      Y      Z        X      Y      Z
     1   8    -0.01   0.00   0.01    -0.00   0.01  -0.00     0.03   0.00   0.01
     2   6     0.02  -0.00  -0.07    -0.00  -0.06   0.00     0.01  -0.00  -0.02
     3   6    -0.04  -0.01   0.06     0.00   0.03   0.04     0.01   0.05   0.03
     4   6     0.02  -0.03  -0.01    -0.01  -0.05   0.01    -0.02  -0.03  -0.06
     5   6     0.12   0.00  -0.07    -0.00   0.08   0.00     0.10  -0.00   0.04
     6   9    -0.07   0.00   0.02     0.00  -0.01  -0.00    -0.05   0.00   0.00
     7   6     0.02   0.03  -0.01     0.01  -0.05  -0.01    -0.02   0.03  -0.06
     8   6    -0.04   0.01   0.06    -0.00   0.03  -0.04     0.01  -0.05   0.03
     9   6     0.05  -0.07  -0.03    -0.01   0.01   0.01    -0.07   0.01   0.03
    10   6    -0.03   0.00  -0.02     0.00   0.01   0.00     0.06   0.00  -0.06
    11   6     0.05   0.07  -0.03     0.01   0.01  -0.01    -0.07  -0.01   0.03
    12   1    -0.10  -0.09  -0.09    -0.03  -0.00   0.01     0.29   0.27   0.08
    13   1    -0.04   0.07  -0.01     0.31  -0.13  -0.03     0.24   0.10  -0.11
    14   1    -0.03   0.00   0.03    -0.16   0.03   0.10    -0.33   0.13   0.16
    15   1    -0.04  -0.07  -0.01    -0.31  -0.13   0.03     0.24  -0.10  -0.11
    16   1    -0.03  -0.00   0.03     0.16   0.03  -0.10    -0.33  -0.13   0.16
    17   1    -0.10   0.09  -0.09     0.03  -0.00  -0.01     0.29  -0.27   0.08
    18   1    -0.06  -0.09   0.24    -0.29  -0.22  -0.26    -0.02  -0.01  -0.16
    19   1     0.10   0.28  -0.02     0.19   0.13   0.18     0.08  -0.10   0.18
    20   1    -0.49   0.00   0.57     0.00   0.32  -0.00    -0.07   0.00   0.11
    21   1    -0.06   0.09   0.24     0.29  -0.22   0.26    -0.02   0.01  -0.16
    22   1     0.10  -0.28  -0.02    -0.19   0.13  -0.18     0.08   0.10   0.18
                     31                     32                     33
                      A                      A                      A
 Frequencies --   1185.9524              1189.9051              1210.0026
 Red. masses --      1.7857                 1.7236                 2.1101
 Frc consts  --      1.4798                 1.4378                 1.8202
 IR Inten    --     21.1698                 0.8972                 0.1498
  Atom  AN      X      Y      Z        X      Y      Z        X      Y      Z
     1   8    -0.01   0.00  -0.01     0.00   0.01   0.00    -0.00   0.02  -0.00
     2   6    -0.01  -0.00   0.02     0.00  -0.08  -0.00     0.00  -0.12   0.00
     3   6     0.07  -0.04  -0.01     0.02   0.03  -0.09    -0.04   0.04   0.08
     4   6    -0.04   0.03  -0.06    -0.07  -0.01   0.05     0.01  -0.06  -0.02
     5   6    -0.12   0.00   0.16     0.00   0.09  -0.00    -0.00   0.22   0.00
     6   9     0.05  -0.00  -0.01    -0.00  -0.01   0.00     0.00  -0.01  -0.00
     7   6    -0.04  -0.03  -0.06     0.07  -0.01  -0.05    -0.01  -0.06   0.02
     8   6     0.07   0.04  -0.01    -0.02   0.03   0.09     0.04   0.04  -0.08
     9   6    -0.01  -0.02  -0.00    -0.02  -0.05  -0.04     0.02   0.00   0.06
    10   6    -0.01   0.00  -0.05    -0.00   0.09   0.00    -0.00  -0.05  -0.00
    11   6    -0.01   0.02  -0.00     0.02  -0.05   0.04    -0.02   0.00  -0.06
    12   1     0.10  -0.03  -0.04     0.00   0.12   0.40     0.30   0.20  -0.32
    13   1    -0.11   0.17  -0.05     0.15  -0.16   0.04    -0.04   0.14  -0.03
    14   1     0.22  -0.17   0.07     0.29  -0.23   0.00     0.18  -0.20   0.10
    15   1    -0.11  -0.17  -0.05    -0.15  -0.16  -0.04     0.04   0.14   0.03
    16   1     0.22   0.17   0.07    -0.29  -0.23  -0.00    -0.18  -0.20  -0.10
    17   1     0.10   0.03  -0.04    -0.00   0.12  -0.40    -0.30   0.20   0.32
    18   1    -0.17  -0.15  -0.13     0.07   0.05   0.16     0.09   0.04   0.06
    19   1     0.29   0.23   0.24     0.11   0.17   0.04    -0.14  -0.15  -0.06
    20   1    -0.26  -0.00   0.26     0.00  -0.28  -0.00    -0.00  -0.31   0.00
    21   1    -0.17   0.15  -0.13    -0.07   0.05  -0.16    -0.09   0.04  -0.06
    22   1     0.29  -0.23   0.24    -0.11   0.17  -0.04     0.14  -0.15   0.06
                     34                     35                     36
                      A                      A                      A
 Frequencies --   1238.7095              1244.6761              1265.4151
 Red. masses --      1.5134                 1.6561                 1.7995
 Frc consts  --      1.3682                 1.5117                 1.6977
 IR Inten    --      1.7038                21.5236                 3.4121
  Atom  AN      X      Y      Z        X      Y      Z        X      Y      Z
     1   8    -0.03   0.00  -0.01    -0.00  -0.03   0.00     0.00  -0.00  -0.01
     2   6    -0.00  -0.00  -0.01    -0.00   0.16  -0.00    -0.01   0.00   0.04
     3   6     0.05   0.00   0.03    -0.02  -0.04   0.01     0.04  -0.01  -0.10
     4   6    -0.03  -0.00  -0.03     0.02  -0.03   0.02    -0.07   0.02   0.05
     5   6     0.05  -0.00   0.07     0.00   0.13   0.00     0.05   0.00  -0.08
     6   9    -0.01   0.00   0.00    -0.00  -0.01  -0.00    -0.01  -0.00   0.01
     7   6    -0.03   0.00  -0.03    -0.02  -0.03  -0.02    -0.07  -0.02   0.05
     8   6     0.05  -0.00   0.03     0.02  -0.04  -0.01     0.04   0.01  -0.10
     9   6    -0.06   0.01   0.01    -0.05  -0.03  -0.01     0.01  -0.00   0.08
    10   6     0.12  -0.00  -0.07     0.00   0.02  -0.00     0.02  -0.00  -0.10
    11   6    -0.06  -0.01   0.01     0.05  -0.03   0.01     0.01   0.00   0.08
    12   1    -0.26  -0.26  -0.14    -0.29  -0.29  -0.19    -0.10  -0.00   0.41
    13   1    -0.03   0.12  -0.04    -0.22   0.09   0.05     0.19  -0.21   0.04
    14   1     0.13  -0.13   0.08     0.25  -0.19   0.02     0.16  -0.11  -0.04
    15   1    -0.03  -0.12  -0.04     0.22   0.09  -0.05     0.19   0.21   0.04
    16   1     0.13   0.13   0.08    -0.25  -0.19  -0.02     0.16   0.11  -0.04
    17   1    -0.26   0.26  -0.14     0.29  -0.29   0.19    -0.10   0.00   0.41
    18   1     0.31   0.25   0.10    -0.03  -0.02  -0.03    -0.10  -0.11  -0.11
    19   1    -0.16  -0.22  -0.07     0.21   0.11   0.23    -0.09  -0.14  -0.00
    20   1    -0.06  -0.00   0.16     0.00  -0.03   0.00    -0.32   0.00   0.33
    21   1     0.31  -0.25   0.10     0.03  -0.02   0.03    -0.10   0.11  -0.11
    22   1    -0.16   0.22  -0.07    -0.21   0.11  -0.23    -0.09   0.14  -0.00
                     37                     38                     39
                      A                      A                      A
 Frequencies --   1279.8228              1282.2666              1321.9604
 Red. masses --      1.7067                 1.5850                 1.4568
 Frc consts  --      1.6470                 1.5354                 1.5000
 IR Inten    --     22.3717                 0.0025                 0.0157
  Atom  AN      X      Y      Z        X      Y      Z        X      Y      Z
     1   8     0.00   0.00  -0.00    -0.00   0.02   0.00    -0.00   0.01   0.00
     2   6    -0.00  -0.00   0.02     0.00  -0.06  -0.00    -0.00  -0.01  -0.00
     3   6    -0.00   0.02  -0.07    -0.10  -0.01  -0.03    -0.07  -0.05   0.01
     4   6     0.01  -0.05  -0.01     0.09  -0.02   0.00    -0.02   0.06  -0.01
     5   6     0.17  -0.00   0.08    -0.00  -0.04  -0.00     0.00  -0.04   0.00
     6   9    -0.05   0.00  -0.00     0.00   0.01   0.00    -0.00   0.00  -0.00
     7   6     0.01   0.05  -0.01    -0.09  -0.02  -0.00     0.02   0.06   0.01
     8   6    -0.00  -0.02  -0.07     0.10  -0.01   0.03     0.07  -0.05  -0.01
     9   6     0.01  -0.00   0.01    -0.03  -0.02  -0.01    -0.06   0.00  -0.05
    10   6    -0.07   0.00   0.02     0.00   0.09  -0.00    -0.00  -0.08   0.00
    11   6     0.01   0.00   0.01     0.03  -0.02   0.01     0.06   0.00   0.05
    12   1    -0.18  -0.02   0.31     0.18   0.24   0.14     0.31   0.19  -0.13
    13   1    -0.35   0.33   0.01    -0.36   0.20   0.04     0.08  -0.07  -0.02
    14   1     0.05  -0.09   0.07    -0.13   0.13  -0.04     0.22  -0.08  -0.09
    15   1    -0.35  -0.33   0.01     0.36   0.20  -0.04    -0.08  -0.07   0.02
    16   1     0.05   0.09   0.07     0.13   0.13   0.04    -0.22  -0.08   0.09
    17   1    -0.18   0.02   0.31    -0.18   0.24  -0.14    -0.31   0.19   0.13
    18   1    -0.04  -0.04  -0.01    -0.12  -0.10  -0.12     0.13   0.13   0.02
    19   1     0.06   0.04   0.05     0.19   0.13   0.16     0.18   0.11   0.15
    20   1     0.22  -0.00  -0.34    -0.00  -0.28   0.00     0.00   0.55  -0.00
    21   1    -0.04   0.04  -0.01     0.12  -0.10   0.12    -0.13   0.13  -0.02
    22   1     0.06  -0.04   0.05    -0.19   0.13  -0.16    -0.18   0.11  -0.15
                     40                     41                     42
                      A                      A                      A
 Frequencies --   1343.7968              1346.0790              1355.1412
 Red. masses --      1.7590                 1.6421                 1.6783
 Frc consts  --      1.8715                 1.7531                 1.8159
 IR Inten    --      6.8202                 0.9057                 0.0121
  Atom  AN      X      Y      Z        X      Y      Z        X      Y      Z
     1   8     0.00  -0.01   0.00    -0.04  -0.00  -0.01    -0.00   0.01  -0.00
     2   6     0.00   0.07  -0.00    -0.01   0.00   0.00     0.00  -0.06  -0.00
     3   6    -0.02  -0.09  -0.06     0.11   0.05   0.01     0.02   0.06  -0.04
     4   6     0.00  -0.00   0.01    -0.02  -0.02   0.02     0.05  -0.08   0.00
     5   6    -0.00   0.08   0.00    -0.01   0.00  -0.08     0.00   0.08   0.00
     6   9     0.00  -0.01  -0.00     0.00  -0.00   0.01    -0.00  -0.00  -0.00
     7   6    -0.00  -0.00  -0.01    -0.02   0.02   0.02    -0.05  -0.08  -0.00
     8   6     0.02  -0.09   0.06     0.11  -0.05   0.01    -0.02   0.06   0.04
     9   6     0.05   0.10   0.02    -0.05  -0.01  -0.05    -0.03   0.00  -0.04
    10   6     0.00  -0.09  -0.00    -0.02  -0.00   0.08    -0.00  -0.13  -0.00
    11   6    -0.05   0.10  -0.02    -0.05   0.01  -0.05     0.03   0.00   0.04
    12   1     0.10   0.09   0.38    -0.33  -0.26   0.06    -0.18  -0.02   0.23
    13   1    -0.12   0.00   0.03     0.20  -0.13   0.00    -0.20   0.17   0.02
    14   1     0.17  -0.12   0.01    -0.19   0.08   0.04    -0.20   0.08   0.06
    15   1     0.12   0.00  -0.03     0.20   0.13   0.00     0.20   0.17  -0.02
    16   1    -0.17  -0.12  -0.01    -0.19  -0.08   0.04     0.20   0.08  -0.06
    17   1    -0.10   0.09  -0.38    -0.33   0.26   0.06     0.18  -0.02  -0.23
    18   1    -0.23  -0.13  -0.27    -0.00   0.02  -0.01     0.24   0.21   0.11
    19   1    -0.17  -0.20  -0.14     0.29   0.18   0.25     0.00   0.05  -0.02
    20   1    -0.00   0.17   0.00     0.14   0.00  -0.12     0.00   0.55  -0.00
    21   1     0.23  -0.13   0.27    -0.00  -0.02  -0.01    -0.24   0.21  -0.11
    22   1     0.17  -0.20   0.14     0.29  -0.18   0.25    -0.00   0.05   0.02
                     43                     44                     45
                      A                      A                      A
 Frequencies --   1355.6517              1377.2854              1510.8830
 Red. masses --      1.5848                 1.6464                 1.0925
 Frc consts  --      1.7160                 1.8401                 1.4694
 IR Inten    --     12.5357                24.5860                 0.3690
  Atom  AN      X      Y      Z        X      Y      Z        X      Y      Z
     1   8     0.02   0.00   0.00     0.02   0.00   0.01    -0.00   0.00   0.00
     2   6    -0.00  -0.00   0.00    -0.01  -0.00  -0.00     0.00  -0.00  -0.00
     3   6    -0.02  -0.05  -0.06    -0.02  -0.06   0.01    -0.00   0.00  -0.00
     4   6     0.05  -0.01   0.01    -0.08   0.06   0.00     0.01   0.03  -0.03
     5   6    -0.10   0.00  -0.02     0.13   0.00  -0.02     0.00  -0.00   0.00
     6   9     0.02  -0.00   0.00    -0.03  -0.00   0.01    -0.00   0.00  -0.00
     7   6     0.05   0.01   0.01    -0.08  -0.06   0.00    -0.01   0.03   0.03
     8   6    -0.02   0.05  -0.06    -0.02   0.06   0.01     0.00   0.00   0.00
     9   6    -0.06  -0.06  -0.02    -0.03  -0.04  -0.04    -0.00  -0.03   0.03
    10   6     0.08  -0.00  -0.00    -0.03  -0.00   0.05    -0.00   0.00  -0.00
    11   6    -0.06   0.06  -0.02    -0.03   0.04  -0.04     0.00  -0.03  -0.03
    12   1     0.10   0.14   0.37     0.24   0.12  -0.03     0.00   0.00  -0.01
    13   1    -0.18  -0.01   0.05     0.25  -0.11  -0.04    -0.19  -0.33   0.04
    14   1    -0.11   0.08   0.01     0.35  -0.21  -0.08    -0.01  -0.05   0.37
    15   1    -0.18   0.01   0.05     0.25   0.11  -0.04     0.19  -0.33  -0.04
    16   1    -0.11  -0.08   0.01     0.35   0.21  -0.08     0.01  -0.05  -0.37
    17   1     0.10  -0.14   0.37     0.24  -0.12  -0.03    -0.00   0.00   0.01
    18   1     0.29   0.21   0.29     0.16   0.13   0.16     0.17   0.04  -0.27
    19   1     0.11   0.07   0.12     0.12   0.13   0.09    -0.11   0.28  -0.12
    20   1    -0.05   0.00   0.16     0.20   0.00  -0.23    -0.00  -0.01  -0.00
    21   1     0.29  -0.21   0.29     0.16  -0.13   0.16    -0.17   0.04   0.27
    22   1     0.11  -0.07   0.12     0.12  -0.13   0.09     0.11   0.28   0.12
                     46                     47                     48
                      A                      A                      A
 Frequencies --   1532.9747              1535.2944              1554.5372
 Red. masses --      1.0981                 1.0967                 1.0953
 Frc consts  --      1.5205                 1.5231                 1.5595
 IR Inten    --      6.9196                 9.0647                 0.9969
  Atom  AN      X      Y      Z        X      Y      Z        X      Y      Z
     1   8    -0.00   0.00   0.00     0.00  -0.00   0.00    -0.00  -0.00  -0.00
     2   6     0.00  -0.00  -0.00    -0.00   0.02  -0.00     0.01   0.00   0.00
     3   6    -0.00   0.00   0.00     0.00  -0.01  -0.00    -0.00   0.01   0.00
     4   6     0.01   0.03  -0.03    -0.02  -0.02   0.03     0.01   0.03  -0.03
     5   6     0.02   0.00   0.00     0.00   0.00   0.00     0.02   0.00  -0.01
     6   9    -0.00   0.00  -0.00    -0.00  -0.00   0.00    -0.00  -0.00   0.00
     7   6     0.01  -0.03  -0.03     0.02  -0.02  -0.03     0.01  -0.03  -0.03
     8   6    -0.00  -0.00   0.00    -0.00  -0.01   0.00    -0.00  -0.01   0.00
     9   6     0.01   0.03  -0.03    -0.00  -0.03   0.04    -0.01  -0.03   0.03
    10   6    -0.01  -0.00  -0.00    -0.00   0.00  -0.00    -0.00  -0.00   0.01
    11   6     0.01  -0.03  -0.03     0.00  -0.03  -0.04    -0.01   0.03   0.03
    12   1     0.01   0.00  -0.02     0.00  -0.02   0.00    -0.00   0.01  -0.00
    13   1    -0.17  -0.32   0.03     0.17   0.27  -0.03    -0.15  -0.30   0.03
    14   1     0.01  -0.07   0.36     0.03   0.03  -0.32    -0.01  -0.05   0.34
    15   1    -0.17   0.32   0.03    -0.17   0.27   0.03    -0.15   0.30   0.03
    16   1     0.01   0.07   0.36    -0.03   0.03   0.32    -0.01   0.05   0.34
    17   1     0.01  -0.00  -0.02    -0.00  -0.02  -0.00    -0.00  -0.01  -0.00
    18   1    -0.19  -0.05   0.27     0.19   0.03  -0.33     0.20   0.04  -0.31
    19   1     0.11  -0.30   0.12    -0.14   0.32  -0.15    -0.12   0.33  -0.12
    20   1     0.00   0.00  -0.02    -0.00  -0.03  -0.00     0.02  -0.00  -0.02
    21   1    -0.19   0.05   0.27    -0.19   0.03   0.33     0.20  -0.04  -0.31
    22   1     0.11   0.30   0.12     0.14   0.32   0.15    -0.12  -0.33  -0.12
                     49                     50                     51
                      A                      A                      A
 Frequencies --   1823.6294              3058.7737              3060.7631
 Red. masses --     11.5310                 1.0600                 1.0626
 Frc consts  --     22.5939                 5.8431                 5.8654
 IR Inten    --    214.3784                19.5265                33.3513
  Atom  AN      X      Y      Z        X      Y      Z        X      Y      Z
     1   8    -0.49  -0.00  -0.14     0.00  -0.00   0.00    -0.00  -0.00  -0.00
     2   6     0.74   0.00   0.21    -0.00   0.00  -0.00     0.00   0.00   0.00
     3   6    -0.05  -0.00  -0.01    -0.00   0.00  -0.00    -0.00   0.00  -0.00
     4   6    -0.01  -0.00   0.00     0.01   0.01  -0.01     0.01   0.01  -0.00
     5   6    -0.00   0.00  -0.00    -0.00  -0.00  -0.00     0.00  -0.00   0.00
     6   9     0.00   0.00   0.00     0.00  -0.00   0.00    -0.00  -0.00  -0.00
     7   6    -0.01   0.00   0.00    -0.01   0.01   0.01     0.01  -0.01  -0.00
     8   6    -0.05   0.00  -0.01     0.00   0.00   0.00    -0.00  -0.00  -0.00
     9   6    -0.01   0.00  -0.01     0.00  -0.04   0.03    -0.01   0.04  -0.03
    10   6     0.00   0.00   0.00    -0.00   0.00  -0.00     0.01   0.00   0.01
    11   6    -0.01  -0.00  -0.01    -0.00  -0.03  -0.03    -0.01  -0.04  -0.03
    12   1     0.19   0.15   0.05     0.02  -0.02   0.00     0.02  -0.03   0.00
    13   1     0.04   0.02  -0.00     0.02   0.01   0.10     0.02   0.01   0.09
    14   1     0.01  -0.02  -0.03    -0.09  -0.13  -0.03    -0.10  -0.15  -0.03
    15   1     0.04  -0.02  -0.00    -0.02   0.01  -0.10     0.02  -0.01   0.09
    16   1     0.01   0.02  -0.03     0.09  -0.13   0.03    -0.10   0.14  -0.03
    17   1     0.19  -0.15   0.05    -0.02  -0.02  -0.00     0.02   0.03   0.00
    18   1    -0.00   0.03   0.04    -0.30   0.46  -0.08     0.31  -0.48   0.08
    19   1     0.03  -0.02   0.02     0.27  -0.05  -0.28    -0.23   0.04   0.24
    20   1     0.01  -0.00  -0.01     0.00  -0.00   0.00    -0.08  -0.00  -0.07
    21   1    -0.00  -0.03   0.04     0.30   0.46   0.08     0.31   0.48   0.08
    22   1     0.03   0.02   0.02    -0.27  -0.05   0.28    -0.23  -0.04   0.24
                     52                     53                     54
                      A                      A                      A
 Frequencies --   3065.5897              3069.1809              3101.2946
 Red. masses --      1.0594                 1.0613                 1.1065
 Frc consts  --      5.8658                 5.8904                 6.2702
 IR Inten    --     31.8420                16.3938                 8.8967
  Atom  AN      X      Y      Z        X      Y      Z        X      Y      Z
     1   8     0.00  -0.00   0.00    -0.00  -0.00  -0.00     0.00  -0.00   0.00
     2   6    -0.00   0.00  -0.00     0.00   0.00   0.00    -0.00  -0.00  -0.00
     3   6    -0.00   0.00  -0.00    -0.00   0.00  -0.00     0.00   0.00   0.00
     4   6    -0.02  -0.03   0.03    -0.02  -0.04   0.02    -0.00  -0.00  -0.01
     5   6     0.00   0.00   0.00    -0.00   0.00  -0.00     0.00   0.00   0.00
     6   9    -0.00  -0.00  -0.00     0.00  -0.00   0.00    -0.00  -0.00   0.00
     7   6     0.02  -0.03  -0.03    -0.02   0.04   0.02     0.00  -0.00   0.01
     8   6     0.00   0.00   0.00    -0.00  -0.00  -0.00    -0.00   0.00  -0.00
     9   6    -0.00  -0.01   0.01    -0.00   0.01  -0.01    -0.05   0.03   0.03
    10   6    -0.00   0.00  -0.00     0.00   0.00   0.00    -0.00   0.00  -0.00
    11   6     0.00  -0.01  -0.01    -0.00  -0.01  -0.01     0.05   0.03  -0.03
    12   1     0.03  -0.04   0.01     0.04  -0.06   0.01     0.00  -0.01   0.00
    13   1    -0.06  -0.05  -0.41    -0.06  -0.04  -0.36     0.02   0.01   0.12
    14   1     0.29   0.43   0.11     0.31   0.46   0.11     0.03   0.04   0.01
    15   1     0.06  -0.05   0.41    -0.06   0.04  -0.36    -0.02   0.01  -0.12
    16   1    -0.29   0.43  -0.11     0.31  -0.46   0.11    -0.03   0.04  -0.01
    17   1    -0.03  -0.04  -0.01     0.04   0.06   0.01    -0.00  -0.01  -0.00
    18   1    -0.07   0.11  -0.02     0.08  -0.13   0.02     0.21  -0.34   0.07
    19   1     0.09  -0.01  -0.10    -0.08   0.01   0.08     0.38  -0.05  -0.41
    20   1     0.00  -0.00   0.00    -0.04  -0.00  -0.04     0.00  -0.00   0.00
    21   1     0.07   0.11   0.02     0.08   0.13   0.02    -0.21  -0.34  -0.07
    22   1    -0.09  -0.01   0.10    -0.08  -0.01   0.08    -0.38  -0.05   0.41
                     55                     56                     57
                      A                      A                      A
 Frequencies --   3109.5846              3112.1223              3119.9215
 Red. masses --      1.1032                 1.1073                 1.1050
 Frc consts  --      6.2852                 6.3188                 6.3371
 IR Inten    --     42.6804                13.8229                33.7858
  Atom  AN      X      Y      Z        X      Y      Z        X      Y      Z
     1   8    -0.00   0.00   0.00     0.00  -0.00   0.00     0.00   0.00   0.00
     2   6     0.00  -0.00  -0.00     0.00  -0.00  -0.00     0.00   0.00  -0.00
     3   6    -0.00   0.00  -0.00    -0.00   0.00  -0.00     0.00  -0.00   0.00
     4   6    -0.00  -0.00  -0.00     0.03   0.03   0.05    -0.02  -0.03  -0.05
     5   6    -0.00   0.00   0.00    -0.00   0.00  -0.00    -0.00  -0.00  -0.00
     6   9     0.00  -0.00  -0.00     0.00  -0.00   0.00     0.00   0.00   0.00
     7   6    -0.00   0.00  -0.00    -0.03   0.03  -0.05    -0.02   0.03  -0.05
     8   6    -0.00  -0.00  -0.00     0.00   0.00   0.00     0.00   0.00   0.00
     9   6     0.05  -0.03  -0.03    -0.01   0.01   0.00    -0.00   0.00   0.00
    10   6    -0.01  -0.00  -0.01     0.00   0.00   0.00    -0.00  -0.00  -0.00
    11   6     0.05   0.03  -0.03     0.01   0.01  -0.00    -0.00  -0.00   0.00
    12   1     0.01  -0.02   0.00     0.02  -0.03   0.01    -0.03   0.05  -0.01
    13   1     0.01   0.00   0.05    -0.08  -0.05  -0.54     0.08   0.05   0.58
    14   1     0.00   0.00   0.00    -0.23  -0.35  -0.07     0.21   0.31   0.06
    15   1     0.01  -0.00   0.05     0.08  -0.05   0.54     0.08  -0.05   0.58
    16   1     0.00  -0.00   0.00     0.23  -0.35   0.07     0.21  -0.31   0.06
    17   1     0.01   0.02   0.00    -0.02  -0.03  -0.01    -0.03  -0.05  -0.01
    18   1    -0.18   0.28  -0.06     0.05  -0.08   0.02     0.02  -0.04   0.01
    19   1    -0.41   0.05   0.45     0.06  -0.01  -0.06     0.02  -0.00  -0.02
    20   1     0.10   0.00   0.08    -0.00  -0.00  -0.00     0.02   0.00   0.02
    21   1    -0.18  -0.28  -0.06    -0.05  -0.08  -0.02     0.02   0.04   0.01
    22   1    -0.41  -0.05   0.45    -0.06  -0.01   0.06     0.02   0.00  -0.02
                     58                     59                     60
                      A                      A                      A
 Frequencies --   3122.3228              3124.8866              3126.9269
 Red. masses --      1.0882                 1.0879                 1.0890
 Frc consts  --      6.2503                 6.2590                 6.2738
 IR Inten    --     30.1673                28.1779                11.4032
  Atom  AN      X      Y      Z        X      Y      Z        X      Y      Z
     1   8     0.00   0.00   0.00     0.00   0.00   0.00    -0.00  -0.00  -0.00
     2   6    -0.00   0.00   0.00    -0.00   0.00  -0.00     0.00   0.00   0.00
     3   6    -0.01   0.01  -0.00     0.04  -0.05   0.01     0.03  -0.05   0.01
     4   6     0.00  -0.00   0.00    -0.00  -0.00   0.00    -0.00  -0.00   0.01
     5   6    -0.00  -0.00   0.00     0.00   0.00   0.00    -0.00   0.00   0.00
     6   9     0.00  -0.00  -0.00    -0.00  -0.00   0.00     0.00  -0.00  -0.00
     7   6     0.00   0.00   0.00     0.00  -0.00  -0.00    -0.00   0.00   0.01
     8   6    -0.01  -0.01  -0.00    -0.04  -0.05  -0.01     0.03   0.05   0.01
     9   6    -0.01   0.01   0.00    -0.00  -0.00   0.00     0.00   0.00  -0.00
    10   6    -0.07   0.00  -0.05     0.00   0.00   0.00    -0.01   0.00  -0.01
    11   6    -0.01  -0.01   0.00     0.00  -0.00  -0.00     0.00  -0.00  -0.00
    12   1     0.07  -0.10   0.02    -0.41   0.55  -0.13    -0.40   0.54  -0.12
    13   1    -0.00  -0.00  -0.02    -0.01  -0.01  -0.06    -0.01  -0.01  -0.09
    14   1     0.00   0.00   0.00     0.01   0.01   0.00     0.01   0.01   0.00
    15   1    -0.00   0.00  -0.02     0.01  -0.01   0.06    -0.01   0.01  -0.09
    16   1     0.00  -0.00   0.00    -0.01   0.01  -0.00     0.01  -0.01   0.00
    17   1     0.07   0.10   0.02     0.41   0.55   0.13    -0.40  -0.54  -0.12
    18   1     0.05  -0.09   0.02    -0.01   0.02  -0.01     0.03  -0.04   0.01
    19   1     0.03  -0.00  -0.03     0.02  -0.00  -0.03    -0.03   0.00   0.03
    20   1     0.76  -0.00   0.60    -0.00  -0.00  -0.00     0.13  -0.00   0.10
    21   1     0.05   0.09   0.02     0.01   0.02   0.01     0.03   0.04   0.01
    22   1     0.03   0.00  -0.03    -0.02  -0.00   0.03    -0.03  -0.00   0.03

 -------------------
 - Thermochemistry -
 -------------------
 Temperature   298.150 Kelvin.  Pressure   1.00000 Atm.
 Atom     1 has atomic number  8 and mass  15.99491
 Atom     2 has atomic number  6 and mass  12.00000
 Atom     3 has atomic number  6 and mass  12.00000
 Atom     4 has atomic number  6 and mass  12.00000
 Atom     5 has atomic number  6 and mass  12.00000
 Atom     6 has atomic number  9 and mass  18.99840
 Atom     7 has atomic number  6 and mass  12.00000
 Atom     8 has atomic number  6 and mass  12.00000
 Atom     9 has atomic number  6 and mass  12.00000
 Atom    10 has atomic number  6 and mass  12.00000
 Atom    11 has atomic number  6 and mass  12.00000
 Atom    12 has atomic number  1 and mass   1.00783
 Atom    13 has atomic number  1 and mass   1.00783
 Atom    14 has atomic number  1 and mass   1.00783
 Atom    15 has atomic number  1 and mass   1.00783
 Atom    16 has atomic number  1 and mass   1.00783
 Atom    17 has atomic number  1 and mass   1.00783
 Atom    18 has atomic number  1 and mass   1.00783
 Atom    19 has atomic number  1 and mass   1.00783
 Atom    20 has atomic number  1 and mass   1.00783
 Atom    21 has atomic number  1 and mass   1.00783
 Atom    22 has atomic number  1 and mass   1.00783
 Molecular mass:   154.07939 amu.
 Principal axes and moments of inertia in atomic units:
                           1         2         3
     Eigenvalues --   962.663371621.754451716.77838
[...]
 24064,0.00030965,-0.00044046,0.00113247,0.00028816,-0.00189894,0.00242
 245,-0.00067564,-0.14149976,0.23583529,-0.00010838,0.00000856,-0.00115
 526,-0.00004480,0.00026805,-0.00020340,0.00192871,-0.00252150,-0.04984
 175,-0.01428230,0.02179378,0.00279306,-0.00173962,-0.00246969,-0.00500
 201,-0.00224933,0.00175376,0.00038666,0.00030542,-0.00038299,0.0003224
 7,0.00002588,0.00033449,0.00124621,0.00004418,0.00047356,0.00006730,0.
 00392818,0.00069551,-0.00413032,0.01351210,-0.02139077,0.00268600,-0.0
 0205773,0.00289678,0.04932571,-0.00009957,0.00026356,0.00016872,0.0016
 1205,0.00051457,0.00004965,0.01191921,0.00142672,-0.01941633,-0.096212
 18,-0.01127638,0.09922944,-0.00636788,-0.00289503,0.01760736,-0.000208
 51,0.00039702,-0.00144962,-0.00014902,-0.00180208,-0.00002791,0.000086
 89,-0.00021681,-0.00019227,-0.00021714,-0.00031084,0.00077847,-0.00075
 969,0.00268559,-0.00039065,-0.00323793,-0.00016499,-0.00415453,0.00039
 152,0.00028972,0.00083750,0.09787104,0.00015373,0.00011630,-0.00000076
 ,0.00010602,-0.00015367,-0.00053395,-0.00178569,-0.00149573,0.00195625
 ,-0.01269824,-0.05288490,0.02405033,0.00849300,0.00147524,-0.02511768,
 -0.00006625,0.00030251,0.00135765,0.00126793,0.00077398,-0.00166323,-0
 .00035786,0.00002929,0.00015193,0.00010112,0.00045219,-0.00078245,0.00
 224307,-0.00330874,-0.00163934,0.00127118,-0.00052934,0.00102615,-0.00
 013480,-0.00005534,0.00002983,0.01192329,0.05664014,-0.00112214,-0.000
 25501,0.00024832,0.00194683,0.00120542,-0.00022112,0.00940346,0.000570
 37,-0.01509472,0.09888767,0.02082944,-0.26633801,0.00070145,0.00103581
 ,-0.00570253,0.00092425,-0.00032525,0.00055209,-0.00000775,0.00129095,
 -0.00006979,-0.00014340,-0.00032906,-0.00026207,0.00029770,0.00012389,
 -0.00005459,0.00007302,0.00004150,-0.00023972,-0.00276583,-0.00106081,
 -0.00378022,-0.00027141,0.00033025,0.00022283,-0.10818964,-0.02292291,
 0.28905157,-0.00179728,-0.00163175,0.00081615,-0.00036415,0.00462790,-
 0.00419454,-0.01489624,-0.02169472,-0.00314682,-0.13386692,-0.12511254
 ,0.00802020,0.01123614,0.01641637,-0.00043376,0.00240991,-0.00182802,-
 0.00009826,-0.00207739,0.00269135,0.00072065,-0.00014307,-0.00018156,0
 .00048116,-0.00025147,-0.00005138,-0.00011688,-0.00011056,-0.00047001,
 -0.00089962,0.00050310,-0.00013770,0.00234734,0.00040568,0.00029924,0.
 00089093,-0.00708885,-0.01042007,0.00025284,0.14382045,0.00016414,0.00
 011195,-0.00039054,0.00036754,0.00050953,0.00132185,0.00194885,0.00436
 308,0.00049221,-0.12317594,-0.22320506,0.00431834,-0.01868905,-0.02317
 388,0.00115563,-0.00035355,0.00399410,0.00055149,0.00454616,-0.0038991
 0,-0.00143961,0.00039973,0.00068546,0.00012113,-0.00002567,0.00004003,
 0.00025300,0.00082126,0.00029022,0.00067819,0.00018320,0.00034364,0.00
 027997,-0.00021222,0.00052153,-0.00066773,-0.00109316,-0.00127207,0.00
 033650,0.13557199,0.24100744,-0.00169139,-0.00140577,0.00101710,-0.001
 07193,0.00312973,-0.00445902,-0.01355064,-0.02114561,-0.00307464,0.009
 14431,0.00514658,-0.05070741,-0.00533540,-0.00536930,-0.00050619,-0.00
 013819,0.00096447,-0.00005297,0.00108483,-0.00013538,-0.00053439,0.000
 30414,0.00008980,0.00036089,-0.00027770,0.00015112,0.00036155,0.000266
 56,0.00034673,0.00043675,-0.00165263,-0.00143675,0.00056835,0.00061279
 ,0.00042787,0.00093311,0.01692322,0.02446499,0.00070023,-0.00442364,-0
 .00583103,0.05449344,-0.00009957,-0.00026357,0.00016872,0.00161204,-0.
 00051459,0.00004967,0.00008690,0.00021681,-0.00019227,-0.00014901,0.00
 180209,-0.00002789,-0.00636797,0.00289515,0.01760776,-0.00020851,-0.00
 039701,-0.00144964,-0.09621161,0.01127694,0.09922814,0.01191921,-0.001
 42692,-0.01941630,-0.00323795,0.00016503,-0.00415455,-0.00075976,-0.00
 268563,-0.00039063,-0.00021714,0.00031085,0.00077848,0.00005253,0.0000
 3392,-0.00002998,0.00086952,-0.00002025,-0.00057209,-0.00003063,0.0001
 7755,-0.00034634,0.09787047,-0.00015373,0.00011631,0.00000076,-0.00010
 604,-0.00015366,0.00053395,0.00035786,0.00002928,-0.00015193,-0.001267
 91,0.00077396,0.00166324,-0.00849289,0.00147531,0.02511741,0.00006626,
 0.00030251,-0.00135763,0.01269882,-0.05288549,-0.02405170,0.00178549,-
 0.00149574,-0.00195596,-0.00127114,-0.00052932,-0.00102609,-0.00224311
 ,-0.00330866,0.00163935,-0.00010112,0.00045218,0.00078243,0.00003783,0
 .00001228,-0.00002274,0.00002021,-0.00113291,-0.00034932,0.00005811,0.
 00031776,-0.00009824,-0.01192382,0.05664075,-0.00112215,0.00025501,0.0
 0024832,0.00194683,-0.00120544,-0.00022112,-0.00014340,0.00032907,-0.0
 0026207,-0.00000777,-0.00129095,-0.00006979,0.00070144,-0.00103582,-0.
 00570259,0.00092426,0.00032524,0.00055209,0.09888646,-0.02083078,-0.26
 633621,0.00940346,-0.00057051,-0.01509471,-0.00276582,0.00106085,-0.00
 378022,0.00007303,-0.00004149,-0.00023972,0.00029770,-0.00012390,-0.00
 005459,0.00002866,0.00009407,0.00003249,-0.00057209,0.00034933,0.00103
 787,-0.00022159,-0.00015520,0.00058017,-0.10818843,0.02292439,0.289049
 83,-0.00179732,0.00163176,0.00081618,-0.00036418,-0.00462790,-0.004194
 58,-0.00014308,0.00018158,0.00048116,-0.00207749,-0.00269138,0.0007206
 7,0.01123616,-0.01641689,-0.00043378,0.00240996,0.00182803,-0.00009826
 ,-0.13386299,0.12511107,0.00802014,-0.01489596,0.02169507,-0.00314686,
 0.00050311,0.00013769,0.00234734,-0.00011056,0.00047002,-0.00089963,-0
 .00025147,0.00005138,-0.00011688,0.00009673,0.00011988,0.00007424,-0.0
 0003064,-0.00005811,-0.00022158,0.00085195,-0.00104874,-0.00020081,-0.
 00708867,0.01042014,0.00025284,0.14381619,-0.00016410,0.00011191,0.000
 39053,-0.00036752,0.00050963,-0.00132178,-0.00039972,0.00068546,-0.000
 12113,-0.00454619,-0.00389898,0.00143960,0.01868854,-0.02317391,-0.001
 15563,0.00035358,0.00399407,-0.00055148,0.12317440,-0.22320886,-0.0043
 1844,-0.00194852,0.00436277,-0.00049215,-0.00018321,0.00034364,-0.0002
 8000,-0.00082125,0.00029022,-0.00067818,0.00002567,0.00004003,-0.00025
 299,0.00013663,0.00001559,0.00012639,-0.00017754,0.00031777,0.00015520
 ,0.00104870,-0.00149621,-0.00008588,0.00109325,-0.00127225,-0.00033651
 ,-0.13557039,0.24101157,-0.00169142,0.00140578,0.00101711,-0.00107193,
 -0.00312972,-0.00445903,0.00030413,-0.00008980,0.00036089,0.00108484,0
 .00013536,-0.00053438,-0.00533534,0.00536937,-0.00050619,-0.00013820,-
 0.00096447,-0.00005297,0.00914425,-0.00514670,-0.05070737,-0.01355032,
 0.02114583,-0.00307466,-0.00165262,0.00143679,0.00056836,0.00026656,-0
 .00034673,0.00043675,-0.00027771,-0.00015112,0.00036156,0.00002934,0.0
 0009470,0.00003373,-0.00034634,0.00009825,0.00058017,-0.00020081,0.000
 08589,0.00073907,0.01692284,-0.02446521,0.00070020,-0.00442352,0.00583
 105,0.05449342,0.00207527,-0.00174375,0.00005453,0.01095969,0.01616169
 ,-0.00022315,-0.00212798,0.00279508,0.00001383,-0.00029859,-0.00005722
 ,-0.00015512,-0.00177789,0.00108379,-0.00175180,-0.00118961,-0.0011671
 6,-0.00031222,-0.00910156,-0.01341057,0.00268503,-0.15019615,-0.133090
 90,0.00164153,-0.00850084,-0.01265671,-0.00226199,-0.00276058,0.000282
 82,0.00219859,-0.00037784,0.00012629,0.00024086,0.00067041,0.00088793,
 0.00000800,0.00005253,-0.00003783,0.00002866,0.00009672,-0.00013663,0.
 00002934,0.00039151,0.00013479,-0.00027141,0.00040568,0.00021222,0.000
 61278,0.16103850,0.00046699,0.00555552,-0.00005958,-0.02066296,-0.0247
 2365,0.00028312,0.00454932,-0.00282843,-0.00003458,0.00038515,0.000428
 78,0.00026443,0.00076874,0.00077823,0.00041618,0.00037144,0.00024443,0
 .00005318,0.00188668,0.00260860,-0.00073323,-0.12994617,-0.22148979,0.
 00254525,0.00189911,0.00242260,0.00067567,0.00044051,0.00113247,-0.000
 28819,0.00045879,0.00024064,-0.00030965,-0.00088797,-0.00138569,0.0000
 7069,-0.00003393,0.00001228,-0.00009407,-0.00011988,0.00001559,-0.0000
 9469,-0.00028973,-0.00005534,-0.00033025,-0.00029924,0.00052153,-0.000
 42789,0.14150083,0.23583084,-0.00010838,-0.00000856,-0.00115525,-0.000
 04480,-0.00026805,-0.00020340,0.00002587,-0.00033449,0.00124620,0.0003
 0543,0.00038298,0.00032247,-0.00173958,0.00246972,-0.00500201,-0.00224
 936,-0.00175373,0.00038666,-0.01428265,-0.02179354,0.00279307,0.001928
 74,0.00252147,-0.04984182,0.01351247,0.02139056,0.00268599,0.00392818,
 -0.00069556,-0.00413032,0.00004418,-0.00047355,0.00006730,0.00000800,-
 0.00007069,0.00033534,-0.00002998,0.00002274,0.00003249,0.00007424,-0.
 00012639,0.00003373,0.00083750,-0.00002984,0.00022283,0.00089094,0.000
 66772,0.00093310,-0.00205781,-0.00289677,0.04932579,-0.00179476,0.0016
 1726,-0.00079976,-0.00019356,-0.00465038,0.00420760,-0.00000285,-0.000
 04853,-0.00058960,-0.00015527,0.00006253,-0.00000163,-0.00006453,0.000
 07271,0.00089353,0.00006337,0.00001599,-0.00011384,0.00038360,0.000051
 99,-0.00246585,-0.01451499,0.02121190,0.00389737,-0.12672795,0.1211871
 8,-0.00303806,0.01220565,-0.01725380,0.00041494,-0.00198500,-0.0026743
 4,-0.00157236,0.00013390,0.00012688,-0.00015134,0.00000962,0.00001332,
 -0.00007035,0.00006389,0.00002044,0.00009310,-0.00005121,-0.00061558,-
 0.00016985,0.00125905,-0.00023747,0.00004920,0.00032294,-0.00028211,-0
 .00077703,0.13701484,-0.00014668,0.00005301,-0.00034408,-0.00016348,0.
 00061015,0.00103478,-0.00033582,0.00057287,0.00015771,0.00015201,0.000
 20033,0.00003064,0.00013494,-0.00049696,0.00102241,-0.00047105,0.00014
 622,-0.00041823,-0.00035295,0.00027010,0.00028524,-0.00136056,0.003400
 88,0.00090598,0.12041988,-0.22958280,-0.00217826,0.01472980,-0.0199666
 7,0.00101011,-0.00450023,-0.00375280,-0.00154487,0.00014705,0.00004190
 ,-0.00013806,0.00001892,-0.00000225,-0.00018088,-0.00001648,0.00008414
 ,0.00007342,-0.00026437,0.00039152,-0.00004118,-0.00028466,0.00044245,
 -0.00055393,0.00024873,0.00052964,-0.00061252,-0.13042802,0.24851962,0
 .00185720,-0.00149902,0.00114845,0.00081923,0.00348508,-0.00491266,-0.
 00026349,0.00017793,0.00044685,0.00026807,0.00015000,0.00030549,0.0001
 4045,0.00011988,0.00034118,-0.00016357,0.00004117,-0.00000843,0.001600
 65,-0.00130922,0.00061293,0.01454212,-0.02240340,-0.00412230,-0.003488
 34,-0.00075905,-0.05075216,0.00332904,-0.00481460,-0.00054108,-0.00109
 100,-0.00004781,-0.00043487,-0.00004925,-0.00010814,0.00004235,0.00001
 950,0.00006107,-0.00002638,-0.00009314,0.00005156,-0.00003279,-0.00011
 137,0.00035258,0.00035151,-0.00020309,0.00045726,-0.00105855,-0.000549
 03,0.00042665,0.00100985,-0.00093434,0.00068466,0.05439288,-0.00006213
 ,-0.00026675,-0.00020916,0.00153906,-0.00055638,0.00007814,0.00015723,
 0.00010023,0.00020730,-0.00011649,0.00037825,-0.00070224,-0.00144964,-
 0.00290592,0.00168482,-0.00029939,0.00023523,-0.00110110,-0.00289809,0
 .00026602,0.00404061,0.01208411,-0.00165015,0.01857643,-0.10465507,0.0
 1304966,-0.10628643,-0.00704347,0.00194037,-0.01628297,0.00023916,0.00
 224251,-0.00024182,0.00008601,0.00002496,-0.00001580,0.00020483,-0.000
 32626,-0.00005063,-0.00001598,0.00002898,-0.00000726,0.00133445,0.0001
 9180,0.00106734,-0.00008310,-0.00022947,0.00018072,0.00039774,-0.00024
 920,-0.00084625,-0.00798558,0.00164247,-0.01617287,0.10805975,-0.00018
 480,0.00010608,0.00001363,-0.00010382,-0.00010663,-0.00054372,0.000359
 87,-0.00006922,0.00007801,0.00011342,0.00041139,-0.00076413,-0.0024251
 8,-0.00395083,-0.00011147,-0.00062730,0.00014634,-0.00145163,-0.000619
 96,-0.00002248,0.00103521,0.00158450,-0.00137316,0.00085384,0.01462391
 ,-0.05273394,0.02452992,-0.00939931,0.00115338,-0.02275185,-0.00142085
 ,0.00088517,-0.00193493,0.00006094,0.00000888,0.00002551,0.00034274,-0
 .00029888,-0.00004911,-0.00003837,0.00007410,0.00004668,0.00014088,0.0
 0073752,0.00021628,-0.00068195,0.00033955,-0.00034047,0.00013712,-0.00
 005514,0.00007762,0.01203589,-0.00177662,0.02460402,-0.01374480,0.0573
 7878,0.00122250,-0.00028209,0.00031238,-0.00215167,0.00137936,-0.00029
 503,0.00018765,-0.00040266,-0.00027289,-0.00023055,0.00011507,0.000054
 62,0.00005949,0.00048652,0.00000880,-0.00049400,-0.00028795,-0.0003670
 8,0.00325449,-0.00081164,-0.00405206,-0.01037862,0.00080329,-0.0164256
 2,-0.10507153,0.02195977,-0.25546270,-0.00151396,0.00036052,-0.0037087
 1,-0.00002443,0.00138147,-0.00005257,-0.00002780,-0.00010395,0.0000224
 0,0.00004221,-0.00001054,0.00013062,0.00003894,-0.00016420,-0.00001434
 ,-0.00117371,-0.00026928,-0.00082961,0.00019143,0.00003866,0.00030974,
 0.00023888,0.00032766,0.00027917,0.00004937,0.00043941,0.00147462,0.11
 509565,-0.02428351,0.27762755,-0.00029284,0.,0.00001688,0.00094538,-0.
 00000002,-0.00038285,-0.00107614,0.00255991,-0.00133709,-0.00031780,-0
 .00021605,-0.00052815,0.00149839,-0.00000002,-0.00238267,0.00190224,-0
 .00000001,0.00014170,-0.00031780,0.00021605,-0.00052815,-0.00107624,-0
 .00255997,-0.00133711,-0.01077101,0.00096735,0.00615105,-0.28276373,0.
 00000187,0.09696998,-0.01077065,-0.00096717,0.00615086,-0.00029984,-0.
 00019543,0.00074740,0.00007096,-0.00009109,0.00000146,0.00007875,0.000
 03818,0.00000771,0.00007096,0.00009109,0.00000147,0.00007875,-0.000038
 18,0.00000771,-0.00029985,0.00019544,0.00074743,0.00125837,-0.00002144
 ,-0.00003995,-0.00039487,-0.00025780,-0.00021228,0.30161351,0.,0.00082
 849,0.,-0.00000002,-0.00215554,0.,0.00366671,-0.00432240,0.00093206,0.
 00038174,-0.00044045,0.00014535,-0.00000002,-0.00091476,0.00000001,-0.
 00000001,0.00011791,0.,-0.00038174,-0.00044045,-0.00014535,-0.00366676
 ,-0.00432231,-0.00093204,-0.02291058,0.00134011,0.01204505,0.00000188,
 -0.04591582,-0.00000076,0.02291074,0.00133978,-0.01204514,0.00106253,0
 .00016610,-0.00141834,-0.00003507,-0.00011490,-0.00017781,0.00002223,-
 0.00009421,-0.00013313,0.00003507,-0.00011490,0.00017781,-0.00002223,-
 0.00009421,0.00013313,-0.00106252,0.00016611,0.00141833,0.00086829,0.0
 0142303,0.00043183,-0.00030882,-0.00012190,-0.00036947,-0.00000195,0.0
 5236919,-0.00012285,0.,0.00000252,-0.00013757,0.,-0.00023427,-0.001235
 28,0.00108365,-0.00120019,0.00011441,0.00032426,-0.00230051,0.02877927
 ,-0.00000022,-0.00853788,-0.00109524,0.,0.00427937,0.00011441,-0.00032
 426,-0.00230050,-0.00123530,-0.00108363,-0.00120019,-0.00939478,0.0014
 7665,0.00487450,0.09537596,-0.00000075,-0.08790104,-0.00939481,-0.0014
 7650,0.00487449,-0.00009245,0.00000603,0.00059406,0.00039837,-0.000814
 37,-0.00028894,0.00019825,-0.00037515,-0.00009380,0.00039838,0.0008143
 7,-0.00028895,0.00019825,0.00037515,-0.00009380,-0.00009245,-0.0000060
 3,0.00059406,0.00063529,0.00051327,0.00051580,-0.00005200,0.00019565,-
 0.00025083,-0.10394315,0.00000082,0.08869114,-0.00179472,-0.00161725,-
 0.00079974,-0.00019354,0.00465039,0.00420756,-0.01451529,-0.02121158,0
 .00389735,0.00038360,-0.00005200,-0.00246586,-0.00006453,-0.00007271,0
 .00089352,0.00006337,-0.00001599,-0.00011383,-0.00015527,-0.00006252,-
 0.00000162,-0.00000284,0.00004854,-0.00058960,-0.00198490,0.00267432,-
 0.00157234,0.01220571,0.01725335,0.00041492,-0.12673214,-0.12119002,-0
 .00303798,0.00032294,0.00028211,-0.00077703,-0.00005120,0.00061559,-0.
 00016985,0.00125906,0.00023746,0.00004920,0.00000962,-0.00001332,-0.00
 007035,0.00006389,-0.00002044,0.00009309,0.00013389,-0.00012687,-0.000
 15134,0.00084419,0.00108447,0.00016573,-0.00008372,0.00000963,0.000277
 90,0.00125835,-0.00086830,0.00063529,0.13701930,0.00014673,0.00005305,
 0.00034409,0.00016349,0.00061004,-0.00103486,0.00136088,0.00340122,-0.
 00090608,0.00035295,0.00027010,-0.00028520,-0.00013494,-0.00049695,-0.
 00102242,0.00047105,0.00014622,0.00041823,-0.00015200,0.00020033,-0.00
 003064,0.00033583,0.00057287,-0.00015771,0.00450020,-0.00375291,0.0015
 4490,-0.01473029,-0.01996671,-0.00101011,-0.12042276,-0.22958095,0.002
 17839,-0.00024872,0.00052964,0.00061253,0.00026438,0.00039150,0.000041
 18,0.00028465,0.00044245,0.00055392,-0.00001892,-0.00000225,0.00018088
 ,0.00001648,0.00008414,-0.00007342,-0.00014705,0.00004190,0.00013806,-
 0.00108450,-0.00144973,0.00000395,0.00023251,0.00034197,0.00014165,0.0
 0002144,0.00142304,-0.00051328,0.13043094,0.24851741,0.00185718,0.0014
 9901,0.00114844,0.00081922,-0.00348509,-0.00491265,0.01454247,0.022403
 17,-0.00412230,0.00160065,0.00130918,0.00061292,0.00014044,-0.00011988
 ,0.00034118,-0.00016357,-0.00004117,-0.00000843,0.00026807,-0.00015000
 ,0.00030549,-0.00026350,-0.00017793,0.00044684,-0.00109100,0.00004782,
 -0.00043487,0.00332911,0.00481456,-0.00054108,-0.00348830,0.00075914,-
 0.05075187,-0.00054904,-0.00042664,0.00100986,-0.00011137,-0.00035258,
 0.00035151,-0.00020309,-0.00045725,-0.00105857,0.00001949,-0.00006107,
 -0.00002638,-0.00009314,-0.00005156,-0.00003279,-0.00004925,0.00010814
 ,0.00004235,0.00016573,-0.00000396,0.00068963,0.00041745,0.00010638,0.
 00055768,-0.00003995,-0.00043183,0.00051580,-0.00093438,-0.00068468,0.
 05439261,-0.00006212,0.00026674,-0.00020916,0.00153907,0.00055636,0.00
 007816,0.01208408,0.00164995,0.01857643,-0.00289809,-0.00026598,0.0040
 4059,-0.00144956,0.00290588,0.00168483,-0.00029939,-0.00023522,-0.0011
 0108,-0.00011649,-0.00037824,-0.00070223,0.00015722,-0.00010023,0.0002
 0730,0.00023915,-0.00224250,-0.00024179,-0.00704335,-0.00194025,-0.016
 28260,-0.10465557,-0.01304891,-0.10628635,0.00039774,0.00024919,-0.000
 84625,0.00133445,-0.00019181,0.00106734,-0.00008309,0.00022948,0.00018
 073,0.00020483,0.00032625,-0.00005063,-0.00001598,-0.00002898,-0.00000
 726,0.00008601,-0.00002497,-0.00001580,-0.00008372,-0.00023251,0.00041
 745,0.00098519,0.00009524,0.00062004,-0.00039487,0.00030882,-0.0000520
 0,-0.00798577,-0.00164234,-0.01617323,0.10806026,0.00018479,0.00010607
 ,-0.00001363,0.00010379,-0.00010664,0.00054371,-0.00158470,-0.00137315
 ,-0.00085412,0.00062000,-0.00002249,-0.00103526,0.00242514,-0.00395091
 ,0.00011144,0.00062730,0.00014634,0.00145165,-0.00011341,0.00041139,0.
 00076414,-0.00035987,-0.00006922,-0.00007801,0.00142086,0.00088517,0.0
 0193493,0.00939943,0.00115329,0.02275206,-0.01462314,-0.05273376,-0.02
 452821,-0.00013712,-0.00005515,-0.00007760,-0.00014089,0.00073752,-0.0
 0021630,0.00068196,0.00033953,0.00034047,-0.00034274,-0.00029888,0.000
 04911,0.00003837,0.00007410,-0.00004668,-0.00006094,0.00000888,-0.0000
 2551,-0.00000963,0.00034197,-0.00010639,-0.00009527,-0.00107433,-0.000
 44809,0.00025781,-0.00012191,-0.00019565,-0.01203578,-0.00177638,-0.02
 460378,0.01374403,0.05737854,0.00122249,0.00028208,0.00031238,-0.00215
 168,-0.00137934,-0.00029504,-0.01037861,-0.00080314,-0.01642567,0.0032
 5450,0.00081160,-0.00405207,0.00005948,-0.00048652,0.00000880,-0.00049
 400,0.00028795,-0.00036708,-0.00023055,-0.00011506,0.00005462,0.000187
 65,0.00040265,-0.00027289,-0.00002445,-0.00138146,-0.00005257,-0.00151
 397,-0.00036049,-0.00370871,-0.10507137,-0.02195813,-0.25546126,0.0002
 3888,-0.00032767,0.00027917,-0.00117370,0.00026930,-0.00082961,0.00019
 143,-0.00003866,0.00030974,0.00004221,0.00001054,0.00013062,0.00003894
 ,0.00016420,-0.00001434,-0.00002779,0.00010395,0.00002240,0.00027790,-
 0.00014166,0.00055768,0.00062005,0.00044808,0.00095384,-0.00021228,0.0
 0036947,-0.00025083,0.00004937,-0.00043940,0.00147462,0.11509552,0.024
 28171,0.27762618\\-0.00000784,0.00000148,0.00001432,-0.00005506,-0.000
 00165,-0.00003888,0.00001256,-0.00002093,0.00002198,-0.00001195,-0.000
 02439,-0.00002030,-0.00002312,0.00000018,-0.00002295,-0.00000033,0.000
 00010,-0.00000243,-0.00001246,0.00002392,-0.00001980,0.00001359,0.0000
 2116,0.00002207,0.00001395,-0.00000853,0.00001187,-0.00000841,0.000000
 06,0.00002128,0.00001299,0.00000767,0.00001149,-0.00000500,-0.00000077
 ,-0.00000004,0.00001172,0.00000095,0.00001225,0.00001511,0.00000185,-0
 .00000281,0.00001196,-0.00000104,0.00001164,0.00001518,-0.00000178,-0.
 00000274,-0.00000502,0.00000097,0.,0.00000730,-0.00000532,0.00000411,0
 .00000328,-0.00000937,-0.00000353,0.00000028,0.00000005,-0.00001849,0.
 00000766,0.00000594,0.00000411,0.00000362,0.00000944,-0.00000317\\\@


 THE MOST BEAUTIFUL EXPERIENCE WE CAN HAVE IS THE MYSTERIOUS.
 IT IS THE FUNDAMENTAL EMOTION WHICH STANDS AT AT THE CRADLE 
 OF TRUE ART AND TRUE SCIENCE.

                                    -- ALBERT EINSTEIN
 Job cpu time:       0 days  0 hours  2 minutes  3.0 seconds.
 Elapsed time:       0 days  0 hours  2 minutes  7.7 seconds.
 File lengths (MBytes):  RWF=     96 Int=      0 D2E=      0 Chk=      5 Scr=      1
 Normal termination of Gaussian 16 at Thu Feb 22 10:30:06 2024.
