 Entering Gaussian System, Link 0=g16
 Input=/Volumes/SSD-PMU3/b3lyp_6-31gd_freq/VYZKEUIZXHHUOL-SJCGDGNZSA-N_calculating/gaussianinput0.gjf
 Output=/Volumes/SSD-PMU3/b3lyp_6-31gd_freq/VYZKEUIZXHHUOL-SJCGDGNZSA-N_calculating/gaussianinput0.log
 Initial command:
 /Applications/g16/l1.exe "/Users/macmini_m1_2022/PycharmProjects/sphere_model/sphere_model_lib/Gau-80347.inp" -scrdir="/Users/macmini_m1_2022/PycharmProjects/sphere_model/sphere_model_lib/"
 Entering Link 1 = /Applications/g16/l1.exe PID=     80348.
  
 Copyright (c) 1988,1990,1992,1993,1995,1998,2003,2009,2016,
            Gaussian, Inc.  All Rights Reserved.
  
 This is part of the Gaussian(R) 16 program.  It is based on
 the Gaussian(R) 09 system (copyright 2009, Gaussian, Inc.),
 the Gaussian(R) 03 system (copyright 2003, Gaussian, Inc.),
 the Gaussian(R) 98 system (copyright 1998, Gaussian, Inc.),
 the Gaussian(R) 94 system (copyright 1995, Gaussian, Inc.),
 the Gaussian 92(TM) system (copyright 1992, Gaussian, Inc.),
 the Gaussian 90(TM) system (copyright 1990, Gaussian, Inc.),
 the Gaussian 88(TM) system (copyright 1988, Gaussian, Inc.),
 the Gaussian 86(TM) system (copyright 1986, Carnegie Mellon
 University), and the Gaussian 82(TM) system (copyright 1983,
 Carnegie Mellon University). Gaussian is a federally registered
 trademark of Gaussian, Inc.
  
 This software contains proprietary and confidential information,
 including trade secrets, belonging to Gaussian, Inc.
  
 This software is provided under written license and may be
 used, copied, transmitted, or stored only in accord with that
 written license.
  
 The following legend is applicable only to US Government
 contracts under FAR:
  
                    RESTRICTED RIGHTS LEGEND
  
 Use, reproduction and disclosure by the US Government is
 subject to restrictions as set forth in subparagraphs (a)
 and (c) of the Commercial Computer Software - Restricted
 Rights clause in FAR 52.227-19.
  
 Gaussian, Inc.
 340 Quinnipiac St., Bldg. 40, Wallingford CT 06492
  
  
 ---------------------------------------------------------------
 Warning -- This program may not be used in any manner that
 competes with the business of Gaussian, Inc. or will provide
 assistance to any competitor of Gaussian, Inc.  The licensee
 of this program is prohibited from giving any competitor of
 Gaussian, Inc. access to this program.  By using this program,
 the user acknowledges that Gaussian, Inc. is engaged in the
 business of creating and licensing software in the field of
 computational chemistry and represents and warrants to the
 licensee that it is not a competitor of Gaussian, Inc. and that
 it will not use this program in any manner prohibited above.
 ---------------------------------------------------------------
  

 Cite this work as:
 Gaussian 16, Revision A.03,
 M. J. Frisch, G. W. Trucks, H. B. Schlegel, G. E. Scuseria, 
 M. A. Robb, J. R. Cheeseman, G. Scalmani, V. Barone, 
 G. A. Petersson, H. Nakatsuji, X. Li, M. Caricato, A. V. Marenich, 
 J. Bloino, B. G. Janesko, R. Gomperts, B. Mennucci, H. P. Hratchian, 
 J. V. Ortiz, A. F. Izmaylov, J. L. Sonnenberg, D. Williams-Young, 
 F. Ding, F. Lipparini, F. Egidi, J. Goings, B. Peng, A. Petrone, 
 T. Henderson, D. Ranasinghe, V. G. Zakrzewski, J. Gao, N. Rega, 
 G. Zheng, W. Liang, M. Hada, M. Ehara, K. Toyota, R. Fukuda, 
 J. Hasegawa, M. Ishida, T. Nakajima, Y. Honda, O. Kitao, H. Nakai, 
 T. Vreven, K. Throssell, J. A. Montgomery, Jr., J. E. Peralta, 
 F. Ogliaro, M. J. Bearpark, J. J. Heyd, E. N. Brothers, K. N. Kudin, 
 V. N. Staroverov, T. A. Keith, R. Kobayashi, J. Normand, 
 K. Raghavachari, A. P. Rendell, J. C. Burant, S. S. Iyengar, 
 J. Tomasi, M. Cossi, J. M. Millam, M. Klene, C. Adamo, R. Cammi, 
 J. W. Ochterski, R. L. Martin, K. Morokuma, O. Farkas, 
 J. B. Foresman, and D. J. Fox, Gaussian, Inc., Wallingford CT, 2016.
 
 ******************************************
 Gaussian 16:  EM64M-G16RevA.03 25-Dec-2016
                24-Feb-2024 
 ******************************************
 %nprocshared=10
 Will use up to   10 processors via shared memory.
 %mem=12GB
 %chk= 0.chk
 ---------------------
 # freq b3lyp/6-31g(d)
 ---------------------
 1/10=4,30=1,38=1/1,3;
 2/12=2,17=6,18=5,40=1/2;
 3/5=1,6=6,7=1,11=2,25=1,30=1,71=2,74=-5,140=1/1,2,3;
 4//1;
 5/5=2,38=5,98=1/2;
 8/6=4,10=90,11=11/1;
 11/6=1,8=1,9=11,15=111,16=1/1,2,10;
 10/6=1/2;
 6/7=2,8=2,9=2,10=2,28=1/1;
 7/8=1,10=1,25=1/1,2,3,16;
 1/10=4,30=1/3;
 99//99;
 ---------
 good luck
 ---------
 Symbolic Z-matrix:
 Charge =  0 Multiplicity = 1
 O                     1.21426   0.        0. 
 C                     0.        0.        0. 
 C                    -0.83804  -1.29234   0.00429 
 C                    -1.85741  -1.24403  -1.16053 
 C                    -2.67128   0.       -0.75841 
 Br                   -4.48599   0.       -1.56681 
 C                    -1.85741   1.24403  -1.16053 
 C                    -0.83804   1.29234   0.00429 
 C                    -1.82679   1.24513   1.19516 
 C                    -2.66844   0.        0.83375 
 C                    -1.82679  -1.24513   1.19516 
 H                    -0.17304  -2.1592   -0.01243 
 H                    -2.46481  -2.15434  -1.14994 
 H                    -1.41216  -1.14213  -2.15478 
 H                    -1.41216   1.14213  -2.15478 
 H                    -2.46481   2.15434  -1.14994 
 H                    -0.17304   2.1592   -0.01243 
 H                    -1.34251   1.15114   2.17275 
 H                    -2.42864   2.16132   1.20536 
 H                    -3.66693   0.        1.27248 
 H                    -1.34251  -1.15114   2.17275 
 H                    -2.42864  -2.16131   1.20536 
 

 GradGradGradGradGradGradGradGradGradGradGradGradGradGradGradGradGradGrad
 Berny optimization.
 Initialization pass.
 Trust Radius=3.00D-01 FncErr=1.00D-07 GrdErr=1.00D-07 EigMax=2.50D+02 EigMin=1.00D-04
 Number of steps in this run=      2 maximum allowed number of steps=      2.
 GradGradGradGradGradGradGradGradGradGradGradGradGradGradGradGradGradGrad

                          Input orientation:                          
 ---------------------------------------------------------------------
 Center     Atomic      Atomic             Coordinates (Angstroms)
 Number     Number       Type             X           Y           Z
 ---------------------------------------------------------------------
      1          8           0        1.214264    0.000000    0.000000
      2          6           0        0.000000    0.000000    0.000000
      3          6           0       -0.838039   -1.292340    0.004289
      4          6           0       -1.857410   -1.244033   -1.160530
      5          6           0       -2.671275    0.000000   -0.758410
      6         35           0       -4.485989    0.000001   -1.566807
      7          6           0       -1.857409    1.244033   -1.160530
      8          6           0       -0.838039    1.292340    0.004289
      9          6           0       -1.826786    1.245128    1.195156
     10          6           0       -2.668444    0.000000    0.833745
     11          6           0       -1.826786   -1.245128    1.195156
     12          1           0       -0.173039   -2.159202   -0.012432
     13          1           0       -2.464810   -2.154337   -1.149939
     14          1           0       -1.412155   -1.142127   -2.154779
     15          1           0       -1.412155    1.142127   -2.154779
     16          1           0       -2.464810    2.154338   -1.149939
     17          1           0       -0.173039    2.159202   -0.012432
     18          1           0       -1.342513    1.151144    2.172755
     19          1           0       -2.428643    2.161315    1.205357
     20          1           0       -3.666933    0.000001    1.272484
     21          1           0       -1.342512   -1.151143    2.172755
     22          1           0       -2.428643   -2.161314    1.205358
 ---------------------------------------------------------------------
                    Distance matrix (angstroms):
                    1          2          3          4          5
     1  O    0.000000
     2  C    1.214264   0.000000
     3  C    2.425306   1.540283   0.000000
     4  C    3.511357   2.518813   1.548630   0.000000
     5  C    3.958863   2.776850   2.369094   1.540031   0.000000
     6  Br   5.911664   4.751735   4.176844   2.936343   1.986628
     7  C    3.511356   2.518812   2.971381   2.488066   1.540031
     8  C    2.425306   1.540283   2.584680   2.971382   2.369094
     9  C    3.496674   2.513143   2.972294   3.427261   2.465750
    10  C    3.971215   2.795662   2.389251   2.486469   1.592158
    11  C    3.496674   2.513143   1.548552   2.355885   2.465750
    12  H    2.566499   2.166160   1.092682   2.234450   3.385236
    13  H    4.415780   3.469700   2.172939   1.094395   2.199339
    14  H    3.584076   2.818104   2.239140   1.094152   2.199928
    15  H    3.584076   2.818104   3.304211   2.623079   2.199928
    16  H    4.415780   3.469700   3.982237   3.452242   2.199340
    17  H    2.566499   2.166160   3.515060   3.967019   3.385236
    18  H    3.547267   2.801489   3.305655   4.136760   3.417963
    19  H    4.403969   3.467344   3.987520   4.185705   2.930279
    20  H    5.044333   3.881445   3.358736   3.277431   2.261828
    21  H    3.547266   2.801488   2.230846   3.374098   3.417963
    22  H    4.403968   3.467344   2.174328   2.600988   2.930279
                    6          7          8          9         10
     6  Br   0.000000
     7  C    2.936343   0.000000
     8  C    4.176844   1.548629   0.000000
     9  C    4.031146   2.355885   1.548552   0.000000
    10  C    3.011000   2.486469   2.389251   1.545752   0.000000
    11  C    4.031147   3.427261   2.972294   2.490256   1.545752
    12  H    5.067522   3.967019   3.515060   3.972733   3.406643
    13  H    2.983306   3.452241   3.982237   4.178864   2.935581
    14  H    3.331460   2.623079   3.304211   4.134364   3.437149
    15  H    3.331459   1.094151   2.239140   3.377069   3.437149
    16  H    2.983305   1.094396   2.172940   2.594843   2.935582
    17  H    5.067521   2.234450   1.092682   2.242472   3.406643
    18  H    5.019053   3.374098   2.230846   1.095013   2.208206
    19  H    4.072940   2.600987   2.174328   1.096237   2.206101
    20  H    2.955068   3.277430   3.358735   2.223165   1.090629
    21  H    5.019054   4.136759   3.305654   2.632933   2.208206
    22  H    4.072942   4.185705   3.987520   3.459217   2.206100
                   11         12         13         14         15
    11  C    0.000000
    12  H    2.242472   0.000000
    13  H    2.594842   2.558546   0.000000
    14  H    3.377069   2.675724   1.772669   0.000000
    15  H    4.134364   4.125995   3.603396   2.284254   0.000000
    16  H    4.178865   5.015253   4.308675   3.603397   1.772669
    17  H    3.972733   4.318404   5.015252   4.125995   2.675724
    18  H    2.632934   4.135348   4.819341   4.898111   4.328104
    19  H    3.459218   5.023706   4.916663   4.820424   3.655476
    20  H    2.223166   4.303541   3.457514   4.258475   4.258475
    21  H    1.095013   2.675611   3.647773   4.328104   4.898111
    22  H    1.096236   2.563351   2.355585   3.655477   4.820424
                   16         17         18         19         20
    16  H    0.000000
    17  H    2.558546   0.000000
    18  H    3.647772   2.675611   0.000000
    19  H    2.355584   2.563350   1.770871   0.000000
    20  H    3.457514   4.303540   2.745641   2.491816   0.000000
    21  H    4.819342   4.135347   2.302287   3.617723   2.745643
    22  H    4.916664   5.023706   3.617722   4.322629   2.491817
                   21         22
    21  H    0.000000
    22  H    1.770871   0.000000
 Stoichiometry    C9H11BrO
 Framework group  C1[X(C9H11BrO)]
 Deg. of freedom    60
 Full point group                 C1      NOp   1
 Largest Abelian subgroup         C1      NOp   1
 Largest concise Abelian subgroup C1      NOp   1
                         Standard orientation:                         
 ---------------------------------------------------------------------
 Center     Atomic      Atomic             Coordinates (Angstroms)
 Number     Number       Type             X           Y           Z
 ---------------------------------------------------------------------
      1          8           0       -3.454162   -0.000001   -0.974979
      2          6           0       -2.341033   -0.000000   -0.489818
      3          6           0       -1.574508    1.292340   -0.151047
      4          6           0       -0.174635    1.244033   -0.811558
      5          6           0        0.410777    0.000000   -0.117750
      6         35           0        2.397341   -0.000000   -0.133745
      7          6           0       -0.174635   -1.244033   -0.811558
      8          6           0       -1.574507   -1.292340   -0.151046
      9          6           0       -1.143924   -1.245128    1.335689
     10          6           0       -0.227966    0.000001    1.340665
     11          6           0       -1.143925    1.245128    1.335689
     12          1           0       -2.177440    2.159202   -0.432077
     13          1           0        0.377944    2.154337   -0.559162
     14          1           0       -0.185551    1.142127   -1.900899
     15          1           0       -0.185551   -1.142127   -1.900899
     16          1           0        0.377945   -2.154338   -0.559161
     17          1           0       -2.177439   -2.159202   -0.432076
     18          1           0       -1.978464   -1.151144    2.038373
     19          1           0       -0.596271   -2.161314    1.585514
     20          1           0        0.512062    0.000000    2.141809
     21          1           0       -1.978465    1.151143    2.038372
     22          1           0       -0.596273    2.161315    1.585513
 ---------------------------------------------------------------------
 Rotational constants (GHZ):           1.8409163           0.5343973           0.5226371
 Standard basis: 6-31G(d) (6D, 7F)
 There are   202 symmetry adapted cartesian basis functions of A   symmetry.
 There are   202 symmetry adapted basis functions of A   symmetry.
   202 basis functions,   407 primitive gaussians,   202 cartesian basis functions
    54 alpha electrons       54 beta electrons
       nuclear repulsion energy       929.6526358171 Hartrees.
 NAtoms=   22 NActive=   22 NUniq=   22 SFac= 1.00D+00 NAtFMM=   60 NAOKFM=F Big=F
 Integral buffers will be    131072 words long.
 Raffenetti 2 integral format.
 Two-electron integral symmetry is turned on.
 One-electron integrals computed using PRISM.
 NBasis=   202 RedAO= T EigKep=  7.44D-04  NBF=   202
 NBsUse=   202 1.00D-06 EigRej= -1.00D+00 NBFU=   202
 ExpMin= 1.43D-01 ExpMax= 5.74D+05 ExpMxC= 5.74D+03 IAcc=3 IRadAn=         5 AccDes= 0.00D+00
 Harris functional with IExCor=  402 and IRadAn=       5 diagonalized for initial guess.
 HarFok:  IExCor=  402 AccDes= 0.00D+00 IRadAn=         5 IDoV= 1 UseB2=F ITyADJ=14
 ICtDFT=  3500011 ScaDFX=  1.000000  1.000000  1.000000  1.000000
 FoFCou: FMM=F IPFlag=           0 FMFlag=      100000 FMFlg1=           0
         NFxFlg=           0 DoJE=T BraDBF=F KetDBF=T FulRan=T
         wScrn=  0.000000 ICntrl=       500 IOpCl=  0 I1Cent=   200000004 NGrid=           0
         NMat0=    1 NMatS0=      1 NMatT0=    0 NMatD0=    1 NMtDS0=    0 NMtDT0=    0
 Petite list used in FoFCou.
 Requested convergence on RMS density matrix=1.00D-08 within 128 cycles.
 Requested convergence on MAX density matrix=1.00D-06.
 Requested convergence on             energy=1.00D-06.
 No special actions if energy rises.
 Integral accuracy reduced to 1.0D-05 until final iterations.
 Initial convergence to 1.0D-05 achieved.  Increase integral accuracy.
 SCF Done:  E(RB3LYP) =  -2996.51103570     A.U. after   14 cycles
            NFock= 14  Conv=0.60D-08     -V/T= 2.0066
 DoSCS=F DFT=T ScalE2(SS,OS)=  1.000000  1.000000
 Range of M.O.s used for correlation:     1   202
 NBasis=   202 NAE=    54 NBE=    54 NFC=     0 NFV=     0
 NROrb=    202 NOA=    54 NOB=    54 NVA=   148 NVB=   148

 **** Warning!!: The largest alpha MO coefficient is  0.19725054D+02

 Symmetrizing basis deriv contribution to polar:
 IMax=3 JMax=2 DiffMx= 0.00D+00
 G2DrvN: will do    23 centers at a time, making    1 passes.
 Calling FoFCou, ICntrl=  3107 FMM=F I1Cent=   0 AccDes= 0.00D+00.
 End of G2Drv F.D. properties file   721 does not exist.
 End of G2Drv F.D. properties file   722 does not exist.
 End of G2Drv F.D. properties file   788 does not exist.
          IDoAtm=1111111111111111111111
          Differentiating once with respect to electric field.
                with respect to dipole field.
          Differentiating once with respect to nuclear coordinates.
 Keep R1 ints in memory in canonical form, NReq=220481295.
          There are    69 degrees of freedom in the 1st order CPHF.  IDoFFX=6 NUNeed=     3.
     66 vectors produced by pass  0 Test12= 1.16D-14 1.45D-09 XBig12= 1.04D+02 4.36D+00.
 AX will form    66 AO Fock derivatives at one time.
     66 vectors produced by pass  1 Test12= 1.16D-14 1.45D-09 XBig12= 1.23D+01 8.42D-01.
     66 vectors produced by pass  2 Test12= 1.16D-14 1.45D-09 XBig12= 2.54D-01 7.47D-02.
     66 vectors produced by pass  3 Test12= 1.16D-14 1.45D-09 XBig12= 1.57D-03 7.09D-03.
     66 vectors produced by pass  4 Test12= 1.16D-14 1.45D-09 XBig12= 1.94D-06 1.52D-04.
     43 vectors produced by pass  5 Test12= 1.16D-14 1.45D-09 XBig12= 1.64D-09 5.13D-06.
      5 vectors produced by pass  6 Test12= 1.16D-14 1.45D-09 XBig12= 1.24D-12 1.23D-07.
      1 vectors produced by pass  7 Test12= 1.16D-14 1.45D-09 XBig12= 1.13D-15 4.11D-09.
 InvSVY:  IOpt=1 It=  1 EMax= 8.88D-15
 Solved reduced A of dimension   379 with    69 vectors.
 Isotropic polarizability for W=    0.000000      102.04 Bohr**3.
 End of Minotr F.D. properties file   721 does not exist.
 End of Minotr F.D. properties file   722 does not exist.
 End of Minotr F.D. properties file   788 does not exist.

 **********************************************************************

            Population analysis using the SCF density.

 **********************************************************************

 Orbital symmetries:
       Occupied  (A) (A) (A) (A) (A) (A) (A) (A) (A) (A) (A) (A)
                 (A) (A) (A) (A) (A) (A) (A) (A) (A) (A) (A) (A)
                 (A) (A) (A) (A) (A) (A) (A) (A) (A) (A) (A) (A)
                 (A) (A) (A) (A) (A) (A) (A) (A) (A) (A) (A) (A)
                 (A) (A) (A) (A) (A) (A)
       Virtual   (A) (A) (A) (A) (A) (A) (A) (A) (A) (A) (A) (A)
                 (A) (A) (A) (A) (A) (A) (A) (A) (A) (A) (A) (A)
                 (A) (A) (A) (A) (A) (A) (A) (A) (A) (A) (A) (A)
                 (A) (A) (A) (A) (A) (A) (A) (A) (A) (A) (A) (A)
                 (A) (A) (A) (A) (A) (A) (A) (A) (A) (A) (A) (A)
                 (A) (A) (A) (A) (A) (A) (A) (A) (A) (A) (A) (A)
                 (A) (A) (A) (A) (A) (A) (A) (A) (A) (A) (A) (A)
                 (A) (A) (A) (A) (A) (A) (A) (A) (A) (A) (A) (A)
                 (A) (A) (A) (A) (A) (A) (A) (A) (A) (A) (A) (A)
                 (A) (A) (A) (A) (A) (A) (A) (A) (A) (A) (A) (A)
                 (A) (A) (A) (A) (A) (A) (A) (A) (A) (A) (A) (A)
                 (A) (A) (A) (A) (A) (A) (A) (A) (A) (A) (A) (A)
                 (A) (A) (A) (A)
 The electronic state is 1-A.
 Alpha  occ. eigenvalues -- -482.89873 -61.86053 -56.38121 -56.37729 -56.37728
 Alpha  occ. eigenvalues --  -19.14422 -10.27801 -10.25917 -10.21119 -10.20808
 Alpha  occ. eigenvalues --  -10.20806 -10.20609 -10.20608 -10.20284 -10.20283
 Alpha  occ. eigenvalues --   -8.57122  -6.52457  -6.51241  -6.51234  -2.64026
 Alpha  occ. eigenvalues --   -2.63686  -2.63681  -2.62711  -2.62711  -1.04300
 Alpha  occ. eigenvalues --   -0.90807  -0.80359  -0.78985  -0.75333  -0.70613
 Alpha  occ. eigenvalues --   -0.67673  -0.61855  -0.61618  -0.54745  -0.54066
 Alpha  occ. eigenvalues --   -0.49735  -0.47770  -0.45987  -0.45393  -0.44267
 Alpha  occ. eigenvalues --   -0.41594  -0.41310  -0.40570  -0.39635  -0.37050
 Alpha  occ. eigenvalues --   -0.35485  -0.35067  -0.34420  -0.33710  -0.33193
 Alpha  occ. eigenvalues --   -0.32587  -0.27353  -0.27102  -0.24231
 Alpha virt. eigenvalues --   -0.02201  -0.00617   0.08445   0.09285   0.11066
 Alpha virt. eigenvalues --    0.11954   0.13308   0.13479   0.14210   0.16163
 Alpha virt. eigenvalues --    0.16244   0.17063   0.17124   0.17736   0.19474
 Alpha virt. eigenvalues --    0.19544   0.20172   0.22295   0.22764   0.24900
 Alpha virt. eigenvalues --    0.26093   0.28707   0.29497   0.30735   0.31826
 Alpha virt. eigenvalues --    0.34609   0.43983   0.44587   0.45993   0.46440
 Alpha virt. eigenvalues --    0.47655   0.49930   0.49954   0.52731   0.54177
 Alpha virt. eigenvalues --    0.54229   0.55621   0.58128   0.59297   0.60800
 Alpha virt. eigenvalues --    0.62116   0.62159   0.63110   0.65000   0.65704
 Alpha virt. eigenvalues --    0.67170   0.69993   0.72500   0.73849   0.75690
 Alpha virt. eigenvalues --    0.77449   0.78056   0.78879   0.81150   0.82117
 Alpha virt. eigenvalues --    0.83580   0.84699   0.84875   0.86446   0.86862
 Alpha virt. eigenvalues --    0.88283   0.91075   0.91513   0.93155   0.93810
 Alpha virt. eigenvalues --    0.95278   0.96478   0.97271   0.98821   1.02500
 Alpha virt. eigenvalues --    1.05056   1.10585   1.11969   1.17908   1.18743
 Alpha virt. eigenvalues --    1.19840   1.22036   1.32189   1.39717   1.40491
 Alpha virt. eigenvalues --    1.43716   1.55764   1.56090   1.56716   1.60451
 Alpha virt. eigenvalues --    1.61490   1.65362   1.65553   1.69067   1.75444
 Alpha virt. eigenvalues --    1.76172   1.76350   1.77788   1.78603   1.79900
 Alpha virt. eigenvalues --    1.82115   1.85640   1.86241   1.87721   1.93603
 Alpha virt. eigenvalues --    1.94682   1.96328   1.99909   2.02372   2.03842
 Alpha virt. eigenvalues --    2.07902   2.08110   2.12459   2.12589   2.15754
 Alpha virt. eigenvalues --    2.20719   2.21240   2.23234   2.24475   2.29595
 Alpha virt. eigenvalues --    2.34214   2.36251   2.37170   2.38712   2.45040
 Alpha virt. eigenvalues --    2.45286   2.49302   2.53260   2.55302   2.58047
 Alpha virt. eigenvalues --    2.58564   2.63201   2.66019   2.66060   2.70399
 Alpha virt. eigenvalues --    2.72261   2.76095   2.80539   2.82998   3.00379
 Alpha virt. eigenvalues --    3.00951   4.03560   4.17335   4.26869   4.31631
 Alpha virt. eigenvalues --    4.36594   4.46883   4.58873   4.78599   4.81332
 Alpha virt. eigenvalues --    4.81755   8.64956  73.39270
          Condensed to atoms (all electrons):
               1          2          3          4          5          6
     1  O    8.005113   0.576637  -0.071256   0.001502  -0.000092   0.000000
     2  C    0.576637   4.497010   0.332806  -0.024707  -0.026133   0.000347
     3  C   -0.071256   0.332806   5.285129   0.301108  -0.040199   0.004069
     4  C    0.001502  -0.024707   0.301108   5.174970   0.359695  -0.050719
     5  C   -0.000092  -0.026133  -0.040199   0.359695   5.022277   0.260023
     6  Br   0.000000   0.000347   0.004069  -0.050719   0.260023  35.026153
     7  C    0.001502  -0.024707  -0.005142  -0.050435   0.359695  -0.050719
     8  C   -0.071256   0.332806  -0.122622  -0.005142  -0.040199   0.004069
     9  C    0.001269  -0.027648  -0.006045   0.002039  -0.070742   0.003276
    10  C   -0.000087  -0.027571  -0.037831  -0.082679   0.370700  -0.044699
    11  C    0.001269  -0.027648   0.325001  -0.058666  -0.070742   0.003276
    12  H    0.003252  -0.028822   0.346790  -0.027273   0.004777  -0.000133
    13  H   -0.000076   0.003088  -0.027782   0.363088  -0.030196  -0.001073
    14  H    0.000342  -0.001670  -0.032761   0.367002  -0.034606   0.002195
    15  H    0.000342  -0.001670   0.000622  -0.007511  -0.034606   0.002195
    16  H   -0.000076   0.003088  -0.000367   0.005036  -0.030196  -0.001073
    17  H    0.003252  -0.028822   0.006239  -0.000316   0.004777  -0.000133
    18  H    0.000412  -0.001537   0.000502  -0.000119   0.005233  -0.000095
    19  H   -0.000079   0.003185  -0.000290  -0.000032  -0.002579   0.000227
    20  H    0.000001   0.000644   0.003856   0.003905  -0.035678   0.002011
    21  H    0.000412  -0.001537  -0.033960   0.005777   0.005233  -0.000095
    22  H   -0.000079   0.003185  -0.030597  -0.004323  -0.002579   0.000227
               7          8          9         10         11         12
     1  O    0.001502  -0.071256   0.001269  -0.000087   0.001269   0.003252
     2  C   -0.024707   0.332806  -0.027648  -0.027571  -0.027648  -0.028822
     3  C   -0.005142  -0.122622  -0.006045  -0.037831   0.325001   0.346790
     4  C   -0.050435  -0.005142   0.002039  -0.082679  -0.058666  -0.027273
     5  C    0.359695  -0.040199  -0.070742   0.370700  -0.070742   0.004777
     6  Br  -0.050719   0.004069   0.003276  -0.044699   0.003276  -0.000133
     7  C    5.174971   0.301108  -0.058666  -0.082679   0.002039  -0.000316
     8  C    0.301108   5.285128   0.325001  -0.037831  -0.006045   0.006239
     9  C   -0.058666   0.325001   5.116147   0.364149  -0.046381  -0.000251
    10  C   -0.082679  -0.037831   0.364149   5.075607   0.364149   0.004995
    11  C    0.002039  -0.006045  -0.046381   0.364149   5.116147  -0.027684
    12  H   -0.000316   0.006239  -0.000251   0.004995  -0.027684   0.574046
    13  H    0.005036  -0.000367   0.000007  -0.002758  -0.005063  -0.004060
    14  H   -0.007511   0.000622  -0.000141   0.005731   0.005758   0.000077
    15  H    0.367002  -0.032761   0.005758   0.005731  -0.000141  -0.000076
    16  H    0.363088  -0.027782  -0.005063  -0.002758   0.000007   0.000021
    17  H   -0.027273   0.346790  -0.027684   0.004995  -0.000251  -0.000134
    18  H    0.005777  -0.033960   0.370432  -0.034971  -0.007404  -0.000088
    19  H   -0.004323  -0.030597   0.363064  -0.028133   0.004832   0.000020
    20  H    0.003905   0.003856  -0.029853   0.368029  -0.029853  -0.000145
    21  H   -0.000119   0.000502  -0.007404  -0.034971   0.370432  -0.000152
    22  H   -0.000032  -0.000290   0.004832  -0.028133   0.363064  -0.003854
              13         14         15         16         17         18
     1  O   -0.000076   0.000342   0.000342  -0.000076   0.003252   0.000412
     2  C    0.003088  -0.001670  -0.001670   0.003088  -0.028822  -0.001537
     3  C   -0.027782  -0.032761   0.000622  -0.000367   0.006239   0.000502
     4  C    0.363088   0.367002  -0.007511   0.005036  -0.000316  -0.000119
     5  C   -0.030196  -0.034606  -0.034606  -0.030196   0.004777   0.005233
     6  Br  -0.001073   0.002195   0.002195  -0.001073  -0.000133  -0.000095
     7  C    0.005036  -0.007511   0.367002   0.363088  -0.027273   0.005777
     8  C   -0.000367   0.000622  -0.032761  -0.027782   0.346790  -0.033960
     9  C    0.000007  -0.000141   0.005758  -0.005063  -0.027684   0.370432
    10  C   -0.002758   0.005731   0.005731  -0.002758   0.004995  -0.034971
    11  C   -0.005063   0.005758  -0.000141   0.000007  -0.000251  -0.007404
    12  H   -0.004060   0.000077  -0.000076   0.000021  -0.000134  -0.000088
    13  H    0.559795  -0.031593   0.000214  -0.000194   0.000021   0.000006
    14  H   -0.031593   0.561373   0.004944   0.000214  -0.000076   0.000008
    15  H    0.000214   0.004944   0.561372  -0.031593   0.000077  -0.000155
    16  H   -0.000194   0.000214  -0.031593   0.559796  -0.004060  -0.000037
    17  H    0.000021  -0.000076   0.000077  -0.004060   0.574046  -0.000152
    18  H    0.000006   0.000008  -0.000155  -0.000037  -0.000152   0.572567
    19  H   -0.000004   0.000007  -0.000019   0.005735  -0.003854  -0.034068
    20  H   -0.000107  -0.000093  -0.000093  -0.000107  -0.000145   0.000731
    21  H   -0.000037  -0.000155   0.000008   0.000006  -0.000088   0.004596
    22  H    0.005735  -0.000019   0.000007  -0.000004   0.000020   0.000228
              19         20         21         22
     1  O   -0.000079   0.000001   0.000412  -0.000079
     2  C    0.003185   0.000644  -0.001537   0.003185
     3  C   -0.000290   0.003856  -0.033960  -0.030597
     4  C   -0.000032   0.003905   0.005777  -0.004323
     5  C   -0.002579  -0.035678   0.005233  -0.002579
     6  Br   0.000227   0.002011  -0.000095   0.000227
     7  C   -0.004323   0.003905  -0.000119  -0.000032
     8  C   -0.030597   0.003856   0.000502  -0.000290
     9  C    0.363064  -0.029853  -0.007404   0.004832
    10  C   -0.028133   0.368029  -0.034971  -0.028133
    11  C    0.004832  -0.029853   0.370432   0.363064
    12  H    0.000020  -0.000145  -0.000152  -0.003854
    13  H   -0.000004  -0.000107  -0.000037   0.005735
    14  H    0.000007  -0.000093  -0.000155  -0.000019
    15  H   -0.000019  -0.000093   0.000008   0.000007
    16  H    0.005735  -0.000107   0.000006  -0.000004
    17  H   -0.003854  -0.000145  -0.000088   0.000020
    18  H   -0.034068   0.000731   0.004596   0.000228
    19  H    0.578857  -0.004735   0.000228  -0.000197
    20  H   -0.004735   0.560533   0.000731  -0.004735
    21  H    0.000228   0.000731   0.572567  -0.034068
    22  H   -0.000197  -0.004735  -0.034068   0.578856
 Mulliken charges:
               1
     1  O   -0.452305
     2  C    0.469676
     3  C   -0.197270
     4  C   -0.272201
     5  C    0.026137
     6  Br  -0.159328
     7  C   -0.272201
     8  C   -0.197269
     9  C   -0.276093
    10  C   -0.118985
    11  C   -0.276093
    12  H    0.152773
    13  H    0.166318
    14  H    0.160352
    15  H    0.160352
    16  H    0.166318
    17  H    0.152773
    18  H    0.152095
    19  H    0.152756
    20  H    0.157343
    21  H    0.152094
    22  H    0.152756
 Sum of Mulliken charges =  -0.00000
 Mulliken charges with hydrogens summed into heavy atoms:
               1
     1  O   -0.452305
     2  C    0.469676
     3  C   -0.044496
     4  C    0.054469
     5  C    0.026137
     6  Br  -0.159328
     7  C    0.054469
     8  C   -0.044496
     9  C    0.028757
    10  C    0.038358
    11  C    0.028757
 APT charges:
               1
     1  O   -0.650715
     2  C    0.720474
     3  C   -0.058412
     4  C    0.028397
     5  C    0.394134
     6  Br  -0.339375
     7  C    0.028397
     8  C   -0.058412
     9  C    0.086418
    10  C    0.021062
    11  C    0.086418
    12  H   -0.035529
    13  H   -0.008902
    14  H   -0.015682
    15  H   -0.015682
    16  H   -0.008902
    17  H   -0.035529
    18  H   -0.026635
    19  H   -0.033268
    20  H   -0.018352
    21  H   -0.026635
    22  H   -0.033268
 Sum of APT charges =   0.00000
 APT charges with hydrogens summed into heavy atoms:
               1
     1  O   -0.650715
     2  C    0.720474
     3  C   -0.093941
     4  C    0.003813
     5  C    0.394134
     6  Br  -0.339375
     7  C    0.003813
     8  C   -0.093941
     9  C    0.026514
    10  C    0.002710
    11  C    0.026514
 Electronic spatial extent (au):  <R**2>=           2187.7172
 Charge=             -0.0000 electrons
 Dipole moment (field-independent basis, Debye):
    X=              0.5075    Y=              0.0000    Z=              1.4015  Tot=              1.4905
 Quadrupole moment (field-independent basis, Debye-Ang):
   XX=            -94.1319   YY=            -73.2815   ZZ=            -75.8993
   XY=             -0.0000   XZ=             -4.9877   YZ=             -0.0000
 Traceless Quadrupole moment (field-independent basis, Debye-Ang):
   XX=            -13.0276   YY=              7.8227   ZZ=              5.2050
   XY=             -0.0000   XZ=             -4.9877   YZ=             -0.0000
 Octapole moment (field-independent basis, Debye-Ang**2):
  XXX=            116.2452  YYY=              0.0000  ZZZ=             -6.3406  XYY=             16.7482
  XXY=              0.0000  XXZ=             19.4297  XZZ=             22.5409  YZZ=             -0.0000
  YYZ=             -2.5197  XYZ=              0.0000
 Hexadecapole moment (field-independent basis, Debye-Ang**3):
 XXXX=          -1773.0971 YYYY=           -492.3378 ZZZZ=           -427.7983 XXXY=             -0.0001
 XXXZ=            -75.5564 YYYX=              0.0000 YYYZ=              0.0000 ZZZX=             -2.9625
 ZZZY=             -0.0000 XXYY=           -344.1898 XXZZ=           -352.5588 YYZZ=           -157.6072
 XXYZ=             -0.0000 YYXZ=              2.6783 ZZXY=              0.0000
 N-N= 9.296526358171D+02 E-N=-8.978974388628D+03  KE= 2.976793980079D+03
  Exact polarizability: 123.617  -0.000  93.695   1.629  -0.000  88.809
 Approx polarizability: 186.890  -0.000 138.966   7.401  -0.000 137.929
 Calling FoFJK, ICntrl=    100127 FMM=F ISym2X=0 I1Cent= 0 IOpClX= 0 NMat=1 NMatS=1 NMatT=0.
 Full mass-weighted force constant matrix:
 Low frequencies ---   -0.0102    0.0054    0.0105   10.2043   11.9497   15.4168
 Low frequencies ---   96.4935  156.0328  198.7801
 Diagonal vibrational polarizability:
        8.7120452       5.6481178      13.4352809
 Harmonic frequencies (cm**-1), IR intensities (KM/Mole), Raman scattering
 activities (A**4/AMU), depolarization ratios for plane and unpolarized
 incident light, reduced masses (AMU), force constants (mDyne/A),
 and normal coordinates:
                      1                      2                      3
                      A                      A                      A
 Frequencies --     96.4885               156.0291               198.7795
 Red. masses --     10.5688                 4.1286                 4.2566
 Frc consts  --      0.0580                 0.0592                 0.0991
 IR Inten    --      4.7487                 1.7934                 0.1133
  Atom  AN      X      Y      Z        X      Y      Z        X      Y      Z
     1   8    -0.30   0.00   0.57     0.00   0.14  -0.00     0.06  -0.00  -0.07
     2   6    -0.05  -0.00   0.00     0.00   0.04   0.00    -0.00  -0.00   0.07
     3   6     0.04  -0.00  -0.19     0.08  -0.02   0.03    -0.00   0.01   0.06
     4   6     0.05  -0.01  -0.15     0.02  -0.18  -0.05    -0.09  -0.00  -0.14
     5   6     0.03   0.00  -0.11    -0.00  -0.17  -0.00    -0.02   0.00  -0.17
     6  35     0.04   0.00   0.10    -0.00   0.10   0.00    -0.07  -0.00   0.08
     7   6     0.05   0.01  -0.15    -0.02  -0.18   0.05    -0.09   0.00  -0.14
     8   6     0.04   0.00  -0.19    -0.08  -0.02  -0.03    -0.00  -0.01   0.06
     9   6    -0.01  -0.01  -0.17    -0.16  -0.02  -0.01     0.19  -0.01  -0.00
    10   6    -0.03  -0.00  -0.14     0.00  -0.13  -0.00     0.15   0.00  -0.12
    11   6    -0.01   0.01  -0.17     0.16  -0.02   0.01     0.19   0.01  -0.00
    12   1     0.04   0.00  -0.20     0.14   0.02   0.05    -0.04   0.00   0.12
    13   1     0.04  -0.00  -0.15     0.11  -0.21  -0.18    -0.05   0.00  -0.24
    14   1     0.09  -0.03  -0.15    -0.07  -0.28  -0.05    -0.25  -0.03  -0.13
    15   1     0.09   0.03  -0.15     0.07  -0.28   0.05    -0.25   0.03  -0.13
    16   1     0.04   0.00  -0.15    -0.11  -0.21   0.18    -0.05  -0.00  -0.24
    17   1     0.04  -0.00  -0.20    -0.14   0.02  -0.05    -0.04  -0.00   0.12
    18   1    -0.03  -0.04  -0.20    -0.20   0.12  -0.07     0.29  -0.05   0.12
    19   1     0.01  -0.00  -0.17    -0.30  -0.09   0.07     0.26   0.01  -0.09
    20   1    -0.05  -0.00  -0.11     0.00  -0.24  -0.00     0.26   0.00  -0.22
    21   1    -0.03   0.04  -0.20     0.20   0.12   0.07     0.29   0.05   0.12
    22   1     0.01   0.00  -0.17     0.30  -0.09  -0.07     0.26  -0.01  -0.09
                      4                      5                      6
                      A                      A                      A
 Frequencies --    262.3013               280.5280               362.2226
 Red. masses --      9.7851                 2.8114                 2.4808
 Frc consts  --      0.3967                 0.1304                 0.1918
 IR Inten    --      3.5868                 0.4564                 0.5177
  Atom  AN      X      Y      Z        X      Y      Z        X      Y      Z
     1   8    -0.18  -0.00  -0.15    -0.00   0.10  -0.00     0.00   0.16   0.00
     2   6    -0.26  -0.00   0.04    -0.00   0.03   0.00     0.00   0.06   0.00
     3   6    -0.21  -0.04   0.08     0.08  -0.01  -0.13    -0.04   0.01   0.03
     4   6    -0.22  -0.03  -0.06     0.14  -0.02   0.02    -0.12  -0.06  -0.10
     5   6    -0.06   0.00  -0.08    -0.00  -0.07  -0.00     0.00   0.03   0.00
     6  35     0.25  -0.00   0.03     0.00   0.03   0.00    -0.00  -0.01  -0.00
     7   6    -0.22   0.03  -0.06    -0.14  -0.02  -0.02     0.12  -0.06   0.10
     8   6    -0.21   0.04   0.08    -0.08  -0.01   0.13     0.04   0.01  -0.03
     9   6    -0.04   0.03   0.03     0.12  -0.08   0.08     0.12  -0.05  -0.02
    10   6    -0.00   0.00  -0.04     0.00  -0.02  -0.00    -0.00   0.03   0.00
    11   6    -0.04  -0.03   0.03    -0.12  -0.08  -0.08    -0.12  -0.05   0.02
    12   1    -0.17   0.00   0.13     0.13   0.01  -0.17    -0.05   0.01   0.04
    13   1    -0.27   0.03  -0.15     0.15  -0.07   0.18    -0.09  -0.01  -0.34
    14   1    -0.34  -0.06  -0.05     0.28   0.07   0.01    -0.29  -0.25  -0.08
    15   1    -0.34   0.06  -0.05    -0.28   0.07  -0.01     0.29  -0.25   0.08
    16   1    -0.27  -0.03  -0.15    -0.15  -0.07  -0.18     0.09  -0.01   0.34
    17   1    -0.17  -0.00   0.13    -0.13   0.01   0.17     0.05   0.01  -0.04
    18   1     0.05   0.05   0.13     0.23  -0.23   0.23     0.17  -0.20   0.06
    19   1    -0.05   0.00  -0.05     0.25  -0.05  -0.10     0.23  -0.01  -0.16
    20   1     0.03  -0.00  -0.08     0.00   0.11  -0.00    -0.00   0.09   0.00
    21   1     0.05  -0.05   0.13    -0.23  -0.23  -0.23    -0.17  -0.20  -0.06
    22   1    -0.05  -0.00  -0.05    -0.25  -0.05   0.10    -0.23  -0.01   0.16
                      7                      8                      9
                      A                      A                      A
 Frequencies --    452.5382               460.5235               475.6177
 Red. masses --      4.5311                 2.1887                 3.9124
 Frc consts  --      0.5467                 0.2735                 0.5214
 IR Inten    --      8.0491                 0.6813                11.7162
  Atom  AN      X      Y      Z        X      Y      Z        X      Y      Z
     1   8     0.23  -0.00   0.10    -0.06   0.00  -0.01     0.00   0.28   0.00
     2   6     0.21   0.00   0.10    -0.03  -0.00  -0.07     0.00  -0.19   0.00
     3   6     0.02   0.10   0.05    -0.01  -0.02   0.01    -0.04  -0.22  -0.00
     4   6    -0.06   0.11  -0.08     0.03   0.09   0.05    -0.03   0.03   0.05
     5   6    -0.11  -0.00  -0.17     0.02  -0.00  -0.10    -0.00   0.05  -0.00
     6  35     0.03  -0.00   0.00    -0.01  -0.00   0.01     0.00  -0.00  -0.00
     7   6    -0.06  -0.11  -0.08     0.03  -0.09   0.05     0.03   0.03  -0.05
     8   6     0.02  -0.10   0.05    -0.01   0.02   0.01     0.04  -0.22   0.00
     9   6    -0.14  -0.01   0.04    -0.00   0.12   0.02    -0.02   0.04   0.04
    10   6    -0.12  -0.00  -0.09     0.14   0.00  -0.10    -0.00   0.05  -0.00
    11   6    -0.14   0.01   0.04    -0.00  -0.12   0.02     0.02   0.04  -0.04
    12   1    -0.13  -0.02   0.00    -0.01   0.01   0.10    -0.19  -0.35  -0.08
    13   1     0.06   0.03  -0.08     0.01   0.03   0.31    -0.18   0.08   0.19
    14   1    -0.23   0.18  -0.08     0.11   0.33   0.03     0.07   0.15   0.04
    15   1    -0.23  -0.18  -0.08     0.11  -0.33   0.03    -0.07   0.15  -0.04
    16   1     0.06  -0.03  -0.08     0.01  -0.03   0.31     0.18   0.08  -0.19
    17   1    -0.13   0.02   0.00    -0.01  -0.01   0.10     0.19  -0.35   0.08
    18   1    -0.24   0.16  -0.10     0.01   0.36  -0.01    -0.09   0.16  -0.05
    19   1    -0.22   0.01   0.28    -0.20   0.04   0.13    -0.04   0.08   0.26
    20   1    -0.05  -0.00  -0.16     0.19   0.00  -0.15    -0.00   0.04  -0.00
    21   1    -0.24  -0.16  -0.10     0.01  -0.36  -0.01     0.09   0.16   0.05
    22   1    -0.22  -0.01   0.28    -0.20  -0.04   0.13     0.04   0.08  -0.26
                     10                     11                     12
                      A                      A                      A
 Frequencies --    513.0794               513.2560               649.8691
 Red. masses --      1.9853                 4.1243                 3.7563
 Frc consts  --      0.3079                 0.6401                 0.9347
 IR Inten    --      2.2315                 0.0421                 2.9543
  Atom  AN      X      Y      Z        X      Y      Z        X      Y      Z
     1   8     0.01   0.00   0.01    -0.00   0.01  -0.00    -0.00  -0.03  -0.00
     2   6     0.02  -0.00  -0.01    -0.00  -0.01   0.00    -0.00  -0.15  -0.00
     3   6     0.04  -0.06   0.01     0.04  -0.01  -0.10     0.17  -0.09   0.07
     4   6    -0.01  -0.11  -0.07     0.01   0.17  -0.16     0.14   0.04  -0.09
     5   6     0.07   0.00   0.03    -0.00   0.19  -0.00    -0.00   0.11  -0.00
     6  35    -0.01  -0.00   0.00     0.00  -0.00  -0.00     0.00   0.00  -0.00
     7   6    -0.01   0.11  -0.07    -0.01   0.17   0.16    -0.14   0.04   0.09
     8   6     0.04   0.06   0.01    -0.04  -0.01   0.10    -0.17  -0.09  -0.07
     9   6    -0.05   0.11   0.04    -0.09  -0.16   0.10    -0.01   0.06  -0.17
    10   6     0.08  -0.00   0.05    -0.00  -0.17  -0.00    -0.00   0.10  -0.00
    11   6    -0.05  -0.11   0.04     0.09  -0.16  -0.10     0.01   0.06   0.17
    12   1     0.08  -0.03   0.03    -0.05  -0.01   0.07     0.08  -0.18  -0.00
    13   1    -0.02  -0.03  -0.32    -0.10   0.28  -0.31     0.15   0.09  -0.29
    14   1    -0.13  -0.32  -0.05     0.01  -0.02  -0.14    -0.02  -0.14  -0.07
    15   1    -0.13   0.32  -0.05    -0.01  -0.02   0.14     0.02  -0.14   0.07
    16   1    -0.02   0.03  -0.32     0.10   0.28   0.31    -0.15   0.09   0.29
    17   1     0.08   0.03   0.03     0.05  -0.01  -0.07    -0.08  -0.18   0.00
    18   1    -0.13   0.31  -0.08    -0.07   0.00   0.11     0.10  -0.15  -0.01
    19   1    -0.25   0.02   0.18    -0.24  -0.24   0.11     0.17   0.13  -0.33
    20   1     0.06  -0.00   0.06    -0.00  -0.13  -0.00    -0.00  -0.15  -0.00
    21   1    -0.13  -0.31  -0.08     0.07   0.00  -0.11    -0.10  -0.15   0.01
    22   1    -0.25  -0.02   0.18     0.24  -0.24  -0.11    -0.17   0.13   0.33
                     13                     14                     15
                      A                      A                      A
 Frequencies --    681.3771               726.1624               808.8197
 Red. masses --      3.7786                 5.7120                 3.7333
 Frc consts  --      1.0336                 1.7746                 1.4390
 IR Inten    --      3.8697                 2.4902                 2.8792
  Atom  AN      X      Y      Z        X      Y      Z        X      Y      Z
     1   8     0.17  -0.00   0.08     0.03   0.00  -0.09    -0.02  -0.00  -0.02
     2   6     0.15  -0.00   0.07    -0.21   0.00   0.47    -0.04   0.00   0.06
     3   6    -0.10  -0.18  -0.04    -0.00  -0.00   0.04     0.04  -0.18   0.02
     4   6    -0.10  -0.05   0.08     0.12  -0.12   0.01     0.05   0.06  -0.12
     5   6     0.03   0.00   0.06     0.12  -0.00  -0.07     0.14   0.00  -0.20
     6  35     0.00   0.00   0.00    -0.01   0.00  -0.00    -0.01   0.00   0.00
     7   6    -0.10   0.05   0.08     0.12   0.12   0.01     0.05  -0.06  -0.12
     8   6    -0.10   0.18  -0.04    -0.00   0.00   0.04     0.04   0.18   0.02
     9   6    -0.00   0.06  -0.13    -0.06  -0.06  -0.08    -0.03   0.00   0.06
    10   6     0.06   0.00  -0.04    -0.03   0.00  -0.21    -0.09   0.00   0.24
    11   6    -0.00  -0.06  -0.13    -0.06   0.06  -0.08    -0.03  -0.00   0.06
    12   1    -0.19  -0.26  -0.07     0.12   0.01  -0.19     0.01  -0.18   0.07
    13   1    -0.29   0.03   0.21     0.02  -0.11   0.21    -0.12   0.10   0.12
    14   1     0.04   0.03   0.07     0.24   0.04   0.00     0.03   0.35  -0.15
    15   1     0.04  -0.03   0.07     0.24  -0.04   0.00     0.03  -0.35  -0.15
    16   1    -0.29  -0.03   0.21     0.02   0.11   0.21    -0.12  -0.10   0.12
    17   1    -0.19   0.26  -0.07     0.12  -0.01  -0.19     0.01   0.18   0.07
    18   1     0.10  -0.00  -0.01    -0.10   0.15  -0.16    -0.11  -0.27   0.02
    19   1    -0.02  -0.01  -0.35    -0.14  -0.05   0.16     0.02  -0.02  -0.15
    20   1    -0.03  -0.00   0.05    -0.08  -0.00  -0.17    -0.10  -0.00   0.26
    21   1     0.10   0.00  -0.01    -0.10  -0.15  -0.16    -0.11   0.27   0.02
    22   1    -0.02   0.01  -0.35    -0.14   0.05   0.16     0.02   0.02  -0.15
                     16                     17                     18
                      A                      A                      A
 Frequencies --    846.4846               852.1078               882.0289
 Red. masses --      2.7898                 3.0209                 4.0365
 Frc consts  --      1.1778                 1.2923                 1.8502
 IR Inten    --      6.7447                 0.3877                36.2139
  Atom  AN      X      Y      Z        X      Y      Z        X      Y      Z
     1   8     0.00   0.00  -0.02     0.00  -0.00  -0.01    -0.03  -0.00   0.03
     2   6    -0.04   0.00   0.08    -0.02   0.00   0.05     0.06   0.00  -0.16
     3   6    -0.01   0.07   0.04    -0.03   0.05  -0.07    -0.03  -0.01   0.09
     4   6     0.01   0.14  -0.01    -0.05   0.09  -0.02     0.01  -0.01   0.10
     5   6     0.17   0.00   0.11     0.09   0.00   0.07     0.35   0.00  -0.10
     6  35    -0.01   0.00  -0.00    -0.00   0.00   0.00    -0.01   0.00   0.00
     7   6     0.01  -0.14  -0.01    -0.05  -0.09  -0.02     0.01   0.01   0.10
     8   6    -0.01  -0.07   0.04    -0.03  -0.05  -0.07    -0.03   0.01   0.09
     9   6     0.02   0.11  -0.12    -0.01  -0.15  -0.02    -0.09  -0.10   0.04
    10   6    -0.06  -0.00   0.02     0.24   0.00   0.13    -0.01  -0.00  -0.18
    11   6     0.02  -0.11  -0.12    -0.01   0.15  -0.02    -0.09   0.10   0.04
    12   1    -0.11   0.09   0.29    -0.12  -0.02  -0.14     0.06  -0.02  -0.14
    13   1    -0.02   0.23  -0.25    -0.13   0.16  -0.06    -0.03   0.09  -0.21
    14   1    -0.10  -0.06   0.01     0.00   0.03  -0.02    -0.40  -0.07   0.10
    15   1    -0.10   0.06   0.01     0.00  -0.03  -0.02    -0.40   0.07   0.10
    16   1    -0.02  -0.23  -0.25    -0.13  -0.16  -0.06    -0.03  -0.09  -0.21
    17   1    -0.11  -0.09   0.29    -0.12   0.02  -0.14     0.06   0.02  -0.14
    18   1     0.02   0.06  -0.12    -0.12   0.08  -0.18     0.07  -0.12   0.23
    19   1     0.11   0.18  -0.04    -0.34  -0.32   0.10    -0.02  -0.11  -0.13
    20   1    -0.39   0.00   0.32     0.25  -0.00   0.13    -0.11   0.00  -0.09
    21   1     0.02  -0.06  -0.12    -0.12  -0.08  -0.18     0.07   0.12   0.23
    22   1     0.11  -0.18  -0.04    -0.34   0.32   0.10    -0.02   0.11  -0.13
                     19                     20                     21
                      A                      A                      A
 Frequencies --    908.0576               916.8742               928.6475
 Red. masses --      1.8739                 2.2564                 2.2618
 Frc consts  --      0.9104                 1.1176                 1.1492
 IR Inten    --      0.0322                 0.2020                 5.2490
  Atom  AN      X      Y      Z        X      Y      Z        X      Y      Z
     1   8    -0.00   0.01   0.00    -0.00  -0.02  -0.00    -0.02  -0.00  -0.01
     2   6     0.00   0.00  -0.00    -0.00  -0.01  -0.00    -0.02  -0.00  -0.01
     3   6    -0.04   0.01  -0.11     0.13  -0.02   0.05     0.14   0.01   0.03
     4   6    -0.07  -0.02  -0.08    -0.11   0.02   0.03    -0.12  -0.04   0.08
     5   6     0.00  -0.02  -0.00     0.00  -0.03  -0.00    -0.01   0.00  -0.08
     6  35    -0.00  -0.00   0.00     0.00  -0.00   0.00     0.00  -0.00   0.00
     7   6     0.07  -0.02   0.08     0.11   0.02  -0.03    -0.12   0.04   0.08
     8   6     0.04   0.01   0.11    -0.13  -0.02  -0.05     0.14  -0.01   0.03
     9   6    -0.08   0.03  -0.09    -0.09   0.01   0.12     0.02  -0.00  -0.09
    10   6    -0.00  -0.02  -0.00    -0.00   0.05   0.00    -0.00  -0.00   0.06
    11   6     0.08   0.03   0.09     0.09   0.01  -0.12     0.02   0.00  -0.09
    12   1    -0.07  -0.03  -0.17     0.17   0.05   0.19     0.36   0.17   0.04
    13   1    -0.14  -0.07   0.27    -0.10  -0.01   0.12    -0.09  -0.08   0.15
    14   1     0.22   0.24  -0.10    -0.23   0.18   0.02    -0.31   0.16   0.07
    15   1    -0.22   0.24   0.10     0.23   0.18  -0.02    -0.31  -0.16   0.07
    16   1     0.14  -0.07  -0.27     0.10  -0.01  -0.12    -0.09   0.08   0.15
    17   1     0.07  -0.03   0.17    -0.17   0.05  -0.19     0.36  -0.17   0.04
    18   1    -0.03  -0.25   0.01     0.10  -0.23   0.37    -0.15  -0.04  -0.30
    19   1     0.10   0.08  -0.30     0.19   0.11  -0.13    -0.03  -0.01   0.01
    20   1    -0.00  -0.30   0.00    -0.00   0.07   0.00    -0.04  -0.00   0.10
    21   1     0.03  -0.25  -0.01    -0.10  -0.23  -0.37    -0.15   0.04  -0.30
    22   1    -0.10   0.08   0.30    -0.19   0.11   0.13    -0.03   0.01   0.01
                     22                     23                     24
                      A                      A                      A
 Frequencies --    933.3883               984.0837               994.5166
 Red. masses --      2.0324                 1.9056                 2.0720
 Frc consts  --      1.0433                 1.0873                 1.2075
 IR Inten    --      0.0165                10.8953                28.7909
  Atom  AN      X      Y      Z        X      Y      Z        X      Y      Z
     1   8    -0.00   0.01  -0.00    -0.01   0.00   0.00    -0.00  -0.03  -0.00
     2   6    -0.00   0.01  -0.00     0.00  -0.00  -0.03    -0.00   0.15  -0.00
     3   6    -0.08   0.00   0.09    -0.00  -0.03   0.11     0.05  -0.08   0.00
     4   6     0.08   0.00  -0.11     0.08   0.00  -0.00    -0.01  -0.07  -0.04
     5   6     0.00  -0.06  -0.00    -0.11  -0.00  -0.01    -0.00   0.12   0.00
     6  35     0.00   0.00   0.00     0.00   0.00   0.00     0.00  -0.00  -0.00
     7   6    -0.08   0.00   0.11     0.08  -0.00  -0.00     0.01  -0.07   0.04
     8   6     0.08   0.00  -0.09    -0.00   0.03   0.11    -0.05  -0.08  -0.00
     9   6    -0.04  -0.04   0.05    -0.06  -0.03  -0.09     0.02  -0.07  -0.05
    10   6     0.00   0.11   0.00     0.08  -0.00   0.01     0.00   0.12  -0.00
    11   6     0.04  -0.04  -0.05    -0.06   0.03  -0.09    -0.02  -0.07   0.05
    12   1    -0.25  -0.01   0.41    -0.08   0.00   0.37     0.36   0.15   0.04
    13   1     0.17  -0.11   0.11     0.27  -0.09  -0.09    -0.29   0.03   0.21
    14   1     0.22   0.14  -0.12    -0.03  -0.09   0.01     0.12   0.16  -0.06
    15   1    -0.22   0.14   0.12    -0.03   0.09   0.01    -0.12   0.16   0.06
    16   1    -0.17  -0.11  -0.11     0.27   0.09  -0.09     0.29   0.03  -0.21
    17   1     0.25  -0.01  -0.41    -0.08  -0.00   0.37    -0.36   0.15  -0.04
    18   1    -0.10  -0.19  -0.00    -0.07  -0.13  -0.09    -0.07   0.11  -0.17
    19   1     0.11   0.05   0.05    -0.18  -0.17  -0.32    -0.05  -0.04   0.22
    20   1    -0.00   0.24   0.00     0.20  -0.00  -0.10     0.00   0.22  -0.00
    21   1     0.10  -0.19   0.00    -0.07   0.13  -0.09     0.07   0.11   0.17
    22   1    -0.11   0.05  -0.05    -0.18   0.17  -0.32     0.05  -0.04  -0.22
                     25                     26                     27
                      A                      A                      A
 Frequencies --   1007.1502              1027.5949              1054.3488
 Red. masses --      1.8294                 3.2359                 1.4160
 Frc consts  --      1.0933                 2.0132                 0.9274
 IR Inten    --      0.0558                 4.4993                 6.9990
  Atom  AN      X      Y      Z        X      Y      Z        X      Y      Z
     1   8     0.00  -0.00   0.00     0.04  -0.00   0.03    -0.00   0.01  -0.00
     2   6     0.00  -0.02  -0.00     0.05   0.00  -0.05    -0.00  -0.08   0.00
     3   6     0.05   0.00   0.04    -0.14   0.15   0.01     0.03   0.04  -0.03
     4   6    -0.03   0.02  -0.10     0.01  -0.14  -0.02    -0.03   0.03  -0.00
     5   6     0.00  -0.08  -0.00     0.10   0.00  -0.16     0.00  -0.06   0.00
     6  35    -0.00   0.00   0.00    -0.00  -0.00   0.00    -0.00   0.00  -0.00
     7   6     0.03   0.02   0.10     0.01   0.14  -0.02     0.03   0.03   0.00
     8   6    -0.05   0.00  -0.04    -0.14  -0.15   0.01    -0.03   0.04   0.03
     9   6     0.10   0.04  -0.02     0.01   0.03  -0.04    -0.00  -0.05  -0.02
    10   6     0.00  -0.10   0.00     0.04   0.00   0.16    -0.00   0.10  -0.00
    11   6    -0.10   0.04   0.02     0.01  -0.03  -0.04     0.00  -0.05   0.02
    12   1    -0.02  -0.03   0.10    -0.16   0.17   0.07    -0.01  -0.05  -0.20
    13   1     0.09  -0.13   0.19     0.21  -0.32   0.22     0.20  -0.11   0.01
    14   1    -0.07   0.36  -0.14     0.12   0.11  -0.04    -0.27   0.18  -0.02
    15   1     0.07   0.36   0.14     0.12  -0.11  -0.04     0.27   0.18   0.02
    16   1    -0.09  -0.13  -0.19     0.21   0.32   0.22    -0.20  -0.11  -0.01
    17   1     0.02  -0.03  -0.10    -0.16  -0.17   0.07     0.01  -0.05   0.20
    18   1     0.22   0.38   0.08     0.06   0.05   0.03    -0.17  -0.07  -0.22
    19   1    -0.13  -0.07   0.07    -0.02   0.02  -0.00    -0.19  -0.18  -0.07
    20   1    -0.00  -0.16   0.00    -0.22   0.00   0.42     0.00   0.49  -0.00
    21   1    -0.22   0.38  -0.08     0.06  -0.05   0.03     0.17  -0.07   0.22
    22   1     0.13  -0.07  -0.07    -0.02  -0.02  -0.00     0.19  -0.18   0.07
                     28                     29                     30
                      A                      A                      A
 Frequencies --   1072.2033              1099.3383              1127.4711
 Red. masses --      1.8835                 1.3359                 1.5451
 Frc consts  --      1.2758                 0.9512                 1.1572
 IR Inten    --      3.4770                 4.6881                 1.9262
  Atom  AN      X      Y      Z        X      Y      Z        X      Y      Z
     1   8     0.02  -0.00  -0.01     0.00   0.01  -0.00    -0.03  -0.00  -0.01
     2   6    -0.04   0.00   0.10    -0.00  -0.08   0.00    -0.00   0.00  -0.00
     3   6     0.01   0.04  -0.08    -0.00   0.04   0.04    -0.02  -0.05  -0.00
     4   6     0.02   0.04   0.06    -0.01  -0.06   0.01     0.04   0.02   0.06
     5   6    -0.05  -0.00  -0.06    -0.00   0.10  -0.00    -0.06   0.00  -0.07
     6  35     0.00  -0.00   0.00     0.00  -0.00   0.00     0.00  -0.00   0.00
     7   6     0.02  -0.04   0.06     0.01  -0.06  -0.01     0.04  -0.02   0.06
     8   6     0.01  -0.04  -0.08     0.00   0.04  -0.04    -0.02   0.05  -0.00
     9   6    -0.07   0.08   0.01    -0.01   0.00   0.01     0.08  -0.03  -0.03
    10   6     0.08   0.00   0.07     0.00   0.01   0.00    -0.06   0.00   0.04
    11   6    -0.07  -0.08   0.01     0.01   0.00  -0.01     0.08   0.03  -0.03
    12   1     0.13   0.06  -0.30    -0.05  -0.01  -0.01    -0.22  -0.25  -0.19
    13   1     0.19  -0.00  -0.17    -0.10  -0.03   0.09     0.25  -0.05  -0.13
    14   1    -0.28  -0.06   0.07     0.28  -0.10   0.01    -0.26  -0.08   0.07
    15   1    -0.28   0.06   0.07    -0.28  -0.10  -0.01    -0.26   0.08   0.07
    16   1     0.19   0.00  -0.17     0.10  -0.03  -0.09     0.25   0.05  -0.13
    17   1     0.13  -0.06  -0.30     0.05  -0.01   0.01    -0.22   0.25  -0.19
    18   1     0.11  -0.14   0.25     0.17   0.12   0.20     0.06   0.25  -0.09
    19   1     0.07   0.08  -0.29    -0.28  -0.24  -0.31    -0.07  -0.06   0.19
    20   1     0.16  -0.00   0.00     0.00   0.34   0.00    -0.23  -0.00   0.20
    21   1     0.11   0.14   0.25    -0.17   0.12  -0.20     0.06  -0.25  -0.09
    22   1     0.07  -0.08  -0.29     0.28  -0.24   0.31    -0.07   0.06   0.19
                     31                     32                     33
                      A                      A                      A
 Frequencies --   1167.5449              1189.3568              1197.2956
 Red. masses --      1.2458                 1.6559                 1.9530
 Frc consts  --      1.0006                 1.3801                 1.6495
 IR Inten    --      5.6723                 6.4483                 0.9096
  Atom  AN      X      Y      Z        X      Y      Z        X      Y      Z
     1   8    -0.00  -0.00  -0.00    -0.00   0.02  -0.00    -0.00   0.01  -0.00
     2   6    -0.00   0.00   0.01    -0.00  -0.10   0.00     0.00  -0.06  -0.00
     3   6    -0.03   0.01  -0.03     0.02   0.04  -0.07    -0.05   0.03   0.09
     4   6     0.00  -0.00   0.06    -0.05  -0.03   0.03     0.04  -0.06  -0.03
     5   6     0.05  -0.00  -0.07     0.00   0.13   0.00     0.00   0.18   0.00
     6  35    -0.00   0.00   0.00    -0.00  -0.00  -0.00     0.00  -0.00   0.00
     7   6     0.00   0.00   0.06     0.05  -0.03  -0.03    -0.04  -0.06   0.03
     8   6    -0.03  -0.01  -0.03    -0.02   0.04   0.07     0.05   0.03  -0.09
     9   6     0.02   0.02   0.01    -0.01  -0.04  -0.03     0.01   0.02   0.07
    10   6    -0.02  -0.00   0.03    -0.00   0.06  -0.00     0.00  -0.09  -0.00
    11   6     0.02  -0.02   0.01     0.01  -0.04   0.03    -0.01   0.02  -0.07
    12   1    -0.20  -0.06   0.11    -0.04   0.11   0.31     0.23   0.07  -0.39
    13   1    -0.02   0.05  -0.09     0.37  -0.30   0.07     0.15  -0.16   0.11
    14   1     0.07  -0.18   0.07     0.05  -0.06   0.04    -0.18   0.23  -0.06
    15   1     0.07   0.18   0.07    -0.05  -0.06  -0.04     0.18   0.23   0.06
    16   1    -0.02  -0.05  -0.09    -0.37  -0.30  -0.07    -0.15  -0.16  -0.11
    17   1    -0.20   0.06   0.11     0.04   0.11  -0.31    -0.23   0.07   0.39
    18   1    -0.25  -0.22  -0.28     0.04   0.11   0.01    -0.15  -0.19  -0.08
    19   1     0.13   0.12   0.11     0.08   0.07   0.18     0.08   0.05   0.02
    20   1     0.40   0.00  -0.36     0.00  -0.35  -0.00    -0.00  -0.21   0.00
    21   1    -0.25   0.22  -0.28    -0.04   0.11  -0.01     0.15  -0.19   0.08
    22   1     0.13  -0.12   0.11    -0.08   0.07  -0.18    -0.08   0.05  -0.02
                     34                     35                     36
                      A                      A                      A
 Frequencies --   1234.8309              1241.8016              1251.1083
 Red. masses --      1.3727                 1.5627                 1.6190
 Frc consts  --      1.2332                 1.4198                 1.4931
 IR Inten    --      4.7218                11.2841                10.8308
  Atom  AN      X      Y      Z        X      Y      Z        X      Y      Z
     1   8    -0.03  -0.00  -0.01     0.00  -0.03   0.00     0.01   0.00  -0.01
     2   6    -0.01   0.00   0.00    -0.00   0.17   0.00    -0.02  -0.00   0.05
     3   6     0.05   0.00   0.01    -0.01  -0.04  -0.01     0.04  -0.00  -0.11
     4   6    -0.03  -0.01  -0.04     0.03  -0.03   0.02    -0.04  -0.01   0.02
     5   6     0.04  -0.00   0.11     0.00   0.08  -0.00     0.07  -0.00   0.03
     6  35    -0.00  -0.00  -0.00     0.00  -0.00   0.00     0.00   0.00  -0.00
     7   6    -0.03   0.01  -0.04    -0.03  -0.03  -0.02    -0.04   0.01   0.02
     8   6     0.05  -0.00   0.01     0.01  -0.04   0.01     0.04   0.00  -0.11
     9   6    -0.04   0.01   0.00    -0.04  -0.02  -0.02     0.03  -0.00   0.04
    10   6     0.07  -0.00  -0.04    -0.00   0.02   0.00    -0.10  -0.00  -0.02
    11   6    -0.04  -0.01   0.00     0.04  -0.02   0.02     0.03   0.00   0.04
    12   1    -0.29  -0.25  -0.08    -0.36  -0.33  -0.15    -0.13   0.06   0.42
    13   1     0.27  -0.24   0.13     0.18  -0.13   0.03     0.22  -0.17   0.03
    14   1    -0.18   0.22  -0.06    -0.25   0.09   0.02    -0.12   0.06   0.01
    15   1    -0.18  -0.22  -0.06     0.25   0.09  -0.02    -0.12  -0.06   0.01
    16   1     0.27   0.24   0.13    -0.18  -0.13  -0.03     0.22   0.17   0.03
    17   1    -0.29   0.25  -0.08     0.36  -0.33   0.15    -0.13  -0.06   0.42
    18   1    -0.09  -0.14  -0.04     0.17   0.11   0.22     0.10   0.10   0.11
    19   1     0.19   0.17   0.08    -0.03  -0.02  -0.03    -0.23  -0.22  -0.18
    20   1     0.01   0.00   0.02     0.00   0.02  -0.00     0.07   0.00  -0.18
    21   1    -0.09   0.14  -0.04    -0.17   0.11  -0.22     0.10  -0.10   0.11
    22   1     0.19  -0.17   0.08     0.03  -0.02   0.03    -0.23   0.22  -0.18
                     37                     38                     39
                      A                      A                      A
 Frequencies --   1266.6040              1280.4731              1322.2749
 Red. masses --      1.5060                 1.5628                 1.4081
 Frc consts  --      1.4235                 1.5097                 1.4506
 IR Inten    --      2.6104                 0.1910                 0.1421
  Atom  AN      X      Y      Z        X      Y      Z        X      Y      Z
     1   8     0.01   0.00   0.01     0.00  -0.02   0.00     0.00   0.01   0.00
     2   6     0.01  -0.00  -0.01     0.00   0.06  -0.00     0.00  -0.00  -0.00
     3   6    -0.05   0.01   0.02     0.09   0.01   0.04    -0.06  -0.04   0.02
     4   6     0.06  -0.03  -0.03    -0.08   0.02  -0.01    -0.03   0.06  -0.01
     5   6     0.02   0.00   0.09    -0.00   0.03  -0.00     0.00  -0.03   0.00
     6  35    -0.00   0.00  -0.00    -0.00  -0.00  -0.00    -0.00   0.00  -0.00
     7   6     0.06   0.03  -0.03     0.08   0.02   0.01     0.03   0.06   0.01
     8   6    -0.05  -0.01   0.02    -0.09   0.01  -0.04     0.06  -0.04  -0.02
     9   6     0.02   0.01  -0.04     0.03   0.02   0.02    -0.06  -0.02  -0.05
    10   6    -0.09   0.00   0.08    -0.00  -0.09   0.00    -0.00  -0.05   0.00
    11   6     0.02  -0.01  -0.04    -0.03   0.02  -0.02     0.06  -0.02   0.05
    12   1     0.08   0.06  -0.14    -0.19  -0.24  -0.13     0.30   0.14  -0.20
    13   1    -0.09   0.05   0.04     0.13  -0.12   0.05     0.26  -0.10  -0.05
    14   1    -0.33   0.28  -0.06     0.36  -0.18   0.01     0.12  -0.09  -0.00
    15   1    -0.33  -0.28  -0.06    -0.36  -0.18  -0.01    -0.12  -0.09   0.00
    16   1    -0.09  -0.05   0.04    -0.13  -0.12  -0.05    -0.26  -0.10   0.05
    17   1     0.08  -0.06  -0.14     0.19  -0.24   0.13    -0.30   0.14   0.20
    18   1     0.08   0.13   0.00    -0.17  -0.14  -0.20     0.18   0.14   0.20
    19   1    -0.03   0.00   0.04     0.10   0.10   0.13     0.14   0.13   0.08
    20   1     0.49  -0.00  -0.46     0.00   0.28  -0.00     0.00   0.43  -0.00
    21   1     0.08  -0.13   0.00     0.17  -0.14   0.20    -0.18   0.14  -0.20
    22   1    -0.03  -0.00   0.04    -0.10   0.10  -0.13    -0.14   0.13  -0.08
                     40                     41                     42
                      A                      A                      A
 Frequencies --   1340.8089              1344.3306              1345.2123
 Red. masses --      1.7563                 1.4819                 1.5813
 Frc consts  --      1.8603                 1.5779                 1.6860
 IR Inten    --      1.3940                 0.6920                 4.1422
  Atom  AN      X      Y      Z        X      Y      Z        X      Y      Z
     1   8     0.00  -0.00   0.00     0.02  -0.00   0.01    -0.03   0.00  -0.01
     2   6     0.00   0.04  -0.00     0.00  -0.00  -0.00    -0.00  -0.00  -0.01
     3   6    -0.02  -0.07  -0.08    -0.07  -0.02   0.03     0.07   0.04   0.07
     4   6     0.02  -0.01   0.01    -0.03   0.04  -0.02    -0.07   0.02  -0.01
     5   6     0.00   0.07   0.00     0.03  -0.00   0.05     0.05  -0.00  -0.02
     6  35    -0.00  -0.00  -0.00    -0.00   0.00  -0.00     0.00   0.00   0.00
     7   6    -0.02  -0.01  -0.01    -0.03  -0.04  -0.02    -0.07  -0.02  -0.01
     8   6     0.02  -0.07   0.08    -0.07   0.02   0.03     0.07  -0.04   0.07
     9   6     0.02   0.09  -0.00     0.07   0.04   0.05     0.00   0.02  -0.04
    10   6    -0.00  -0.14  -0.00    -0.02   0.00  -0.05    -0.08   0.00   0.06
    11   6    -0.02   0.09   0.00     0.07  -0.04   0.05     0.00  -0.02  -0.04
    12   1     0.05   0.13   0.41     0.27   0.12  -0.25    -0.11  -0.20  -0.31
    13   1     0.12  -0.09   0.02     0.29  -0.15  -0.01     0.09  -0.07  -0.00
    14   1    -0.17   0.05   0.01     0.04   0.02  -0.02     0.37  -0.14   0.00
    15   1     0.17   0.05  -0.01     0.04  -0.02  -0.02     0.37   0.14   0.00
    16   1    -0.12  -0.09  -0.02     0.29   0.15  -0.01     0.09   0.07  -0.00
    17   1    -0.05   0.13  -0.41     0.27  -0.12  -0.25    -0.11   0.20  -0.31
    18   1    -0.09  -0.14  -0.11    -0.23  -0.15  -0.28     0.14   0.12   0.11
    19   1    -0.06  -0.01  -0.21    -0.14  -0.13  -0.16    -0.13  -0.08  -0.16
    20   1     0.00   0.51  -0.00    -0.09  -0.00   0.01     0.25  -0.00  -0.25
    21   1     0.09  -0.14   0.11    -0.23   0.15  -0.28     0.14  -0.12   0.11
    22   1     0.06  -0.01   0.21    -0.14   0.13  -0.16    -0.13   0.08  -0.16
                     43                     44                     45
                      A                      A                      A
 Frequencies --   1356.5512              1371.6621              1511.2017
 Red. masses --      1.5906                 1.4588                 1.0894
 Frc consts  --      1.7246                 1.6172                 1.4658
 IR Inten    --      2.0978                 0.3512                 0.1496
  Atom  AN      X      Y      Z        X      Y      Z        X      Y      Z
     1   8    -0.00   0.01  -0.00     0.03   0.00   0.01    -0.00   0.00  -0.00
     2   6     0.00  -0.08   0.00    -0.01  -0.00  -0.00    -0.00  -0.00   0.00
     3   6     0.03   0.09  -0.01    -0.04  -0.07  -0.01     0.00   0.00  -0.00
     4   6     0.04  -0.06   0.00    -0.05   0.05  -0.00     0.02   0.03  -0.03
     5   6    -0.00   0.03   0.00     0.04   0.00  -0.00     0.00  -0.00  -0.00
     6  35     0.00   0.00  -0.00    -0.00  -0.00   0.00    -0.00   0.00   0.00
     7   6    -0.04  -0.06  -0.00    -0.05  -0.05  -0.00    -0.02   0.03   0.03
     8   6    -0.03   0.09   0.01    -0.04   0.07  -0.01    -0.00   0.00   0.00
     9   6    -0.04  -0.03  -0.05    -0.04  -0.05  -0.05    -0.01  -0.03   0.03
    10   6     0.00  -0.09  -0.00     0.00  -0.00   0.04    -0.00   0.00  -0.00
    11   6     0.04  -0.03   0.05    -0.04   0.05  -0.05     0.01  -0.03  -0.03
    12   1    -0.18  -0.03   0.05     0.27   0.17   0.10     0.00   0.00  -0.01
    13   1    -0.27   0.13   0.01     0.32  -0.17  -0.02    -0.06  -0.05   0.36
    14   1    -0.13   0.15  -0.02     0.13  -0.10   0.00    -0.18  -0.33   0.02
    15   1     0.13   0.15   0.02     0.13   0.10   0.00     0.18  -0.33  -0.02
    16   1     0.27   0.13  -0.01     0.32   0.17  -0.02     0.06  -0.05  -0.36
    17   1     0.18  -0.03  -0.05     0.27  -0.17   0.10    -0.00   0.00   0.01
    18   1     0.06   0.12   0.03     0.11   0.13   0.11    -0.10   0.29  -0.14
    19   1     0.27   0.24   0.22     0.21   0.18   0.27     0.21   0.04  -0.25
    20   1    -0.00   0.47   0.00     0.17   0.00  -0.11     0.00  -0.01  -0.00
    21   1    -0.06   0.12  -0.03     0.11  -0.13   0.11     0.10   0.29   0.14
    22   1    -0.27   0.24  -0.22     0.21  -0.18   0.27    -0.21   0.04   0.25
                     46                     47                     48
                      A                      A                      A
 Frequencies --   1533.0436              1535.3582              1554.3965
 Red. masses --      1.0911                 1.0952                 1.0911
 Frc consts  --      1.5109                 1.5212                 1.5532
 IR Inten    --      7.9031                 9.7687                 0.0169
  Atom  AN      X      Y      Z        X      Y      Z        X      Y      Z
     1   8    -0.00   0.00   0.00     0.00  -0.00   0.00    -0.00  -0.00  -0.00
     2   6     0.00  -0.00  -0.00    -0.00   0.02  -0.00     0.01   0.00   0.00
     3   6     0.00  -0.00  -0.00     0.00  -0.01  -0.00    -0.00   0.01   0.00
     4   6     0.01   0.03  -0.03    -0.02  -0.02   0.03     0.01   0.03  -0.03
     5   6     0.01  -0.00   0.00     0.00   0.00   0.00     0.01  -0.00  -0.01
     6  35    -0.00   0.00  -0.00    -0.00  -0.00  -0.00    -0.00  -0.00   0.00
     7   6     0.01  -0.03  -0.03     0.02  -0.02  -0.03     0.01  -0.03  -0.03
     8   6     0.00   0.00  -0.00    -0.00  -0.01   0.00    -0.00  -0.01   0.00
     9   6     0.01   0.03  -0.03    -0.01  -0.02   0.04    -0.01  -0.03   0.03
    10   6    -0.01  -0.00  -0.01    -0.00   0.00  -0.00    -0.00   0.00   0.01
    11   6     0.01  -0.03  -0.03     0.01  -0.02  -0.04    -0.01   0.03   0.03
    12   1     0.01  -0.00  -0.02     0.00  -0.01   0.00    -0.00   0.01  -0.00
    13   1    -0.04  -0.06   0.35     0.07   0.03  -0.33    -0.06  -0.04   0.34
    14   1    -0.16  -0.32   0.01     0.17   0.28  -0.02    -0.15  -0.31   0.01
    15   1    -0.16   0.32   0.01    -0.17   0.28   0.02    -0.15   0.31   0.01
    16   1    -0.04   0.06   0.35    -0.07   0.03   0.33    -0.06   0.04   0.34
    17   1     0.01   0.00  -0.02    -0.00  -0.01  -0.00    -0.00  -0.01  -0.00
    18   1     0.10  -0.31   0.13    -0.11   0.31  -0.16    -0.10   0.32  -0.13
    19   1    -0.23  -0.05   0.25     0.22   0.03  -0.30     0.23   0.04  -0.27
    20   1     0.00   0.00  -0.02    -0.00  -0.03  -0.00     0.02  -0.00  -0.01
    21   1     0.10   0.31   0.13     0.11   0.31   0.16    -0.10  -0.32  -0.13
    22   1    -0.23   0.05   0.25    -0.22   0.03   0.30     0.23  -0.04  -0.27
                     49                     50                     51
                      A                      A                      A
 Frequencies --   1824.4245              3061.5442              3063.9907
 Red. masses --     11.5083                 1.0599                 1.0625
 Frc consts  --     22.5691                 5.8530                 5.8770
 IR Inten    --    236.1562                25.7828                28.7776
  Atom  AN      X      Y      Z        X      Y      Z        X      Y      Z
     1   8    -0.47  -0.00  -0.20     0.00  -0.00   0.00    -0.00  -0.00  -0.00
     2   6     0.71   0.00   0.31    -0.00   0.00  -0.00     0.00   0.00   0.00
     3   6    -0.04  -0.00  -0.02    -0.00   0.00  -0.00    -0.00   0.00  -0.00
     4   6    -0.01  -0.00   0.00     0.00   0.00  -0.00     0.00   0.00  -0.00
     5   6    -0.00  -0.00  -0.00    -0.00   0.00  -0.00    -0.00   0.00   0.00
     6  35     0.00  -0.00   0.00    -0.00  -0.00   0.00     0.00  -0.00  -0.00
     7   6    -0.01   0.00   0.00    -0.00   0.00   0.00     0.00  -0.00  -0.00
     8   6    -0.04   0.00  -0.02     0.00   0.00   0.00    -0.00  -0.00  -0.00
     9   6    -0.01   0.00  -0.01    -0.00  -0.04   0.03    -0.00   0.04  -0.03
    10   6     0.00  -0.00   0.00    -0.00   0.00  -0.00     0.00   0.00   0.01
    11   6    -0.01  -0.00  -0.01     0.00  -0.04  -0.03    -0.00  -0.04  -0.03
    12   1     0.18   0.15   0.08     0.02  -0.03   0.01     0.03  -0.04   0.01
    13   1     0.02  -0.02  -0.03    -0.03  -0.05  -0.02    -0.03  -0.06  -0.02
    14   1     0.04   0.02   0.00     0.00   0.00   0.03     0.00   0.01   0.03
    15   1     0.04  -0.02   0.00    -0.00   0.00  -0.03     0.00  -0.01   0.03
    16   1     0.02   0.02  -0.03     0.03  -0.05   0.02    -0.03   0.06  -0.02
    17   1     0.18  -0.15   0.08    -0.02  -0.03  -0.01     0.03   0.04   0.01
    18   1     0.03  -0.02   0.03     0.32  -0.05  -0.26    -0.27   0.04   0.22
    19   1    -0.01   0.03   0.04    -0.29   0.47  -0.12     0.31  -0.50   0.13
    20   1     0.01   0.00  -0.01     0.00  -0.00   0.00    -0.05  -0.00  -0.06
    21   1     0.03   0.02   0.03    -0.32  -0.05   0.26    -0.28  -0.04   0.22
    22   1    -0.01  -0.03   0.04     0.29   0.47   0.12     0.31   0.50   0.13
                     52                     53                     54
                      A                      A                      A
 Frequencies --   3077.3770              3081.8484              3104.4035
 Red. masses --      1.0591                 1.0606                 1.1067
 Frc consts  --      5.9095                 5.9352                 6.2838
 IR Inten    --     14.7409                11.1406                 9.4233
  Atom  AN      X      Y      Z        X      Y      Z        X      Y      Z
     1   8     0.00  -0.00   0.00    -0.00  -0.00  -0.00     0.00   0.00  -0.00
     2   6    -0.00   0.00  -0.00     0.00   0.00   0.00    -0.00   0.00   0.00
     3   6    -0.00   0.00  -0.00    -0.00   0.01  -0.00    -0.00  -0.00  -0.00
     4   6    -0.02  -0.03   0.03    -0.02  -0.04   0.02     0.00   0.00   0.01
     5   6     0.00   0.00   0.00    -0.00   0.00  -0.00     0.00  -0.00   0.00
     6  35    -0.00   0.00  -0.00     0.00   0.00   0.00     0.00   0.00  -0.00
     7   6     0.02  -0.03  -0.03    -0.02   0.04   0.02    -0.00   0.00  -0.01
     8   6     0.00   0.00   0.00    -0.00  -0.01  -0.00     0.00  -0.00   0.00
     9   6    -0.00  -0.00   0.00     0.00   0.00  -0.00     0.05  -0.03  -0.02
    10   6    -0.00   0.00  -0.00     0.00   0.00   0.00     0.00  -0.00   0.00
    11   6     0.00  -0.00  -0.00     0.00  -0.00  -0.00    -0.05  -0.03   0.02
    12   1     0.03  -0.05   0.02     0.04  -0.07   0.02    -0.01   0.01  -0.00
    13   1     0.26   0.42   0.13     0.28   0.46   0.14    -0.01  -0.02  -0.01
    14   1    -0.01  -0.06  -0.47    -0.01  -0.05  -0.42    -0.00  -0.01  -0.08
    15   1     0.01  -0.06   0.47    -0.01   0.05  -0.42     0.00  -0.01   0.08
    16   1    -0.26   0.42  -0.13     0.28  -0.46   0.14     0.01  -0.02   0.01
    17   1    -0.03  -0.05  -0.02     0.04   0.07   0.02     0.01   0.01   0.00
    18   1     0.05  -0.01  -0.04    -0.04   0.01   0.04    -0.43   0.05   0.36
    19   1    -0.02   0.02  -0.01     0.02  -0.04   0.01    -0.20   0.34  -0.10
    20   1     0.00  -0.00   0.00    -0.02  -0.00  -0.02    -0.00   0.00  -0.00
    21   1    -0.05  -0.01   0.04    -0.04  -0.01   0.04     0.43   0.05  -0.36
    22   1     0.02   0.02   0.01     0.02   0.04   0.01     0.20   0.34   0.10
                     55                     56                     57
                      A                      A                      A
 Frequencies --   3112.8401              3122.5086              3123.0144
 Red. masses --      1.1038                 1.1067                 1.0891
 Frc consts  --      6.3014                 6.3576                 6.2582
 IR Inten    --     40.1273                17.9350                18.7803
  Atom  AN      X      Y      Z        X      Y      Z        X      Y      Z
     1   8     0.00  -0.00  -0.00    -0.00  -0.00  -0.00    -0.00   0.00  -0.00
     2   6    -0.00   0.00   0.00     0.00  -0.00   0.00     0.00   0.00   0.00
     3   6     0.00  -0.00   0.00    -0.01   0.01  -0.00     0.03  -0.05   0.01
     4   6    -0.00   0.00   0.00     0.02   0.04   0.05     0.00   0.01   0.02
     5   6     0.00   0.00  -0.00    -0.00   0.00  -0.00    -0.00   0.00  -0.00
     6  35    -0.00  -0.00  -0.00    -0.00  -0.00   0.00    -0.00  -0.00  -0.00
     7   6    -0.00  -0.00   0.00    -0.02   0.04  -0.05    -0.00   0.01  -0.02
     8   6     0.00   0.00   0.00     0.01   0.01   0.00    -0.03  -0.05  -0.01
     9   6    -0.05   0.03   0.03    -0.01   0.00   0.00    -0.00  -0.00   0.00
    10   6     0.00   0.00   0.00    -0.00   0.00  -0.00     0.00   0.00   0.00
    11   6    -0.05  -0.03   0.03     0.01   0.00  -0.00     0.00  -0.00  -0.00
    12   1    -0.01   0.02  -0.01     0.10  -0.14   0.05    -0.37   0.54  -0.17
    13   1     0.00   0.00   0.00    -0.24  -0.39  -0.11    -0.04  -0.07  -0.02
    14   1    -0.00  -0.00  -0.04    -0.00  -0.05  -0.48     0.00  -0.02  -0.17
    15   1    -0.00   0.00  -0.04     0.00  -0.05   0.48    -0.00  -0.02   0.17
    16   1     0.00  -0.00   0.00     0.24  -0.39   0.11     0.04  -0.07   0.02
    17   1    -0.01  -0.02  -0.01    -0.10  -0.14  -0.05     0.37   0.54   0.17
    18   1     0.46  -0.05  -0.39     0.03  -0.00  -0.02     0.04  -0.01  -0.03
    19   1     0.17  -0.29   0.08     0.03  -0.06   0.02    -0.01   0.01  -0.00
    20   1    -0.03  -0.00  -0.04     0.00  -0.00   0.00    -0.00  -0.00  -0.00
    21   1     0.46   0.05  -0.39    -0.03  -0.00   0.02    -0.04  -0.01   0.03
    22   1     0.17   0.29   0.08    -0.03  -0.06  -0.02     0.01   0.01   0.00
                     58                     59                     60
                      A                      A                      A
 Frequencies --   3124.6776              3130.0476              3139.9996
 Red. masses --      1.0882                 1.1068                 1.0888
 Frc consts  --      6.2597                 6.3887                 6.3250
 IR Inten    --     18.0173                25.1748                10.4413
  Atom  AN      X      Y      Z        X      Y      Z        X      Y      Z
     1   8    -0.00   0.00  -0.00     0.00  -0.00   0.00    -0.00   0.00  -0.00
     2   6     0.00   0.00   0.00     0.00   0.00  -0.00     0.00   0.00   0.00
     3   6     0.03  -0.05   0.02    -0.00   0.00  -0.00     0.00  -0.00   0.00
     4   6    -0.00  -0.00   0.00    -0.02  -0.03  -0.05    -0.00  -0.00   0.00
     5   6    -0.00  -0.00  -0.00    -0.00  -0.00  -0.00    -0.00  -0.00   0.00
     6  35     0.00   0.00  -0.00    -0.00   0.00   0.00     0.00   0.00   0.00
     7   6    -0.00   0.00   0.00    -0.02   0.03  -0.05    -0.00   0.00   0.00
     8   6     0.03   0.05   0.02    -0.00  -0.00  -0.00     0.00   0.00   0.00
     9   6     0.00   0.00  -0.00    -0.00   0.00   0.00    -0.00   0.01  -0.00
    10   6     0.00  -0.00   0.00    -0.00  -0.00  -0.00    -0.06   0.00  -0.06
    11   6     0.00  -0.00  -0.00    -0.00  -0.00   0.00    -0.00  -0.01  -0.00
    12   1    -0.38   0.55  -0.18     0.00  -0.00   0.00    -0.02   0.03  -0.01
    13   1     0.03   0.05   0.01     0.21   0.35   0.10     0.00   0.00   0.00
    14   1     0.00  -0.00  -0.04     0.01   0.05   0.56    -0.00  -0.00  -0.02
    15   1     0.00   0.00  -0.04     0.01  -0.05   0.56    -0.00   0.00  -0.02
    16   1     0.03  -0.05   0.01     0.21  -0.35   0.10     0.00  -0.00   0.00
    17   1    -0.38  -0.55  -0.18     0.00   0.00   0.00    -0.02  -0.03  -0.01
    18   1    -0.04   0.01   0.04     0.01  -0.00  -0.01    -0.01   0.00   0.00
    19   1     0.02  -0.03   0.01     0.02  -0.03   0.01     0.03  -0.06   0.02
    20   1    -0.04   0.00  -0.04     0.01   0.00   0.01     0.67  -0.00   0.72
    21   1    -0.04  -0.01   0.04     0.01   0.00  -0.01    -0.01  -0.00   0.00
    22   1     0.02   0.03   0.01     0.02   0.03   0.01     0.03   0.06   0.02

 -------------------
 - Thermochemistry -
 -------------------
 Temperature   298.150 Kelvin.  Pressure   1.00000 Atm.
 Atom     1 has atomic number  8 and mass  15.99491
 Atom     2 has atomic number  6 and mass  12.00000
 Atom     3 has atomic number  6 and mass  12.00000
 Atom     4 has atomic number  6 and mass  12.00000
 Atom     5 has atomic number  6 and mass  12.00000
 Atom     6 has atomic number 35 and mass  78.91834
 Atom     7 has atomic number  6 and mass  12.00000
 Atom     8 has atomic number  6 and mass  12.00000
 Atom     9 has atomic number  6 and mass  12.00000
 Atom    10 has atomic number  6 and mass  12.00000
 Atom    11 has atomic number  6 and mass  12.00000
 Atom    12 has atomic number  1 and mass   1.00783
 Atom    13 has atomic number  1 and mass   1.00783
 Atom    14 has atomic number  1 and mass   1.00783
 Atom    15 has atomic number  1 and mass   1.00783
 Atom    16 has atomic number  1 and mass   1.00783
 Atom    17 has atomic number  1 and mass   1.00783
 Atom    18 has atomic number  1 and mass   1.00783
 Atom    19 has atomic number  1 and mass   1.00783
 Atom    20 has atomic number  1 and mass   1.00783
[...]
 225,-0.00029814,-0.00033405,0.00018430,-0.00011356,-0.00039654,0.00036
 289,-0.00024619,-0.00456261,-0.00279885,0.00000092,-0.00044506,0.00022
 981,0.00031722,-0.00051257,0.00109965,0.00036665,-0.00193285,0.0025029
 0,-0.00057705,-0.14094026,0.23702976,-0.00013282,-0.00001904,-0.001177
 91,0.00009044,0.00027524,-0.00015855,0.00217690,-0.00287423,-0.0494202
 9,-0.01422064,0.02143245,0.00253485,-0.00218230,-0.00124021,-0.0040111
 5,-0.00159607,0.00089438,-0.00002680,0.00018124,-0.00045053,0.00023363
 ,0.00004613,0.00025934,0.00131123,0.00001934,0.00051711,0.00006139,0.0
 0394926,0.00075184,-0.00441865,0.01356234,-0.02150790,0.00258706,-0.00
 258112,0.00343972,0.04904232,-0.00172528,-0.00152877,0.00080474,-0.000
 33884,0.00446177,-0.00414522,-0.01475319,-0.02139804,-0.00378886,-0.12
 919014,-0.12667623,0.00690932,0.01016658,0.01740093,-0.00115094,0.0012
 1362,0.00058999,0.00010178,-0.00206829,0.00281118,0.00123788,-0.000006
 77,-0.00001062,0.00050532,-0.00021420,-0.00004892,-0.00007475,-0.00014
 752,-0.00033610,-0.00075573,0.00051773,-0.00008267,0.00218907,0.000385
 00,0.00030336,0.00083566,0.14066950,0.00023005,0.00006368,-0.00038442,
 0.00018066,0.00057485,0.00127603,0.00147911,0.00389877,0.00067395,-0.1
 2282793,-0.23144776,0.00309998,-0.01519697,-0.02119447,0.00160969,-0.0
 0069291,0.00150991,0.00003627,0.00430231,-0.00369133,-0.00147360,0.000
 37530,0.00060205,0.00007503,-0.00005764,0.00005638,0.00016285,0.000710
 35,0.00008259,0.00044404,0.00026110,0.00029937,0.00035669,-0.00019583,
 0.00052957,-0.00059459,0.13337555,0.25049818,-0.00170016,-0.00141228,0
 .00104478,-0.00101844,0.00322311,-0.00453255,-0.01400411,-0.02141098,-
 0.00368731,0.00778150,0.00342751,-0.05047706,-0.00499181,-0.00478246,-
 0.00043977,0.00007531,0.00043713,0.00015988,0.00108332,-0.00008607,-0.
 00057338,0.00030388,0.00011637,0.00038362,-0.00027077,0.00012747,0.000
 36000,0.00026279,0.00035554,0.00033478,-0.00167234,-0.00148360,0.00057
 354,0.00060305,0.00042502,0.00097207,-0.00270307,-0.00452649,0.0545367
 1,-0.00014456,0.00023994,0.00018140,0.00166551,0.00058370,0.00003416,0
 .01188213,0.00167188,-0.01932300,-0.09605627,-0.01284605,0.09945325,-0
 .00682150,-0.00187043,0.01735451,-0.00000404,0.00011574,-0.00060228,-0
 .00017200,-0.00187772,0.00005041,0.00007032,-0.00023734,-0.00020330,-0
 .00022743,-0.00031523,0.00075154,-0.00097169,0.00255880,-0.00050378,-0
 .00327660,-0.00014300,-0.00413960,0.00034969,0.00027034,0.00082698,-0.
 00684763,-0.00148710,0.01639647,0.09803805,0.00017837,0.00012610,-0.00
 000086,0.00012289,-0.00012149,-0.00048729,-0.00158933,-0.00143405,0.00
 136315,-0.01475734,-0.05294807,0.02798736,0.00944533,0.00049370,-0.023
 92629,-0.00026132,0.00007909,0.00028876,0.00143782,0.00052429,-0.00181
 297,-0.00036796,0.00002692,0.00014351,0.00009622,0.00042976,-0.0007502
 3,0.00216757,-0.00320370,-0.00145766,0.00120746,-0.00047276,0.00091027
 ,-0.00010225,-0.00003401,0.00004514,-0.01070996,-0.00152456,0.02489040
 ,0.01318645,0.05826397,-0.00107134,-0.00025729,0.00023922,0.00188673,0
 .00121629,-0.00018328,0.00920055,0.00073412,-0.01485527,0.09960619,0.0
 2422229,-0.26729999,0.00104984,0.00061843,-0.00520252,0.00052687,-0.00
 015496,0.00024960,-0.00017007,0.00150033,-0.00024164,-0.00016106,-0.00
 038202,-0.00025771,0.00030199,0.00011090,0.00003249,0.00028264,0.00020
 981,-0.00025560,-0.00277483,-0.00097062,-0.00375193,-0.00026782,0.0003
 0379,0.00020074,0.00013267,0.00037695,0.00077767,-0.10856846,-0.026752
 69,0.28951128,-0.00014456,-0.00023994,0.00018140,0.00166552,-0.0005837
 1,0.00003416,0.00007031,0.00023734,-0.00020330,-0.00017199,0.00187772,
 0.00005041,-0.00682150,0.00187043,0.01735451,-0.00000404,-0.00011574,-
 0.00060228,-0.09605620,0.01284604,0.09945347,0.01188214,-0.00167188,-0
 .01932300,-0.00327660,0.00014300,-0.00413960,-0.00097169,-0.00255880,-
 0.00050377,-0.00022743,0.00031523,0.00075154,0.00005234,0.00003808,-0.
 00002942,-0.00005880,0.00020327,-0.00038333,0.00091592,0.00002273,-0.0
 0056997,0.09803796,-0.00017837,0.00012610,0.00000086,-0.00012289,-0.00
 012149,0.00048729,0.00036796,0.00002692,-0.00014351,-0.00143782,0.0005
 2430,0.00181297,-0.00944533,0.00049369,0.02392628,0.00026132,0.0000790
 9,-0.00028876,0.01475735,-0.05294792,-0.02798747,0.00158933,-0.0014340
 7,-0.00136314,-0.00120746,-0.00047276,-0.00091027,-0.00216756,-0.00320
 370,0.00145766,-0.00009622,0.00042976,0.00075023,0.00004280,0.00001498
 ,-0.00002670,0.00002089,0.00031283,-0.00008064,-0.00002273,-0.00122591
 ,-0.00032233,-0.01318646,0.05826385,-0.00107134,0.00025729,0.00023922,
 0.00188672,-0.00121629,-0.00018328,-0.00016106,0.00038202,-0.00025771,
 -0.00017007,-0.00150033,-0.00024164,0.00104984,-0.00061843,-0.00520252
 ,0.00052687,0.00015496,0.00024960,0.09960639,-0.02422237,-0.26730088,0
 .00920057,-0.00073412,-0.01485524,-0.00277483,0.00097061,-0.00375193,0
 .00028263,-0.00020981,-0.00025560,0.00030199,-0.00011089,0.00003249,0.
 00003044,0.00009360,0.00001538,-0.00022506,-0.00018018,0.00061504,-0.0
 0056997,0.00032233,0.00107114,-0.10856867,0.02675279,0.28951211,-0.001
 72528,0.00152877,0.00080474,-0.00033884,-0.00446177,-0.00414522,-0.000
 00677,0.00001062,0.00050532,-0.00206829,-0.00281117,0.00123787,0.01016
 655,-0.01740088,-0.00115094,0.00121361,-0.00059000,0.00010177,-0.12918
 951,0.12667479,0.00690929,-0.01475319,0.02139805,-0.00378886,0.0005177
 3,0.00008268,0.00218907,-0.00014752,0.00033610,-0.00075573,-0.00021420
 ,0.00004892,-0.00007475,0.00011460,0.00010806,0.00010566,0.00107945,-0
 .00106078,-0.00014690,-0.00005880,-0.00002089,-0.00022506,-0.00684763,
 0.01070996,0.00013267,0.14066891,-0.00023004,0.00006367,0.00038442,-0.
 00018066,0.00057487,-0.00127602,-0.00037530,0.00060205,-0.00007503,-0.
 00430232,-0.00369133,0.00147360,0.01519695,-0.02119447,-0.00160968,0.0
 0069291,0.00150991,-0.00003627,0.12282649,-0.23144580,-0.00309997,-0.0
 0147907,0.00389873,-0.00067393,-0.00026110,0.00029937,-0.00035670,-0.0
 0071035,0.00008259,-0.00044404,0.00005765,0.00005638,-0.00016285,0.000
 13442,0.00002875,0.00010145,0.00106078,-0.00137743,-0.00002994,-0.0002
 0327,0.00031283,0.00018018,0.00148712,-0.00152459,-0.00037696,-0.13337
 416,0.25049627,-0.00170016,0.00141228,0.00104478,-0.00101844,-0.003223
 10,-0.00453255,0.00030388,-0.00011637,0.00038362,0.00108332,0.00008607
 ,-0.00057338,-0.00499180,0.00478245,-0.00043976,0.00007530,-0.00043713
 ,0.00015988,0.00778146,-0.00342749,-0.05047739,-0.01400409,0.02141096,
 -0.00368730,-0.00167235,0.00148361,0.00057354,0.00026279,-0.00035554,0
 .00033477,-0.00027077,-0.00012747,0.00036000,0.00002651,0.00009002,0.0
 0004120,-0.00014690,0.00002994,0.00073510,-0.00038333,0.00008064,0.000
 61504,0.01639645,-0.02489037,0.00077768,-0.00270303,0.00452646,0.05453
 703,0.00200311,-0.00179813,0.00004223,0.01118658,0.01621071,-0.0002536
 9,-0.00217845,0.00288047,0.00002397,-0.00037094,0.00003840,-0.00017621
 ,-0.00185244,0.00028184,-0.00150560,-0.00087439,-0.00060730,-0.0002724
 0,-0.00913691,-0.01329480,0.00255743,-0.14855513,-0.13246116,0.0022285
 7,-0.00851367,-0.01272730,-0.00223360,-0.00281235,0.00026913,0.0021286
 8,-0.00036694,0.00007900,0.00021890,0.00066356,0.00090681,-0.00000280,
 0.00011460,-0.00013442,0.00002651,0.00005234,-0.00004280,0.00003044,0.
 00034969,0.00010225,-0.00026782,0.00038500,0.00019583,0.00060304,0.159
 29892,0.00048694,0.00548884,-0.00007189,-0.02057535,-0.02456642,0.0003
 2536,0.00456261,-0.00279885,-0.00000092,0.00039654,0.00036289,0.000246
 19,0.00051739,0.00075225,0.00029814,0.00033405,0.00018429,0.00011356,0
 .00187961,0.00225544,-0.00064240,-0.12930697,-0.22244479,0.00319447,0.
 00193286,0.00250290,0.00057706,0.00051257,0.00109965,-0.00036665,0.000
 44506,0.00022981,-0.00031722,-0.00090681,-0.00134977,0.00003588,-0.000
 10806,0.00002875,-0.00009002,-0.00003808,0.00001498,-0.00009360,-0.000
 27034,-0.00003401,-0.00030379,-0.00030336,0.00052957,-0.00042502,0.140
 94025,0.23702974,-0.00013282,0.00001903,-0.00117791,0.00009044,-0.0002
 7524,-0.00015855,0.00004613,-0.00025933,0.00131123,0.00018124,0.000450
 53,0.00023363,-0.00218230,0.00124020,-0.00401115,-0.00159607,-0.000894
 38,-0.00002680,-0.01422067,-0.02143247,0.00253485,0.00217690,0.0028742
 4,-0.04942030,0.01356234,0.02150790,0.00258706,0.00394927,-0.00075184,
 -0.00441865,0.00001934,-0.00051711,0.00006139,-0.00000280,-0.00003587,
 0.00031201,0.00010566,-0.00010145,0.00004120,-0.00002942,0.00002670,0.
 00001538,0.00082698,-0.00004514,0.00020074,0.00083565,0.00059459,0.000
 97207,-0.00258109,-0.00343970,0.04904234,-0.00008649,-0.00027556,-0.00
 020381,0.00157662,-0.00054151,0.00006407,0.00017415,0.00009895,0.00023
 565,-0.00023268,0.00038696,-0.00065810,-0.00121536,-0.00270285,0.00079
 551,-0.00014860,0.00008032,-0.00050896,-0.00301681,0.00020604,0.004145
 73,0.01210599,-0.00160272,0.01884123,-0.10367839,0.01284765,-0.1059153
 9,-0.00718283,0.00196818,-0.01620232,0.00024339,0.00216471,-0.00034670
 ,0.00007301,0.00002813,-0.00001660,-0.00001086,0.00001751,-0.00001416,
 0.00018627,-0.00031290,-0.00003446,0.00134471,0.00016893,0.00106393,-0
 .00011223,-0.00023687,0.00015137,0.00040005,-0.00025887,-0.00083910,0.
 10690441,-0.00019079,0.00010442,0.00000441,-0.00007810,-0.00011044,-0.
 00053458,0.00038585,-0.00005943,0.00011890,-0.00002312,0.00048955,-0.0
 0072189,-0.00222969,-0.00369195,-0.00097201,-0.00035650,0.00007155,-0.
 00078820,-0.00079425,-0.00009404,0.00094838,0.00153215,-0.00136787,0.0
 0090826,0.01429242,-0.05255800,0.02418661,-0.00947230,0.00108462,-0.02
 255095,-0.00125555,0.00071947,-0.00186540,0.00004811,0.00001168,0.0000
 1608,-0.00003073,0.00004575,0.00005105,0.00032763,-0.00028444,-0.00002
 161,0.00015209,0.00071156,0.00020070,-0.00065629,0.00032968,-0.0003679
 1,0.00013786,-0.00005676,0.00008564,-0.01351459,0.05717208,0.00116822,
 -0.00027089,0.00029562,-0.00207302,0.00134260,-0.00026190,0.00017742,-
 0.00039980,-0.00024849,-0.00028215,0.00011328,0.00008705,0.00009982,0.
 00032965,-0.00020066,-0.00025654,-0.00012683,-0.00017513,0.00309580,-0
 .00083606,-0.00415707,-0.01030405,0.00072152,-0.01624843,-0.10457085,0
 .02182144,-0.25710108,-0.00146077,0.00042143,-0.00371095,-0.00002313,0
 .00135690,-0.00011268,-0.00003609,-0.00009525,0.00001050,0.00005153,-0
 .00015312,-0.00001929,0.00003234,0.00000250,0.00013257,-0.00117478,-0.
 00023718,-0.00082720,0.00021724,0.00003043,0.00032024,0.00021430,0.000
 32364,0.00026608,0.11448996,-0.02414843,0.27929701,-0.00177057,0.00160
 678,-0.00080505,-0.00020915,-0.00463355,0.00422140,0.00000621,-0.00003
 758,-0.00057551,-0.00016519,0.00007170,0.00000411,-0.00000751,0.000116
 38,0.00075793,0.00007365,0.00001847,0.00000753,0.00043977,0.00006873,-
 0.00240472,-0.01454635,0.02126502,0.00374321,-0.12722161,0.12159540,-0
 .00356908,0.01224858,-0.01740215,0.00049420,-0.00204445,-0.00271000,-0
 .00153948,0.00013317,0.00012844,-0.00014697,0.00006158,0.00001546,0.00
 009684,0.00000588,0.00001562,-0.00006742,-0.00006490,-0.00060658,-0.00
 015532,0.00122114,-0.00024414,0.00009765,0.00031771,-0.00027879,-0.000
 78863,-0.00784345,0.01188493,-0.00000616,0.13735996,-0.00017338,0.0000
 4728,-0.00035000,-0.00013193,0.00061566,0.00105385,-0.00037424,0.00057
 554,0.00013189,0.00015395,0.00011382,0.00002639,0.00004649,-0.00024999
 ,0.00071201,-0.00030076,0.00009620,-0.00019758,-0.00031072,0.00026079,
 0.00032778,-0.00132269,0.00339920,0.00085278,0.12061456,-0.22998660,-0
 .00121261,0.01462323,-0.02023113,0.00121931,-0.00453767,-0.00371004,-0
 .00152080,0.00014065,0.00004309,-0.00013848,-0.00001279,0.00007648,0.0
 0007388,0.00000680,0.00000596,-0.00016899,-0.00025177,0.00037742,-0.00
 003230,-0.00024509,0.00040375,-0.00052864,0.00022438,0.00053818,-0.000
 60950,0.00155454,-0.00168905,0.00042250,-0.13061483,0.24901865,0.00183
 660,-0.00150636,0.00113511,0.00084760,0.00350656,-0.00487215,-0.000294
 04,0.00016903,0.00042087,0.00029012,0.00010871,0.00031377,0.00004288,0
 .00023131,0.00030857,-0.00011911,-0.00000037,-0.00001670,0.00157596,-0
 .00135873,0.00065466,0.01452433,-0.02237667,-0.00395211,-0.00399949,0.
 00023848,-0.05092789,0.00337165,-0.00483449,-0.00054879,-0.00108966,-0
 .00004090,-0.00038171,-0.00004595,-0.00010735,0.00004748,-0.00009187,0
 .00004832,-0.00003256,0.00001721,0.00005899,-0.00002704,-0.00009803,0.
 00035029,0.00035185,-0.00017601,0.00045632,-0.00106674,-0.00055133,0.0
 0043630,0.00100455,-0.01615342,0.02467563,0.00135140,-0.00039413,-0.00
 039528,0.05453269,-0.00026224,0.,0.00003226,0.00090755,0.,-0.00042795,
 -0.00106764,0.00256988,-0.00139357,-0.00010690,-0.00005462,-0.00074625
 ,0.00304187,0.,-0.00353322,0.00109311,0.,-0.00110371,-0.00010690,0.000
 05462,-0.00074625,-0.00106765,-0.00256989,-0.00139357,-0.01109407,0.00
 057674,0.00635575,-0.28213375,0.00000022,0.10468765,-0.01109400,-0.000
 57676,0.00635573,-0.00031653,-0.00019532,0.00074253,0.00004454,0.00002
 189,0.00002639,0.00013460,-0.00015334,-0.00001604,0.00013460,0.0001533
 4,-0.00001604,0.00004454,-0.00002189,0.00002639,-0.00031653,0.00019531
 ,0.00074253,-0.00035963,-0.00021880,-0.00023152,0.00124671,0.00003967,
 -0.00006736,0.30039123,0.,0.00082967,0.,0.,-0.00218182,0.,0.00361554,-
 0.00428838,0.00097794,0.00038298,-0.00044535,0.00002594,0.,-0.00082301
 ,0.,0.,0.00009495,0.,-0.00038298,-0.00044535,-0.00002594,-0.00361555,-
 0.00428837,-0.00097794,-0.02313833,0.00101400,0.01234426,0.00000025,-0
 .04587749,-0.00000008,0.02313829,0.00101401,-0.01234427,0.00101226,0.0
 0017854,-0.00144077,0.00001706,-0.00007702,-0.00012154,-0.00002003,-0.
 00011756,-0.00018057,0.00002003,-0.00011756,0.00018057,-0.00001706,-0.
 00007702,0.00012154,-0.00101226,0.00017854,0.00144077,-0.00024764,-0.0
 0004876,-0.00038454,0.00084356,0.00137561,0.00046051,-0.00000019,0.052
 77552,-0.00018470,0.,0.00000345,0.00003953,0.,-0.00025064,-0.00139553,
 0.00130489,-0.00109450,0.00044199,0.00042934,-0.00267867,0.02573851,0.
 ,-0.00953904,0.00017620,0.,0.00133281,0.00044199,-0.00042934,-0.002678
 67,-0.00139553,-0.00130489,-0.00109450,-0.00903940,0.00106738,0.005224
 10,0.10079840,-0.00000007,-0.09223199,-0.00903941,-0.00106739,0.005224
 10,-0.00014750,0.00000197,0.00057285,0.00016755,-0.00028916,-0.0000259
 8,0.00049767,-0.00081863,-0.00029479,0.00049767,0.00081863,-0.00029479
 ,0.00016755,0.00028916,-0.00002598,-0.00014750,-0.00000197,0.00057285,
 0.00008751,0.00028380,-0.00024687,0.00060119,0.00047122,0.00045725,-0.
 10899490,0.00000009,0.09685862,-0.00008648,0.00027556,-0.00020381,0.00
 157662,0.00054151,0.00006407,0.01210598,0.00160273,0.01884121,-0.00301
 680,-0.00020604,0.00414573,-0.00121536,0.00270285,0.00079551,-0.000148
 60,-0.00008032,-0.00050896,-0.00023268,-0.00038696,-0.00065810,0.00017
 415,-0.00009895,0.00023565,0.00024339,-0.00216471,-0.00034670,-0.00718
 284,-0.00196818,-0.01620231,-0.10367842,-0.01284776,-0.10591500,0.0004
 0005,0.00025887,-0.00083910,-0.00011223,0.00023687,0.00015137,0.001344
 70,-0.00016893,0.00106393,0.00018627,0.00031290,-0.00003446,-0.0000108
 6,-0.00001751,-0.00001416,0.00007301,-0.00002813,-0.00001660,0.0009687
 9,0.00005513,0.00060524,-0.00009006,-0.00022672,0.00041280,-0.00035963
 ,0.00024765,0.00008750,0.10690447,0.00019079,0.00010442,-0.00000441,0.
 00007810,-0.00011044,0.00053458,-0.00153215,-0.00136786,-0.00090827,0.
 00079425,-0.00009404,-0.00094838,0.00222969,-0.00369195,0.00097201,0.0
 0035650,0.00007155,0.00078820,0.00002312,0.00048955,0.00072189,-0.0003
 8585,-0.00005943,-0.00011890,0.00125555,0.00071946,0.00186540,0.009472
 31,0.00108463,0.02255094,-0.01429252,-0.05255818,-0.02418670,-0.000137
 86,-0.00005676,-0.00008564,0.00065629,0.00032968,0.00036792,-0.0001520
 9,0.00071155,-0.00020070,-0.00032763,-0.00028444,0.00002161,0.00003073
 ,0.00004575,-0.00005105,-0.00004811,0.00001168,-0.00001608,-0.00005513
 ,-0.00112917,-0.00037437,-0.00000453,0.00034955,-0.00011715,0.00021880
 ,-0.00004876,-0.00028380,0.01351467,0.05717224,0.00116823,0.00027089,0
 .00029562,-0.00207302,-0.00134261,-0.00026190,-0.01030405,-0.00072153,
 -0.01624848,0.00309580,0.00083606,-0.00415707,0.00009982,-0.00032964,-
 0.00020066,-0.00025654,0.00012683,-0.00017513,-0.00028215,-0.00011329,
 0.00008705,0.00017742,0.00039980,-0.00024850,-0.00002313,-0.00135690,-
 0.00011268,-0.00146078,-0.00042143,-0.00371096,-0.10457048,-0.02182153
 ,-0.25709999,0.00021430,-0.00032364,0.00026608,0.00021724,-0.00003043,
 0.00032024,-0.00117478,0.00023719,-0.00082720,0.00003234,-0.00000250,0
 .00013257,0.00005153,0.00015312,-0.00001929,-0.00003609,0.00009525,0.0
 0001050,0.00060524,0.00037437,0.00099117,0.00026716,-0.00014059,0.0005
 5810,-0.00023152,0.00038454,-0.00024687,0.11448959,0.02414853,0.279295
 99,-0.00177057,-0.00160678,-0.00080505,-0.00020915,0.00463355,0.004221
 40,-0.01454632,-0.02126500,0.00374319,0.00043977,-0.00006873,-0.002404
 72,-0.00000751,-0.00011638,0.00075793,0.00007365,-0.00001847,0.0000075
 3,-0.00016519,-0.00007170,0.00000411,0.00000621,0.00003758,-0.00057551
 ,-0.00204445,0.00271001,-0.00153949,0.01224860,0.01740218,0.00049418,-
 0.12722211,-0.12159633,-0.00356892,0.00031772,0.00027879,-0.00078864,0
 .00122114,0.00024414,0.00009765,-0.00006490,0.00060658,-0.00015532,0.0
 0000588,-0.00001562,-0.00006742,0.00006158,-0.00001546,0.00009684,0.00
 013317,-0.00012844,-0.00014697,-0.00009006,0.00000453,0.00026716,0.000
 84887,0.00109833,0.00016127,0.00124671,-0.00084356,0.00060119,-0.00784
 345,-0.01188493,-0.00000615,0.13736041,0.00017339,0.00004729,0.0003500
 0,0.00013193,0.00061565,-0.00105386,0.00132273,0.00339925,-0.00085279,
 0.00031072,0.00026079,-0.00032777,-0.00004648,-0.00024999,-0.00071201,
 0.00030076,0.00009620,0.00019758,-0.00015395,0.00011382,-0.00002639,0.
 00037424,0.00057554,-0.00013189,0.00453767,-0.00371004,0.00152080,-0.0
 1462324,-0.02023115,-0.00121928,-0.12061547,-0.22998764,0.00121282,-0.
 00022438,0.00053818,0.00060950,0.00024509,0.00040375,0.00052864,0.0002
 5177,0.00037742,0.00003230,-0.00000680,0.00000596,0.00016899,0.0000127
 9,0.00007648,-0.00007388,-0.00014065,0.00004309,0.00013848,0.00022672,
 0.00034955,0.00014059,-0.00109833,-0.00143038,-0.00000316,-0.00003967,
 0.00137562,-0.00047123,-0.00155453,-0.00168904,-0.00042249,0.13061570,
 0.24901967,0.00183660,0.00150636,0.00113511,0.00084760,-0.00350657,-0.
 00487215,0.01452433,0.02237670,-0.00395211,0.00157595,0.00135872,0.000
 65467,0.00004288,-0.00023131,0.00030857,-0.00011911,0.00000037,-0.0000
 1670,0.00029012,-0.00010871,0.00031377,-0.00029404,-0.00016903,0.00042
 087,-0.00108966,0.00004090,-0.00038171,0.00337166,0.00483450,-0.000548
 79,-0.00399934,-0.00023827,-0.05092771,-0.00055133,-0.00043630,0.00100
 455,-0.00017601,-0.00045631,-0.00106674,-0.00009803,-0.00035030,0.0003
 5185,0.00001721,-0.00005899,-0.00002704,-0.00009187,-0.00004832,-0.000
 03256,-0.00004595,0.00010735,0.00004748,0.00041280,0.00011715,0.000558
 10,0.00016127,0.00000315,0.00068938,-0.00006736,-0.00046052,0.00045725
 ,-0.01615342,-0.02467563,0.00135141,-0.00039427,0.00039505,0.05453248\
 \-0.00002718,0.00000001,0.00001238,0.00010484,0.,0.00000646,-0.0000278
 4,0.00009923,0.00012602,0.00059232,-0.00020354,-0.00012755,0.00046865,
 -0.00000016,0.00019611,-0.00276724,0.00000002,-0.00130417,0.00059334,0
 .00020294,-0.00012774,-0.00002812,-0.00009920,0.00012590,-0.00001239,0
 .00011878,-0.00006504,0.00028668,-0.00000013,0.00068252,-0.00001278,-0
 .00011935,-0.00006545,-0.00003765,-0.00000636,-0.00003324,0.00032308,-
 0.00011509,0.00007000,0.00002645,0.00001063,0.00003422,0.00002626,-0.0
 0001060,0.00003441,0.00032258,0.00011581,0.00007002,-0.00003767,0.0000
 0636,-0.00003326,-0.00005041,-0.00003142,-0.00001831,0.00000890,-0.000
 00350,0.00002053,0.00028927,0.00000010,0.00039370,-0.00005021,0.000031
 50,-0.00001805,0.00000911,0.00000397,0.00002055\\\@


 There are more things in heaven and earth, Horatio,
 than are dreamt of in your philosophy.
                   -- Hamlet, Act I, Scene 5
 Job cpu time:       0 days  0 hours  2 minutes  6.1 seconds.
 Elapsed time:       0 days  0 hours  2 minutes 10.4 seconds.
 File lengths (MBytes):  RWF=    123 Int=      0 D2E=      0 Chk=     16 Scr=      1
 Normal termination of Gaussian 16 at Sat Feb 24 00:02:14 2024.
