 Entering Gaussian System, Link 0=g16
 Input=/Volumes/SSD-PMU3/b3lyp_6-31gd_freq/DUPFRYAOGHZOCO-IILKTSJVSA-N_calculating/gaussianinput2.gjf
 Output=/Volumes/SSD-PMU3/b3lyp_6-31gd_freq/DUPFRYAOGHZOCO-IILKTSJVSA-N_calculating/gaussianinput2.log
 Initial command:
 /Applications/g16/l1.exe "/Users/macmini_m1_2022/PycharmProjects/sphere_model/sphere_model_lib/Gau-82589.inp" -scrdir="/Users/macmini_m1_2022/PycharmProjects/sphere_model/sphere_model_lib/"
 Entering Link 1 = /Applications/g16/l1.exe PID=     82590.
  
 Copyright (c) 1988,1990,1992,1993,1995,1998,2003,2009,2016,
            Gaussian, Inc.  All Rights Reserved.
  
 This is part of the Gaussian(R) 16 program.  It is based on
 the Gaussian(R) 09 system (copyright 2009, Gaussian, Inc.),
 the Gaussian(R) 03 system (copyright 2003, Gaussian, Inc.),
 the Gaussian(R) 98 system (copyright 1998, Gaussian, Inc.),
 the Gaussian(R) 94 system (copyright 1995, Gaussian, Inc.),
 the Gaussian 92(TM) system (copyright 1992, Gaussian, Inc.),
 the Gaussian 90(TM) system (copyright 1990, Gaussian, Inc.),
 the Gaussian 88(TM) system (copyright 1988, Gaussian, Inc.),
 the Gaussian 86(TM) system (copyright 1986, Carnegie Mellon
 University), and the Gaussian 82(TM) system (copyright 1983,
 Carnegie Mellon University). Gaussian is a federally registered
 trademark of Gaussian, Inc.
  
 This software contains proprietary and confidential information,
 including trade secrets, belonging to Gaussian, Inc.
  
 This software is provided under written license and may be
 used, copied, transmitted, or stored only in accord with that
 written license.
  
 The following legend is applicable only to US Government
 contracts under FAR:
  
                    RESTRICTED RIGHTS LEGEND
  
 Use, reproduction and disclosure by the US Government is
 subject to restrictions as set forth in subparagraphs (a)
 and (c) of the Commercial Computer Software - Restricted
 Rights clause in FAR 52.227-19.
  
 Gaussian, Inc.
 340 Quinnipiac St., Bldg. 40, Wallingford CT 06492
  
  
 ---------------------------------------------------------------
 Warning -- This program may not be used in any manner that
 competes with the business of Gaussian, Inc. or will provide
 assistance to any competitor of Gaussian, Inc.  The licensee
 of this program is prohibited from giving any competitor of
 Gaussian, Inc. access to this program.  By using this program,
 the user acknowledges that Gaussian, Inc. is engaged in the
 business of creating and licensing software in the field of
 computational chemistry and represents and warrants to the
 licensee that it is not a competitor of Gaussian, Inc. and that
 it will not use this program in any manner prohibited above.
 ---------------------------------------------------------------
  

 Cite this work as:
 Gaussian 16, Revision A.03,
 M. J. Frisch, G. W. Trucks, H. B. Schlegel, G. E. Scuseria, 
 M. A. Robb, J. R. Cheeseman, G. Scalmani, V. Barone, 
 G. A. Petersson, H. Nakatsuji, X. Li, M. Caricato, A. V. Marenich, 
 J. Bloino, B. G. Janesko, R. Gomperts, B. Mennucci, H. P. Hratchian, 
 J. V. Ortiz, A. F. Izmaylov, J. L. Sonnenberg, D. Williams-Young, 
 F. Ding, F. Lipparini, F. Egidi, J. Goings, B. Peng, A. Petrone, 
 T. Henderson, D. Ranasinghe, V. G. Zakrzewski, J. Gao, N. Rega, 
 G. Zheng, W. Liang, M. Hada, M. Ehara, K. Toyota, R. Fukuda, 
 J. Hasegawa, M. Ishida, T. Nakajima, Y. Honda, O. Kitao, H. Nakai, 
 T. Vreven, K. Throssell, J. A. Montgomery, Jr., J. E. Peralta, 
 F. Ogliaro, M. J. Bearpark, J. J. Heyd, E. N. Brothers, K. N. Kudin, 
 V. N. Staroverov, T. A. Keith, R. Kobayashi, J. Normand, 
 K. Raghavachari, A. P. Rendell, J. C. Burant, S. S. Iyengar, 
 J. Tomasi, M. Cossi, J. M. Millam, M. Klene, C. Adamo, R. Cammi, 
 J. W. Ochterski, R. L. Martin, K. Morokuma, O. Farkas, 
 J. B. Foresman, and D. J. Fox, Gaussian, Inc., Wallingford CT, 2016.
 
 ******************************************
 Gaussian 16:  EM64M-G16RevA.03 25-Dec-2016
                24-Feb-2024 
 ******************************************
 %nprocshared=10
 Will use up to   10 processors via shared memory.
 %mem=12GB
 %chk= 2.chk
 ---------------------
 # freq b3lyp/6-31g(d)
 ---------------------
 1/10=4,30=1,38=1/1,3;
 2/12=2,17=6,18=5,40=1/2;
 3/5=1,6=6,7=1,11=2,25=1,30=1,71=2,74=-5,140=1/1,2,3;
 4//1;
 5/5=2,38=5,98=1/2;
 8/6=4,10=90,11=11/1;
 11/6=1,8=1,9=11,15=111,16=1/1,2,10;
 10/6=1/2;
 6/7=2,8=2,9=2,10=2,28=1/1;
 7/8=1,10=1,25=1/1,2,3,16;
 1/10=4,30=1/3;
 99//99;
 ---------
 good luck
 ---------
 Symbolic Z-matrix:
 Charge =  0 Multiplicity = 1
 O                     1.21591   0.        0. 
 C                     0.        0.        0. 
 C                    -0.85223  -1.26569  -0.00443 
 C                    -1.75895  -1.25706   1.24996 
 C                    -1.73137  -1.25464  -1.2806 
 C                    -2.62034   0.00464  -1.28517 
 C                    -1.72801   1.26208  -1.27954 
 C                    -0.84761   1.26996  -0.00443 
 C                    -1.75555   1.26621   1.24932 
 C                    -2.65651   0.0004    1.24959 
 C                    -3.55158  -0.01096   2.48542 
 O                    -3.59025  -0.89038   3.31942 
 O                    -4.32745   1.09753   2.54992 
 C                    -5.20798   1.16864   3.68357 
 C                    -3.52689   0.00786  -0.03815 
 H                    -0.18534  -2.13343   0.00734 
 H                    -1.15297  -1.28179   2.16279 
 H                    -2.3804   -2.15995   1.26562 
 H                    -2.35052  -2.16154  -1.30254 
 H                    -1.09721  -1.27691  -2.17631 
 H                    -3.24836   0.00657  -2.18534 
 H                    -2.34473   2.17069  -1.3014 
 H                    -1.09313   1.28293  -2.17471 
 H                    -0.17768   2.13557   0.00801 
 H                    -2.37642   2.16891   1.25853 
 H                    -1.14086   1.28607   2.1588 
 H                    -5.90232   0.32426   3.68403 
 H                    -5.74784   2.10994   3.57625 
 H                    -4.63609   1.15676   4.61515 
 H                    -4.17607   0.89072  -0.0395 
 H                    -4.18019  -0.87516  -0.04547 
 

 GradGradGradGradGradGradGradGradGradGradGradGradGradGradGradGradGradGrad
 Berny optimization.
 Initialization pass.
 Trust Radius=3.00D-01 FncErr=1.00D-07 GrdErr=1.00D-07 EigMax=2.50D+02 EigMin=1.00D-04
 Number of steps in this run=      2 maximum allowed number of steps=      2.
 GradGradGradGradGradGradGradGradGradGradGradGradGradGradGradGradGradGrad

                          Input orientation:                          
 ---------------------------------------------------------------------
 Center     Atomic      Atomic             Coordinates (Angstroms)
 Number     Number       Type             X           Y           Z
 ---------------------------------------------------------------------
      1          8           0        1.215908    0.000000    0.000000
      2          6           0        0.000000    0.000000    0.000000
      3          6           0       -0.852227   -1.265690   -0.004433
      4          6           0       -1.758951   -1.257063    1.249955
      5          6           0       -1.731374   -1.254638   -1.280596
      6          6           0       -2.620337    0.004643   -1.285169
      7          6           0       -1.728013    1.262083   -1.279536
      8          6           0       -0.847607    1.269959   -0.004433
      9          6           0       -1.755551    1.266205    1.249319
     10          6           0       -2.656508    0.000402    1.249589
     11          6           0       -3.551576   -0.010959    2.485418
     12          8           0       -3.590248   -0.890380    3.319422
     13          8           0       -4.327446    1.097530    2.549915
     14          6           0       -5.207976    1.168639    3.683574
     15          6           0       -3.526893    0.007855   -0.038151
     16          1           0       -0.185339   -2.133431    0.007344
     17          1           0       -1.152966   -1.281788    2.162786
     18          1           0       -2.380403   -2.159945    1.265618
     19          1           0       -2.350515   -2.161540   -1.302537
     20          1           0       -1.097214   -1.276912   -2.176306
     21          1           0       -3.248363    0.006567   -2.185341
     22          1           0       -2.344730    2.170694   -1.301403
     23          1           0       -1.093135    1.282928   -2.174713
     24          1           0       -0.177683    2.135567    0.008009
     25          1           0       -2.376415    2.168914    1.258525
     26          1           0       -1.140856    1.286074    2.158797
     27          1           0       -5.902323    0.324257    3.684027
     28          1           0       -5.747842    2.109938    3.576247
     29          1           0       -4.636092    1.156762    4.615151
     30          1           0       -4.176067    0.890721   -0.039502
     31          1           0       -4.180188   -0.875163   -0.045467
 ---------------------------------------------------------------------
                    Distance matrix (angstroms):
                    1          2          3          4          5
     1  O    0.000000
     2  C    1.215908   0.000000
     3  C    2.424701   1.525871   0.000000
     4  C    3.463002   2.497299   1.547809   0.000000
     5  C    3.449712   2.492328   1.549714   2.530702   0.000000
     6  C    4.045795   2.918535   2.525914   2.959855   1.541449
     7  C    3.449165   2.493210   2.963533   3.570067   2.516723
     8  C    2.422996   1.526844   2.535653   2.964773   2.963651
     9  C    3.463184   2.499206   2.966206   2.523270   3.571513
    10  C    4.069039   2.935729   2.535940   1.544936   2.972008
    11  C    5.376460   4.334872   3.880746   2.508515   4.363798
    12  O    5.908509   4.970032   4.322688   2.787615   4.974763
    13  O    6.199630   5.141345   4.917992   3.719028   5.190867
    14  C    7.496714   6.485171   6.204829   4.868501   6.527022
    15  C    4.742961   3.527108   2.962582   2.526827   2.522191
    16  H    2.552464   2.141479   1.094465   2.188232   2.195744
    17  H    3.454300   2.765855   2.188045   1.095942   3.491729
    18  H    4.381849   3.454485   2.179001   1.096195   2.779213
    19  H    4.369008   3.448736   2.175428   2.771866   1.098312
    20  H    3.423061   2.751489   2.185675   3.489635   1.097703
    21  H    4.970460   3.915051   3.480871   3.951755   2.170359
    22  H    4.368490   3.450119   3.964648   4.313013   3.479876
    23  H    3.421544   2.751404   3.356130   4.315462   2.765147
    24  H    2.550060   2.142961   3.467523   3.943701   3.945624
    25  H    4.380965   3.454768   3.964179   3.481186   4.310907
    26  H    3.445102   2.759700   3.357733   2.770484   4.316637
    27  H    8.021621   6.965243   6.452607   5.058934   6.673620
    28  H    8.107724   7.090773   6.941411   5.714856   7.144320
    29  H    7.542123   6.643122   6.444103   5.042721   7.000862
    30  H    5.465193   4.270185   3.962228   3.481110   3.481293
    31  H    5.466793   4.271059   3.351048   2.772428   2.768797
                    6          7          8          9         10
     6  C    0.000000
     7  C    1.541891   0.000000
     8  C    2.526634   1.549537   0.000000
     9  C    2.960240   2.529008   1.547989   0.000000
    10  C    2.535020   2.974965   2.540958   1.553699   0.000000
    11  C    3.883912   4.372745   3.892500   2.526815   1.525958
    12  O    4.789995   5.408459   4.820493   3.507463   2.439174
    13  O    4.337798   4.631288   4.320151   2.886979   2.384653
    14  C    5.721815   6.062288   5.711784   4.225441   3.714707
    15  C    1.541722   2.519939   2.961860   2.525604   1.554317
    16  H    3.488720   3.945303   3.467247   3.945325   3.493292
    17  H    3.961878   4.318743   3.361770   2.773049   2.176828
    18  H    3.354031   4.314359   3.965695   3.482701   2.177978
    19  H    2.182992   3.479832   3.964718   4.314555   3.358716
    20  H    2.180920   2.765610   3.356470   4.316915   3.974882
    21  H    1.097602   2.169854   3.480826   3.951211   3.485552
    22  H    2.183575   1.098359   2.175967   2.769732   3.363768
    23  H    2.181203   1.097655   2.184163   3.487559   3.976789
    24  H    3.489943   2.196422   1.094637   2.187763   3.499289
    25  H    3.348723   2.772097   2.177254   1.095646   2.186544
    26  H    3.961292   3.488189   2.183076   1.097905   2.185592
    27  H    5.963765   6.552964   6.328447   4.900080   4.070219
    28  H    6.151985   6.360543   6.126919   4.697325   4.406793
    29  H    6.340696   6.573838   5.975449   4.431514   4.072214
    30  H    2.181081   2.769217   3.350179   2.767841   2.182541
    31  H    2.178085   3.479067   3.963500   3.484364   2.182976
                   11         12         13         14         15
    11  C    0.000000
    12  O    1.212617   0.000000
    13  O    1.354578   2.255524   0.000000
    14  C    2.360231   2.643711   1.437210   0.000000
    15  C    2.523760   3.476224   2.919994   4.245550   0.000000
    16  H    4.687994   4.910035   5.836165   7.045936   3.969025
    17  H    2.733574   2.726050   3.986019   4.975992   3.484657
    18  H    2.734538   2.700672   4.006437   4.992109   2.777339
    19  H    4.518423   4.951292   5.419518   6.642024   2.772871
    20  H    5.418321   6.047119   6.197543   7.564210   3.482194
    21  H    4.680623   5.587827   4.977677   6.295606   2.165180
    22  H    4.533884   5.680978   4.462678   5.835434   2.769691
    23  H    5.425394   6.414387   5.728634   7.159924   3.480501
    24  H    4.704071   5.636259   4.975876   6.304647   3.968186
    25  H    2.763714   3.883293   2.573339   3.859942   2.770405
    26  H    2.756909   3.476136   3.216035   4.345135   3.486201
    27  H    2.659896   2.637038   2.089114   1.093206   4.426894
    28  H    3.242175   3.704467   2.023821   1.090421   4.734474
    29  H    2.659983   2.638843   2.089012   1.093173   4.919708
    30  H    2.752860   3.846801   2.602070   3.873418   1.095847
    31  H    2.747250   3.416246   3.263313   4.374840   1.098439
                   16         17         18         19         20
    16  H    0.000000
    17  H    2.511479   0.000000
    18  H    2.530269   1.755754   0.000000
    19  H    2.530724   3.770484   2.568329   0.000000
    20  H    2.516638   4.339453   3.777984   1.765447   0.000000
    21  H    4.332387   4.995674   4.166083   2.507222   2.504963
    22  H    4.990118   5.033939   5.034412   4.332238   3.769315
    23  H    4.154152   5.039370   5.034512   3.769092   2.559844
    24  H    4.269005   4.156026   4.988485   4.990377   4.154730
    25  H    4.987629   3.771188   4.328867   5.031157   5.030719
    26  H    4.151479   2.567894   3.769522   5.032907   5.036261
    27  H    7.227872   5.239270   4.942052   6.607598   7.745729
    28  H    7.853960   5.883414   5.908515   7.320511   8.135783
    29  H    7.201837   4.908440   5.225710   7.159191   8.035566
    30  H    5.007355   4.325391   3.772839   3.774148   4.329423
    31  H    4.188657   3.769058   2.570765   2.565676   3.769165
                   21         22         23         24         25
    21  H    0.000000
    22  H    2.506261   0.000000
    23  H    2.504839   1.765585   0.000000
    24  H    4.332724   2.532170   2.515814   0.000000
    25  H    4.158876   2.560125   3.770796   2.529689   0.000000
    26  H    4.995023   3.768932   4.333774   2.505041   1.765362
    27  H    6.449334   6.396898   7.640168   7.040274   4.660241
    28  H    6.623252   5.947801   7.444715   6.615108   4.091679
    29  H    7.035299   6.425263   7.659681   6.485463   4.171035
    30  H    2.499398   2.566032   3.770600   4.187956   2.560742
    31  H    2.494956   3.771409   4.326770   5.008732   3.770994
                   26         27         28         29         30
    26  H    0.000000
    27  H    5.091462   0.000000
    28  H    4.890014   1.795588   0.000000
    29  H    4.273999   1.778594   1.795509   0.000000
    30  H    3.768465   4.143128   4.126816   4.684890   0.000000
    31  H    4.332120   4.279426   4.948250   5.104697   1.765899
                   31
    31  H    0.000000
 Stoichiometry    C12H16O3
 Framework group  C1[X(C12H16O3)]
 Deg. of freedom    87
 Full point group                 C1      NOp   1
 Largest Abelian subgroup         C1      NOp   1
 Largest concise Abelian subgroup C1      NOp   1
                         Standard orientation:                         
 ---------------------------------------------------------------------
 Center     Atomic      Atomic             Coordinates (Angstroms)
 Number     Number       Type             X           Y           Z
 ---------------------------------------------------------------------
      1          8           0       -3.074205   -1.502162   -1.038044
      2          6           0       -2.202362   -0.796696   -0.568320
      3          6           0       -1.744796   -0.861576    0.885883
      4          6           0       -0.232071   -1.187922    0.915390
      5          6           0       -1.989616    0.524534    1.534248
      6          6           0       -1.205644    1.602947    0.760633
      7          6           0       -1.692117    1.640078   -0.702034
      8          6           0       -1.446679    0.262371   -1.367427
      9          6           0        0.065013   -0.068334   -1.326296
     10          6           0        0.560737   -0.108202    0.145658
     11          6           0        2.049982   -0.437523    0.193044
     12          8           0        2.545988   -1.375124    0.780684
     13          8           0        2.782377    0.461127   -0.507606
     14          6           0        4.200828    0.229756   -0.513563
     15          6           0        0.301256    1.279128    0.796723
     16          1           0       -2.318041   -1.642092    1.395823
     17          1           0       -0.042559   -2.173605    0.475387
     18          1           0        0.116955   -1.239213    1.953270
     19          1           0       -1.668553    0.495785    2.584190
     20          1           0       -3.062177    0.758120    1.532622
     21          1           0       -1.373368    2.582646    1.226238
     22          1           0       -1.156919    2.416531   -1.265128
     23          1           0       -2.759701    1.892042   -0.742357
     24          1           0       -1.815588    0.249793   -2.397950
     25          1           0        0.623826    0.686692   -1.890303
     26          1           0        0.251278   -1.036968   -1.808425
     27          1           0        4.598629    0.257133    0.504329
     28          1           0        4.626111    1.034480   -1.114038
     29          1           0        4.429194   -0.743230   -0.956480
     30          1           0        0.870757    2.048970    0.263907
     31          1           0        0.659692    1.270824    1.835002
 ---------------------------------------------------------------------
 Rotational constants (GHZ):           1.2150193           0.4395583           0.4245674
 Standard basis: 6-31G(d) (6D, 7F)
 There are   257 symmetry adapted cartesian basis functions of A   symmetry.
 There are   257 symmetry adapted basis functions of A   symmetry.
   257 basis functions,   484 primitive gaussians,   257 cartesian basis functions
    56 alpha electrons       56 beta electrons
       nuclear repulsion energy      1088.1603497001 Hartrees.
 NAtoms=   31 NActive=   31 NUniq=   31 SFac= 1.00D+00 NAtFMM=   60 NAOKFM=F Big=F
 Integral buffers will be    131072 words long.
 Raffenetti 2 integral format.
 Two-electron integral symmetry is turned on.
 One-electron integrals computed using PRISM.
 NBasis=   257 RedAO= T EigKep=  2.01D-03  NBF=   257
 NBsUse=   257 1.00D-06 EigRej= -1.00D+00 NBFU=   257
 ExpMin= 1.61D-01 ExpMax= 5.48D+03 ExpMxC= 8.25D+02 IAcc=3 IRadAn=         5 AccDes= 0.00D+00
 Harris functional with IExCor=  402 and IRadAn=       5 diagonalized for initial guess.
 HarFok:  IExCor=  402 AccDes= 0.00D+00 IRadAn=         5 IDoV= 1 UseB2=F ITyADJ=14
 ICtDFT=  3500011 ScaDFX=  1.000000  1.000000  1.000000  1.000000
 FoFCou: FMM=F IPFlag=           0 FMFlag=      100000 FMFlg1=           0
         NFxFlg=           0 DoJE=T BraDBF=F KetDBF=T FulRan=T
         wScrn=  0.000000 ICntrl=       500 IOpCl=  0 I1Cent=   200000004 NGrid=           0
         NMat0=    1 NMatS0=      1 NMatT0=    0 NMatD0=    1 NMtDS0=    0 NMtDT0=    0
 Petite list used in FoFCou.
 Requested convergence on RMS density matrix=1.00D-08 within 128 cycles.
 Requested convergence on MAX density matrix=1.00D-06.
 Requested convergence on             energy=1.00D-06.
 No special actions if energy rises.
 Integral accuracy reduced to 1.0D-05 until final iterations.
 Initial convergence to 1.0D-05 achieved.  Increase integral accuracy.
 SCF Done:  E(RB3LYP) =  -692.608974511     A.U. after   14 cycles
            NFock= 14  Conv=0.75D-08     -V/T= 2.0093
 DoSCS=F DFT=T ScalE2(SS,OS)=  1.000000  1.000000
 Range of M.O.s used for correlation:     1   257
 NBasis=   257 NAE=    56 NBE=    56 NFC=     0 NFV=     0
 NROrb=    257 NOA=    56 NOB=    56 NVA=   201 NVB=   201
 Symmetrizing basis deriv contribution to polar:
 IMax=3 JMax=2 DiffMx= 0.00D+00
 G2DrvN: will do    32 centers at a time, making    1 passes.
 Calling FoFCou, ICntrl=  3107 FMM=F I1Cent=   0 AccDes= 0.00D+00.
 End of G2Drv F.D. properties file   721 does not exist.
 End of G2Drv F.D. properties file   722 does not exist.
 End of G2Drv F.D. properties file   788 does not exist.
          IDoAtm=1111111111111111111111111111111
          Differentiating once with respect to electric field.
                with respect to dipole field.
          Differentiating once with respect to nuclear coordinates.
 Keep R1 ints in memory in canonical form, NReq=560459111.
          There are    96 degrees of freedom in the 1st order CPHF.  IDoFFX=6 NUNeed=     3.
     93 vectors produced by pass  0 Test12= 1.17D-14 1.04D-09 XBig12= 8.66D+01 2.10D+00.
 AX will form    93 AO Fock derivatives at one time.
     93 vectors produced by pass  1 Test12= 1.17D-14 1.04D-09 XBig12= 1.80D+01 1.36D+00.
     93 vectors produced by pass  2 Test12= 1.17D-14 1.04D-09 XBig12= 1.06D-01 3.49D-02.
     93 vectors produced by pass  3 Test12= 1.17D-14 1.04D-09 XBig12= 4.11D-04 4.74D-03.
     93 vectors produced by pass  4 Test12= 1.17D-14 1.04D-09 XBig12= 6.24D-07 9.35D-05.
     59 vectors produced by pass  5 Test12= 1.17D-14 1.04D-09 XBig12= 4.98D-10 2.15D-06.
      6 vectors produced by pass  6 Test12= 1.17D-14 1.04D-09 XBig12= 3.42D-13 6.06D-08.
      3 vectors produced by pass  7 Test12= 1.17D-14 1.04D-09 XBig12= 2.84D-16 1.81D-09.
 InvSVY:  IOpt=1 It=  1 EMax= 1.24D-14
 Solved reduced A of dimension   533 with    96 vectors.
 Isotropic polarizability for W=    0.000000      121.27 Bohr**3.
 End of Minotr F.D. properties file   721 does not exist.
 End of Minotr F.D. properties file   722 does not exist.
 End of Minotr F.D. properties file   788 does not exist.

 **********************************************************************

            Population analysis using the SCF density.

 **********************************************************************

 Orbital symmetries:
       Occupied  (A) (A) (A) (A) (A) (A) (A) (A) (A) (A) (A) (A)
                 (A) (A) (A) (A) (A) (A) (A) (A) (A) (A) (A) (A)
                 (A) (A) (A) (A) (A) (A) (A) (A) (A) (A) (A) (A)
                 (A) (A) (A) (A) (A) (A) (A) (A) (A) (A) (A) (A)
                 (A) (A) (A) (A) (A) (A) (A) (A)
       Virtual   (A) (A) (A) (A) (A) (A) (A) (A) (A) (A) (A) (A)
                 (A) (A) (A) (A) (A) (A) (A) (A) (A) (A) (A) (A)
                 (A) (A) (A) (A) (A) (A) (A) (A) (A) (A) (A) (A)
                 (A) (A) (A) (A) (A) (A) (A) (A) (A) (A) (A) (A)
                 (A) (A) (A) (A) (A) (A) (A) (A) (A) (A) (A) (A)
                 (A) (A) (A) (A) (A) (A) (A) (A) (A) (A) (A) (A)
                 (A) (A) (A) (A) (A) (A) (A) (A) (A) (A) (A) (A)
                 (A) (A) (A) (A) (A) (A) (A) (A) (A) (A) (A) (A)
                 (A) (A) (A) (A) (A) (A) (A) (A) (A) (A) (A) (A)
                 (A) (A) (A) (A) (A) (A) (A) (A) (A) (A) (A) (A)
                 (A) (A) (A) (A) (A) (A) (A) (A) (A) (A) (A) (A)
                 (A) (A) (A) (A) (A) (A) (A) (A) (A) (A) (A) (A)
                 (A) (A) (A) (A) (A) (A) (A) (A) (A) (A) (A) (A)
                 (A) (A) (A) (A) (A) (A) (A) (A) (A) (A) (A) (A)
                 (A) (A) (A) (A) (A) (A) (A) (A) (A) (A) (A) (A)
                 (A) (A) (A) (A) (A) (A) (A) (A) (A) (A) (A) (A)
                 (A) (A) (A) (A) (A) (A) (A) (A) (A)
 The electronic state is 1-A.
 Alpha  occ. eigenvalues --  -19.19718 -19.14002 -19.13346 -10.31484 -10.26457
 Alpha  occ. eigenvalues --  -10.24509 -10.21596 -10.20000 -10.19855 -10.19725
 Alpha  occ. eigenvalues --  -10.19477 -10.19465 -10.19421 -10.19345 -10.19090
 Alpha  occ. eigenvalues --   -1.10532  -1.03173  -1.01674  -0.88104  -0.79542
 Alpha  occ. eigenvalues --   -0.78308  -0.76889  -0.72760  -0.68029  -0.65461
 Alpha  occ. eigenvalues --   -0.61936  -0.60620  -0.57958  -0.55965  -0.52559
 Alpha  occ. eigenvalues --   -0.48952  -0.48449  -0.47762  -0.46294  -0.45714
 Alpha  occ. eigenvalues --   -0.44779  -0.44419  -0.43924  -0.42398  -0.41928
 Alpha  occ. eigenvalues --   -0.40989  -0.40582  -0.39850  -0.38403  -0.36872
 Alpha  occ. eigenvalues --   -0.36659  -0.36159  -0.34383  -0.34115  -0.33923
 Alpha  occ. eigenvalues --   -0.31794  -0.30934  -0.30485  -0.30010  -0.26910
 Alpha  occ. eigenvalues --   -0.23085
 Alpha virt. eigenvalues --   -0.01051   0.00574   0.06534   0.10696   0.11566
 Alpha virt. eigenvalues --    0.11742   0.11850   0.12708   0.13238   0.13395
 Alpha virt. eigenvalues --    0.14165   0.15248   0.15777   0.16500   0.17165
 Alpha virt. eigenvalues --    0.17787   0.18736   0.19122   0.19476   0.19696
 Alpha virt. eigenvalues --    0.20844   0.21068   0.21796   0.23131   0.23872
 Alpha virt. eigenvalues --    0.24354   0.25407   0.27128   0.28294   0.28734
 Alpha virt. eigenvalues --    0.29497   0.33620   0.35452   0.37074   0.39478
 Alpha virt. eigenvalues --    0.49996   0.50659   0.50853   0.51163   0.52220
 Alpha virt. eigenvalues --    0.53871   0.54911   0.55683   0.57092   0.59481
 Alpha virt. eigenvalues --    0.60006   0.61817   0.62790   0.63846   0.64466
 Alpha virt. eigenvalues --    0.65232   0.65733   0.66851   0.67705   0.69903
 Alpha virt. eigenvalues --    0.70967   0.72279   0.73609   0.74480   0.74888
 Alpha virt. eigenvalues --    0.76559   0.77202   0.78985   0.79729   0.80833
 Alpha virt. eigenvalues --    0.82791   0.84041   0.84699   0.85407   0.85904
 Alpha virt. eigenvalues --    0.86144   0.86320   0.86755   0.88296   0.89904
 Alpha virt. eigenvalues --    0.90882   0.91945   0.92602   0.93084   0.93500
 Alpha virt. eigenvalues --    0.94325   0.96045   0.97339   0.98003   1.01099
 Alpha virt. eigenvalues --    1.02583   1.05089   1.07242   1.09500   1.10339
 Alpha virt. eigenvalues --    1.10493   1.13338   1.16835   1.18006   1.20448
 Alpha virt. eigenvalues --    1.21517   1.23125   1.23954   1.28312   1.29319
 Alpha virt. eigenvalues --    1.34793   1.36577   1.37726   1.43059   1.44894
 Alpha virt. eigenvalues --    1.47638   1.50877   1.51991   1.56115   1.60552
 Alpha virt. eigenvalues --    1.60949   1.63485   1.64291   1.65523   1.66675
 Alpha virt. eigenvalues --    1.69970   1.72544   1.73784   1.74546   1.75905
 Alpha virt. eigenvalues --    1.76745   1.78511   1.80091   1.80337   1.82264
 Alpha virt. eigenvalues --    1.83495   1.85284   1.85457   1.86817   1.88733
 Alpha virt. eigenvalues --    1.90340   1.92078   1.92876   1.99636   2.00346
 Alpha virt. eigenvalues --    2.00862   2.01358   2.04186   2.06444   2.07061
 Alpha virt. eigenvalues --    2.08042   2.08697   2.10329   2.11070   2.13319
 Alpha virt. eigenvalues --    2.14051   2.15509   2.19724   2.21994   2.23600
 Alpha virt. eigenvalues --    2.26393   2.26895   2.29311   2.29917   2.32218
 Alpha virt. eigenvalues --    2.33222   2.35434   2.37380   2.38054   2.39511
 Alpha virt. eigenvalues --    2.40878   2.44160   2.45721   2.46648   2.48933
 Alpha virt. eigenvalues --    2.54021   2.55775   2.58473   2.62673   2.65387
 Alpha virt. eigenvalues --    2.67585   2.69109   2.69682   2.71339   2.73288
 Alpha virt. eigenvalues --    2.73659   2.75285   2.78322   2.79237   2.81133
 Alpha virt. eigenvalues --    2.89017   2.94929   3.01174   3.03267   3.05376
 Alpha virt. eigenvalues --    3.19127   4.00373   4.09799   4.12956   4.20766
 Alpha virt. eigenvalues --    4.25224   4.28556   4.29641   4.33026   4.50022
 Alpha virt. eigenvalues --    4.50801   4.56358   4.71698   4.79381   4.82844
 Alpha virt. eigenvalues --    4.86786
          Condensed to atoms (all electrons):
               1          2          3          4          5          6
     1  O    8.010212   0.579318  -0.073206   0.000940   0.000934   0.000036
     2  C    0.579318   4.518387   0.328011  -0.025670  -0.029946  -0.020175
     3  C   -0.073206   0.328011   5.249307   0.310748   0.335772  -0.028722
     4  C    0.000940  -0.025670   0.310748   5.133887  -0.036490  -0.014277
     5  C    0.000934  -0.029946   0.335772  -0.036490   5.099364   0.374419
     6  C    0.000036  -0.020175  -0.028722  -0.014277   0.374419   4.934699
     7  C    0.000942  -0.030353  -0.008203  -0.002396  -0.049797   0.376193
     8  C   -0.073765   0.328584  -0.125714  -0.006242  -0.007946  -0.027038
     9  C    0.001019  -0.027767  -0.006237  -0.053987  -0.002620  -0.017154
    10  C    0.000118  -0.020497  -0.019039   0.360045  -0.017369  -0.023681
    11  C    0.000000  -0.000040   0.004427  -0.041786  -0.000134   0.002944
    12  O    0.000000  -0.000015   0.000640   0.003281  -0.000012  -0.000053
    13  O    0.000000  -0.000008  -0.000018   0.003219  -0.000006   0.000179
    14  C   -0.000000   0.000000   0.000001  -0.000200   0.000000   0.000004
    15  C   -0.000031  -0.002792  -0.012864  -0.051108  -0.045958   0.366734
    16  H    0.004181  -0.031760   0.347432  -0.031545  -0.031243   0.004177
    17  H    0.000663  -0.001108  -0.038294   0.368493   0.004881   0.000085
    18  H   -0.000077   0.003379  -0.030338   0.361260  -0.005821  -0.000958
    19  H   -0.000082   0.003576  -0.031246  -0.005343   0.360926  -0.033176
    20  H    0.000750  -0.000787  -0.039302   0.004970   0.367858  -0.035189
    21  H   -0.000001   0.000268   0.004672   0.000018  -0.037586   0.370419
    22  H   -0.000082   0.003536  -0.000285   0.000101   0.005191  -0.033377
    23  H    0.000758  -0.000702  -0.000096   0.000061  -0.004167  -0.035146
    24  H    0.004328  -0.031059   0.007088  -0.000131  -0.000071   0.004109
    25  H   -0.000079   0.003321  -0.000348   0.005360   0.000103  -0.000784
    26  H    0.000719  -0.001306   0.000493  -0.005051  -0.000010   0.000043
    27  H    0.000000  -0.000000  -0.000000   0.000005   0.000000  -0.000001
    28  H    0.000000   0.000000  -0.000000   0.000001   0.000000  -0.000000
    29  H    0.000000   0.000000  -0.000000   0.000009  -0.000000   0.000000
    30  H    0.000000   0.000140  -0.000125   0.005344   0.004878  -0.032078
    31  H    0.000000   0.000138  -0.001038  -0.004434  -0.003838  -0.034622
               7          8          9         10         11         12
     1  O    0.000942  -0.073765   0.001019   0.000118   0.000000   0.000000
     2  C   -0.030353   0.328584  -0.027767  -0.020497  -0.000040  -0.000015
     3  C   -0.008203  -0.125714  -0.006237  -0.019039   0.004427   0.000640
     4  C   -0.002396  -0.006242  -0.053987   0.360045  -0.041786   0.003281
     5  C   -0.049797  -0.007946  -0.002620  -0.017369  -0.000134  -0.000012
     6  C    0.376193  -0.027038  -0.017154  -0.023681   0.002944  -0.000053
     7  C    5.096426   0.340551  -0.039469  -0.017328  -0.000000  -0.000002
     8  C    0.340551   5.230301   0.325797  -0.021946   0.002869  -0.000049
     9  C   -0.039469   0.325797   5.145697   0.354261  -0.035505   0.000148
    10  C   -0.017328  -0.021946   0.354261   5.088996   0.345381  -0.075064
    11  C   -0.000000   0.002869  -0.035505   0.345381   4.381788   0.549389
    12  O   -0.000002  -0.000049   0.000148  -0.075064   0.549389   8.064116
    13  O   -0.000003   0.000199   0.001240  -0.102416   0.247860  -0.082776
    14  C   -0.000000   0.000004  -0.000108   0.007949  -0.018691   0.003673
    15  C   -0.046828  -0.015357  -0.045130   0.361641  -0.037987  -0.000346
    16  H   -0.000057   0.007064  -0.000083   0.003729  -0.000101   0.000001
    17  H   -0.000011   0.000222  -0.004945  -0.033138  -0.005151   0.003871
    18  H    0.000103  -0.000267   0.005364  -0.030981  -0.005298   0.004540
    19  H    0.005191  -0.000298   0.000112  -0.001283  -0.000097  -0.000001
    20  H   -0.004257  -0.000074   0.000034   0.000232   0.000015  -0.000000
    21  H   -0.037521   0.004560   0.000155   0.004489  -0.000080   0.000000
    22  H    0.360793  -0.031189  -0.005590  -0.001257  -0.000088   0.000000
    23  H    0.367892  -0.039594   0.005181   0.000187   0.000012  -0.000000
    24  H   -0.030852   0.345999  -0.031822   0.003796  -0.000089   0.000000
    25  H   -0.005875  -0.027861   0.358793  -0.031416  -0.006936   0.000031
    26  H    0.005045  -0.038326   0.366396  -0.037911  -0.002703   0.000569
    27  H    0.000000   0.000001   0.000027   0.000011  -0.005382   0.005959
    28  H   -0.000000  -0.000000  -0.000019  -0.000004   0.004822   0.000760
    29  H    0.000000  -0.000001  -0.000113   0.000031  -0.005427   0.005905
    30  H   -0.003635  -0.001162  -0.004516  -0.034606  -0.006629   0.000024
    31  H    0.005092  -0.000067   0.005477  -0.038997  -0.002277   0.000741
              13         14         15         16         17         18
     1  O    0.000000  -0.000000  -0.000031   0.004181   0.000663  -0.000077
     2  C   -0.000008   0.000000  -0.002792  -0.031760  -0.001108   0.003379
     3  C   -0.000018   0.000001  -0.012864   0.347432  -0.038294  -0.030338
     4  C    0.003219  -0.000200  -0.051108  -0.031545   0.368493   0.361260
     5  C   -0.000006   0.000000  -0.045958  -0.031243   0.004881  -0.005821
     6  C    0.000179   0.000004   0.366734   0.004177   0.000085  -0.000958
     7  C   -0.000003  -0.000000  -0.046828  -0.000057  -0.000011   0.000103
     8  C    0.000199   0.000004  -0.015357   0.007064   0.000222  -0.000267
     9  C    0.001240  -0.000108  -0.045130  -0.000083  -0.004945   0.005364
    10  C   -0.102416   0.007949   0.361641   0.003729  -0.033138  -0.030981
    11  C    0.247860  -0.018691  -0.037987  -0.000101  -0.005151  -0.005298
    12  O   -0.082776   0.003673  -0.000346   0.000001   0.003871   0.004540
    13  O    8.265024   0.209650   0.000820   0.000000   0.000057   0.000059
    14  C    0.209650   4.891653  -0.000121  -0.000000  -0.000009  -0.000009
    15  C    0.000820  -0.000121   5.119047   0.000146   0.005145  -0.004145
    16  H    0.000000  -0.000000   0.000146   0.595457  -0.002594  -0.003832
    17  H    0.000057  -0.000009   0.005145  -0.002594   0.571604  -0.031852
    18  H    0.000059  -0.000009  -0.004145  -0.003832  -0.031852   0.575809
    19  H    0.000000  -0.000000  -0.003667  -0.004022  -0.000059   0.005484
    20  H   -0.000000   0.000000   0.005034  -0.002489  -0.000150  -0.000051
    21  H   -0.000001  -0.000000  -0.039644  -0.000139   0.000017  -0.000078
    22  H   -0.000014   0.000000  -0.003385   0.000023   0.000001  -0.000004
    23  H   -0.000000   0.000000   0.005063  -0.000085  -0.000005   0.000000
    24  H   -0.000001  -0.000000   0.000205  -0.000178  -0.000072   0.000022
    25  H    0.007386  -0.000226  -0.004282   0.000022  -0.000007  -0.000194
    26  H    0.000007  -0.000069   0.005279  -0.000082   0.004435  -0.000006
    27  H   -0.031192   0.373790  -0.000104  -0.000000  -0.000001   0.000001
    28  H   -0.032832   0.377286  -0.000013   0.000000  -0.000000  -0.000000
    29  H   -0.031110   0.374158   0.000021  -0.000000   0.000000  -0.000001
    30  H    0.007217  -0.000241   0.362978   0.000016  -0.000161  -0.000067
    31  H   -0.000047  -0.000062   0.363191  -0.000070  -0.000057   0.004898
              19         20         21         22         23         24
     1  O   -0.000082   0.000750  -0.000001  -0.000082   0.000758   0.004328
     2  C    0.003576  -0.000787   0.000268   0.003536  -0.000702  -0.031059
     3  C   -0.031246  -0.039302   0.004672  -0.000285  -0.000096   0.007088
     4  C   -0.005343   0.004970   0.000018   0.000101   0.000061  -0.000131
     5  C    0.360926   0.367858  -0.037586   0.005191  -0.004167  -0.000071
     6  C   -0.033176  -0.035189   0.370419  -0.033377  -0.035146   0.004109
     7  C    0.005191  -0.004257  -0.037521   0.360793   0.367892  -0.030852
     8  C   -0.000298  -0.000074   0.004560  -0.031189  -0.039594   0.345999
     9  C    0.000112   0.000034   0.000155  -0.005590   0.005181  -0.031822
    10  C   -0.001283   0.000232   0.004489  -0.001257   0.000187   0.003796
    11  C   -0.000097   0.000015  -0.000080  -0.000088   0.000012  -0.000089
    12  O   -0.000001  -0.000000   0.000000   0.000000  -0.000000   0.000000
    13  O    0.000000  -0.000000  -0.000001  -0.000014  -0.000000  -0.000001
    14  C   -0.000000   0.000000  -0.000000   0.000000   0.000000  -0.000000
    15  C   -0.003667   0.005034  -0.039644  -0.003385   0.005063   0.000205
    16  H   -0.004022  -0.002489  -0.000139   0.000023  -0.000085  -0.000178
    17  H   -0.000059  -0.000150   0.000017   0.000001  -0.000005  -0.000072
    18  H    0.005484  -0.000051  -0.000078  -0.000004   0.000000   0.000022
    19  H    0.597145  -0.034800  -0.003149  -0.000199   0.000010   0.000023
    20  H   -0.034800   0.591719  -0.003401   0.000010   0.004234  -0.000085
    21  H   -0.003149  -0.003401   0.621081  -0.003175  -0.003478  -0.000136
    22  H   -0.000199   0.000010  -0.003175   0.598215  -0.034858  -0.003986
    23  H    0.000010   0.004234  -0.003478  -0.034858   0.590932  -0.002584
    24  H    0.000023  -0.000085  -0.000136  -0.003986  -0.002584   0.596090
    25  H   -0.000005   0.000001  -0.000079   0.005484  -0.000045  -0.003864
    26  H    0.000001  -0.000005   0.000017  -0.000064  -0.000158  -0.002544
    27  H   -0.000000  -0.000000   0.000000  -0.000000  -0.000000  -0.000000
    28  H   -0.000000  -0.000000  -0.000000   0.000000   0.000000  -0.000000
    29  H    0.000000   0.000000  -0.000000  -0.000000  -0.000000   0.000000
    30  H   -0.000051  -0.000150  -0.003576   0.004436  -0.000030  -0.000062
    31  H    0.004611  -0.000042  -0.003490  -0.000061  -0.000161   0.000017
              25         26         27         28         29         30
     1  O   -0.000079   0.000719   0.000000   0.000000   0.000000   0.000000
     2  C    0.003321  -0.001306  -0.000000   0.000000   0.000000   0.000140
     3  C   -0.000348   0.000493  -0.000000  -0.000000  -0.000000  -0.000125
     4  C    0.005360  -0.005051   0.000005   0.000001   0.000009   0.005344
     5  C    0.000103  -0.000010   0.000000   0.000000  -0.000000   0.004878
     6  C   -0.000784   0.000043  -0.000001  -0.000000   0.000000  -0.032078
     7  C   -0.005875   0.005045   0.000000  -0.000000   0.000000  -0.003635
     8  C   -0.027861  -0.038326   0.000001  -0.000000  -0.000001  -0.001162
     9  C    0.358793   0.366396   0.000027  -0.000019  -0.000113  -0.004516
    10  C   -0.031416  -0.037911   0.000011  -0.000004   0.000031  -0.034606
    11  C   -0.006936  -0.002703  -0.005382   0.004822  -0.005427  -0.006629
    12  O    0.000031   0.000569   0.005959   0.000760   0.005905   0.000024
    13  O    0.007386   0.000007  -0.031192  -0.032832  -0.031110   0.007217
    14  C   -0.000226  -0.000069   0.373790   0.377286   0.374158  -0.000241
    15  C   -0.004282   0.005279  -0.000104  -0.000013   0.000021   0.362978
    16  H    0.000022  -0.000082  -0.000000   0.000000  -0.000000   0.000016
    17  H   -0.000007   0.004435  -0.000001  -0.000000   0.000000  -0.000161
    18  H   -0.000194  -0.000006   0.000001  -0.000000  -0.000001  -0.000067
    19  H   -0.000005   0.000001  -0.000000  -0.000000   0.000000  -0.000051
    20  H    0.000001  -0.000005  -0.000000  -0.000000   0.000000  -0.000150
    21  H   -0.000079   0.000017   0.000000  -0.000000  -0.000000  -0.003576
    22  H    0.005484  -0.000064  -0.000000   0.000000  -0.000000   0.004436
    23  H   -0.000045  -0.000158  -0.000000   0.000000  -0.000000  -0.000030
    24  H   -0.003864  -0.002544  -0.000000  -0.000000   0.000000  -0.000062
    25  H    0.571834  -0.033294   0.000015  -0.000003   0.000024   0.004510
    26  H   -0.033294   0.586707  -0.000000  -0.000002   0.000015  -0.000058
    27  H    0.000015  -0.000000   0.554334  -0.031477  -0.037283   0.000018
    28  H   -0.000003  -0.000002  -0.031477   0.548107  -0.031396  -0.000000
    29  H    0.000024   0.000015  -0.037283  -0.031396   0.552957   0.000016
    30  H    0.004510  -0.000058   0.000018  -0.000000   0.000016   0.579053
    31  H   -0.000075  -0.000158   0.000017  -0.000002  -0.000000  -0.033276
              31
     1  O    0.000000
     2  C    0.000138
     3  C   -0.001038
     4  C   -0.004434
     5  C   -0.003838
     6  C   -0.034622
     7  C    0.005092
     8  C   -0.000067
     9  C    0.005477
    10  C   -0.038997
    11  C   -0.002277
    12  O    0.000741
    13  O   -0.000047
    14  C   -0.000062
    15  C    0.363191
    16  H   -0.000070
    17  H   -0.000057
    18  H    0.004898
    19  H    0.004611
    20  H   -0.000042
    21  H   -0.003490
    22  H   -0.000061
    23  H   -0.000161
    24  H    0.000017
    25  H   -0.000075
    26  H   -0.000158
    27  H    0.000017
    28  H   -0.000002
    29  H   -0.000000
    30  H   -0.033276
    31  H    0.598806
 Mulliken charges:
               1
     1  O   -0.457597
     2  C    0.455326
     3  C   -0.173516
     4  C   -0.279082
     5  C   -0.281315
     6  C   -0.097613
     7  C   -0.281644
     8  C   -0.169252
     9  C   -0.294634
    10  C   -0.023933
    11  C    0.634893
    12  O   -0.485331
    13  O   -0.462494
    14  C   -0.218433
    15  C   -0.281543
    16  H    0.146027
    17  H    0.158139
    18  H    0.153060
    19  H    0.140398
    20  H    0.145925
    21  H    0.129838
    22  H    0.139826
    23  H    0.146778
    24  H    0.145859
    25  H    0.158490
    26  H    0.152019
    27  H    0.171264
    28  H    0.164772
    29  H    0.172196
    30  H    0.151791
    31  H    0.139784
 Sum of Mulliken charges =  -0.00000
 Mulliken charges with hydrogens summed into heavy atoms:
               1
     1  O   -0.457597
     2  C    0.455326
     3  C   -0.027488
     4  C    0.032117
     5  C    0.005008
     6  C    0.032225
     7  C    0.004961
     8  C   -0.023393
     9  C    0.015874
    10  C   -0.023933
    11  C    0.634893
    12  O   -0.485331
    13  O   -0.462494
    14  C    0.289799
    15  C    0.010033
 APT charges:
               1
     1  O   -0.639698
     2  C    0.695366
     3  C   -0.044573
     4  C    0.095386
     5  C    0.115764
     6  C    0.105198
     7  C    0.115080
     8  C   -0.045161
     9  C    0.103814
    10  C   -0.052997
    11  C    1.054691
    12  O   -0.676258
    13  O   -0.846904
    14  C    0.509236
    15  C    0.078681
    16  H   -0.047992
    17  H   -0.019207
    18  H   -0.022878
    19  H   -0.044582
    20  H   -0.041831
    21  H   -0.072825
    22  H   -0.044513
    23  H   -0.041468
    24  H   -0.051027
    25  H   -0.019550
    26  H   -0.032413
    27  H   -0.027218
    28  H   -0.012400
    29  H   -0.026371
    30  H   -0.023302
    31  H   -0.040045
 Sum of APT charges =   0.00000
 APT charges with hydrogens summed into heavy atoms:
               1
     1  O   -0.639698
     2  C    0.695366
     3  C   -0.092565
     4  C    0.053301
     5  C    0.029350
     6  C    0.032373
     7  C    0.029098
     8  C   -0.096188
     9  C    0.051850
    10  C   -0.052997
    11  C    1.054691
    12  O   -0.676258
    13  O   -0.846904
    14  C    0.443246
    15  C    0.015334
 Electronic spatial extent (au):  <R**2>=           2959.8781
 Charge=             -0.0000 electrons
 Dipole moment (field-independent basis, Debye):
    X=              2.1620    Y=              3.3292    Z=              0.2744  Tot=              3.9791
 Quadrupole moment (field-independent basis, Debye-Ang):
   XX=            -91.2307   YY=            -92.5609   ZZ=            -87.6025
   XY=             -2.5334   XZ=             -8.5806   YZ=             -0.1798
 Traceless Quadrupole moment (field-independent basis, Debye-Ang):
   XX=             -0.7660   YY=             -2.0962   ZZ=              2.8622
   XY=             -2.5334   XZ=             -8.5806   YZ=             -0.1798
 Octapole moment (field-independent basis, Debye-Ang**2):
  XXX=             92.8140  YYY=              1.8603  ZZZ=             -1.4128  XYY=              5.9826
  XXY=             36.4495  XXZ=              1.3035  XZZ=              7.2145  YZZ=              1.6928
  YYZ=             -1.2058  XYZ=             15.1958
 Hexadecapole moment (field-independent basis, Debye-Ang**3):
 XXXX=          -2334.7674 YYYY=           -698.5158 ZZZZ=           -604.1840 XXXY=            -24.3761
 XXXZ=            -97.6670 YYYX=              4.6882 YYYZ=             -0.8585 ZZZX=              5.5531
 ZZZY=             -2.9916 XXYY=           -582.0882 XXZZ=           -526.1791 YYZZ=           -220.8493
 XXYZ=            -14.3003 YYXZ=            -24.2294 ZZXY=              0.1716
 N-N= 1.088160349700D+03 E-N=-3.788603121278D+03  KE= 6.862415349897D+02
  Exact polarizability: 138.712   3.226 113.876  -0.091  -2.486 111.207
 Approx polarizability: 181.284   7.676 179.561   6.039  -6.583 169.906
 Calling FoFJK, ICntrl=    100127 FMM=F ISym2X=0 I1Cent= 0 IOpClX= 0 NMat=1 NMatS=1 NMatT=0.
 Full mass-weighted force constant matrix:
 Low frequencies ---  -13.2387   -0.0009   -0.0008    0.0005    1.0956    6.7770
 Low frequencies ---   32.8457   80.4141  112.0973
 Diagonal vibrational polarizability:
       20.0933351      25.0006967      18.3515524
 Harmonic frequencies (cm**-1), IR intensities (KM/Mole), Raman scattering
 activities (A**4/AMU), depolarization ratios for plane and unpolarized
 incident light, reduced masses (AMU), force constants (mDyne/A),
 and normal coordinates:
                      1                      2                      3
                      A                      A                      A
 Frequencies --     32.8173                80.4138               112.0897
 Red. masses --      6.1383                 6.1561                 3.2843
 Frc consts  --      0.0039                 0.0235                 0.0243
 IR Inten    --      0.8924                 1.7895                 1.8578
  Atom  AN      X      Y      Z        X      Y      Z        X      Y      Z
     1   8     0.02   0.03  -0.09     0.34  -0.27  -0.12     0.11  -0.14   0.01
     2   6     0.01   0.02  -0.05     0.08  -0.02  -0.01    -0.02   0.01   0.03
     3   6    -0.00  -0.05  -0.05    -0.04   0.07   0.03    -0.00   0.04   0.02
     4   6    -0.00  -0.04  -0.05    -0.03   0.08   0.07    -0.01  -0.00  -0.07
     5   6    -0.01  -0.08   0.01    -0.06   0.06   0.01     0.08   0.04   0.05
     6   6    -0.01  -0.04   0.07    -0.04   0.07   0.04     0.05   0.03   0.02
     7   6    -0.00   0.03   0.07    -0.03   0.06   0.04    -0.04   0.05   0.05
     8   6     0.01   0.06   0.01    -0.01   0.07   0.03    -0.09   0.06   0.02
     9   6     0.01   0.07   0.00    -0.00   0.10   0.06    -0.09   0.03  -0.08
    10   6    -0.00  -0.00  -0.00    -0.03   0.08   0.07    -0.02  -0.01  -0.10
    11   6     0.01   0.04   0.05    -0.04   0.01   0.02    -0.03  -0.04  -0.08
    12   8     0.04   0.25   0.36    -0.08  -0.07  -0.08    -0.06   0.00   0.01
    13   8    -0.03  -0.16  -0.23    -0.01  -0.00   0.03     0.01  -0.08  -0.08
    14   6    -0.02  -0.10  -0.16    -0.04  -0.20  -0.18     0.04   0.05   0.23
    15   6    -0.01  -0.03   0.07    -0.04   0.07   0.07     0.05  -0.01  -0.08
    16   1    -0.00  -0.07  -0.09    -0.04   0.05   0.01     0.01   0.05   0.04
    17   1     0.00  -0.02  -0.09    -0.02   0.07   0.09    -0.07   0.00  -0.10
    18   1    -0.01  -0.08  -0.05    -0.05   0.10   0.08     0.05  -0.02  -0.09
    19   1    -0.02  -0.12   0.02    -0.10   0.06   0.02     0.14   0.01   0.03
    20   1    -0.01  -0.08   0.02    -0.06   0.06  -0.02     0.08   0.07   0.13
    21   1    -0.02  -0.06   0.12    -0.05   0.06   0.04     0.11   0.03   0.04
    22   1    -0.00   0.06   0.11    -0.04   0.07   0.04    -0.08   0.05   0.03
    23   1    -0.00   0.03   0.07    -0.03   0.05   0.04    -0.04   0.06   0.13
    24   1     0.02   0.11   0.00     0.02   0.07   0.03    -0.15   0.07   0.04
    25   1     0.01   0.09   0.04     0.00   0.11   0.09    -0.11   0.04  -0.09
    26   1     0.02   0.09  -0.05     0.02   0.11   0.04    -0.14   0.04  -0.12
    27   1    -0.02   0.27  -0.17     0.10  -0.38  -0.23    -0.16   0.34   0.30
    28   1    -0.05  -0.30  -0.44    -0.01  -0.19  -0.14     0.08  -0.06   0.12
    29   1     0.02  -0.25   0.18    -0.24  -0.18  -0.33     0.21  -0.04   0.52
    30   1    -0.01  -0.01   0.10    -0.03   0.08   0.08     0.03  -0.02  -0.11
    31   1    -0.02  -0.08   0.07    -0.06   0.07   0.07     0.11  -0.02  -0.10
                      4                      5                      6
                      A                      A                      A
 Frequencies --    133.5801               137.5277               223.2141
 Red. masses --      1.7345                 1.7326                 3.8812
 Frc consts  --      0.0182                 0.0193                 0.1139
 IR Inten    --      0.6298                 0.7447                 4.3071
  Atom  AN      X      Y      Z        X      Y      Z        X      Y      Z
     1   8     0.03  -0.01  -0.03    -0.04   0.03   0.03     0.01  -0.05  -0.01
     2   6     0.00   0.02  -0.01     0.01  -0.02   0.00    -0.05   0.02  -0.00
     3   6    -0.04   0.02   0.01     0.04  -0.03  -0.01    -0.02   0.02  -0.01
     4   6    -0.04  -0.02   0.04     0.04   0.03  -0.02    -0.04  -0.08  -0.13
     5   6    -0.02   0.04  -0.02    -0.01  -0.04   0.00     0.14   0.02   0.06
     6   6     0.04   0.01   0.00    -0.05  -0.01  -0.00     0.09   0.01  -0.01
     7   6     0.08   0.02  -0.01    -0.07  -0.03  -0.00    -0.00   0.01   0.02
     8   6     0.03   0.01   0.01    -0.00  -0.02  -0.01    -0.05   0.01  -0.01
     9   6     0.01  -0.05   0.03     0.01   0.05  -0.01    -0.04  -0.04  -0.08
    10   6    -0.01  -0.05   0.04     0.01   0.06  -0.01    -0.02  -0.06  -0.08
    11   6    -0.01  -0.04   0.01     0.01   0.04   0.00    -0.01   0.02   0.08
    12   8     0.04  -0.05  -0.05    -0.04  -0.02  -0.05    -0.01   0.05   0.12
    13   8    -0.07   0.01   0.01     0.07   0.03   0.05    -0.01   0.15   0.25
    14   6    -0.06   0.12  -0.05     0.05  -0.11   0.02    -0.05  -0.03  -0.10
    15   6     0.02  -0.04   0.04    -0.03   0.05  -0.01     0.06  -0.04  -0.11
    16   1    -0.07   0.04   0.00     0.06  -0.05  -0.01    -0.04   0.05   0.01
    17   1    -0.06  -0.03   0.06     0.08   0.04  -0.02    -0.13  -0.05  -0.24
    18   1    -0.06  -0.01   0.05     0.05   0.03  -0.02     0.02  -0.21  -0.15
    19   1    -0.06   0.04  -0.00     0.01  -0.04  -0.00     0.31  -0.03   0.01
    20   1    -0.01   0.07  -0.05    -0.01  -0.08   0.02     0.16   0.07   0.23
    21   1     0.06   0.02  -0.01    -0.09  -0.02  -0.00     0.14   0.01  -0.01
    22   1     0.13  -0.01  -0.00    -0.11   0.00  -0.00    -0.04   0.02  -0.01
    23   1     0.09   0.08  -0.04    -0.08  -0.09   0.01    -0.01   0.01   0.08
    24   1     0.04   0.01  -0.00    -0.00  -0.03  -0.01    -0.08   0.04  -0.00
    25   1     0.05  -0.09   0.03    -0.02   0.08   0.00    -0.04  -0.06  -0.09
    26   1    -0.02  -0.07   0.05     0.06   0.07  -0.02    -0.10  -0.05  -0.09
    27   1     0.05   0.63  -0.10     0.15   0.34  -0.03     0.23  -0.06  -0.21
    28   1    -0.18  -0.13  -0.46     0.07  -0.43  -0.40    -0.10  -0.10  -0.24
    29   1    -0.02  -0.07   0.39    -0.09  -0.35   0.47    -0.30  -0.07  -0.15
    30   1     0.06  -0.06   0.05    -0.07   0.07  -0.02     0.06  -0.09  -0.18
    31   1    -0.00  -0.06   0.05    -0.03   0.07  -0.01     0.13  -0.01  -0.13
                      7                      8                      9
                      A                      A                      A
 Frequencies --    268.2513               275.6960               305.5885
 Red. masses --      2.7980                 2.3738                 4.8900
 Frc consts  --      0.1186                 0.1063                 0.2690
 IR Inten    --      1.9539                 2.0887                 0.6052
  Atom  AN      X      Y      Z        X      Y      Z        X      Y      Z
     1   8    -0.03  -0.08   0.07    -0.01  -0.04   0.12    -0.05  -0.06  -0.05
     2   6    -0.06  -0.01   0.03     0.02  -0.02   0.04    -0.12   0.01  -0.02
     3   6    -0.01   0.00   0.00     0.01   0.04   0.02    -0.13   0.07  -0.00
     4   6    -0.00  -0.03  -0.05    -0.02  -0.06  -0.13    -0.10   0.01  -0.00
     5   6    -0.10   0.02  -0.07     0.01   0.06  -0.02    -0.11   0.08  -0.01
     6   6     0.02  -0.00   0.02     0.00   0.03  -0.06    -0.04   0.02  -0.01
     7   6     0.14   0.07  -0.02    -0.00  -0.04  -0.07    -0.17   0.01   0.04
     8   6    -0.07   0.01   0.01     0.03  -0.05  -0.03    -0.09   0.02   0.03
     9   6    -0.07  -0.04  -0.03     0.08   0.17  -0.02    -0.05   0.03   0.03
    10   6    -0.01  -0.01  -0.04     0.00   0.01   0.00     0.04  -0.05   0.01
    11   6     0.02   0.08  -0.05    -0.01  -0.03   0.02     0.17  -0.08   0.03
    12   8     0.05   0.10  -0.04    -0.03  -0.04   0.02     0.20  -0.06   0.03
    13   8     0.06   0.10  -0.00    -0.03  -0.04   0.00     0.19  -0.06   0.05
    14   6     0.05  -0.10   0.04    -0.02   0.04  -0.02     0.23   0.08  -0.09
    15   6    -0.01  -0.09   0.11    -0.01  -0.04   0.10    -0.02  -0.04  -0.02
    16   1     0.01   0.00   0.03     0.00   0.06   0.05    -0.12   0.08   0.03
    17   1    -0.06  -0.02  -0.08    -0.15   0.01  -0.33    -0.18  -0.01   0.01
    18   1     0.03  -0.07  -0.06     0.07  -0.29  -0.17    -0.14  -0.02   0.01
    19   1    -0.29   0.07  -0.02     0.01   0.11  -0.02    -0.17   0.07   0.00
    20   1    -0.11   0.01  -0.27     0.00   0.03  -0.02    -0.10   0.14  -0.07
    21   1     0.04  -0.01   0.03    -0.00   0.05  -0.11     0.04   0.04  -0.01
    22   1     0.37  -0.07   0.01    -0.02  -0.05  -0.10    -0.33   0.07  -0.02
    23   1     0.20   0.31  -0.12    -0.01  -0.05  -0.05    -0.21  -0.11   0.16
    24   1    -0.10   0.02   0.02     0.03  -0.10  -0.03    -0.05   0.03   0.01
    25   1    -0.09  -0.07  -0.09    -0.03   0.39   0.16    -0.09   0.07   0.05
    26   1    -0.10  -0.07   0.01     0.29   0.30  -0.19    -0.08   0.07  -0.06
    27   1     0.02  -0.14   0.05    -0.00   0.06  -0.03     0.34   0.12  -0.13
    28   1     0.18  -0.16   0.04    -0.08   0.08  -0.02     0.07   0.14  -0.12
    29   1    -0.08  -0.14   0.06     0.04   0.06  -0.04     0.30   0.12  -0.13
    30   1     0.08  -0.03   0.29     0.11  -0.02   0.26    -0.02  -0.04  -0.02
    31   1    -0.11  -0.28   0.14    -0.18  -0.15   0.16    -0.05   0.00  -0.01
                     10                     11                     12
                      A                      A                      A
 Frequencies --    327.1119               363.1145               375.2395
 Red. masses --      3.4448                 4.4355                 3.5286
 Frc consts  --      0.2172                 0.3446                 0.2927
 IR Inten    --     12.6438                 4.6832                 0.2999
  Atom  AN      X      Y      Z        X      Y      Z        X      Y      Z
     1   8     0.01   0.02  -0.09     0.11   0.09   0.10    -0.13  -0.09  -0.03
     2   6    -0.03   0.01  -0.02     0.13   0.08   0.05    -0.08  -0.11  -0.07
     3   6    -0.10   0.07   0.03     0.11  -0.02   0.04     0.01  -0.06  -0.09
     4   6    -0.10  -0.06  -0.02     0.06  -0.10   0.08     0.02   0.05   0.09
     5   6     0.06   0.07   0.11    -0.08   0.00  -0.09     0.08  -0.01  -0.14
     6   6    -0.00   0.02  -0.02    -0.06  -0.00  -0.07     0.17   0.01  -0.03
     7   6    -0.06  -0.10  -0.01    -0.14   0.11  -0.03    -0.01   0.00   0.03
     8   6     0.06  -0.07  -0.00    -0.01   0.13  -0.01    -0.09  -0.02   0.01
     9   6     0.06  -0.02   0.06    -0.01   0.06  -0.04    -0.04   0.15   0.06
    10   6    -0.01  -0.03   0.07    -0.01  -0.15  -0.04     0.02   0.01   0.06
    11   6     0.01   0.06  -0.03     0.01  -0.06   0.00    -0.01  -0.02   0.01
    12   8     0.17   0.10  -0.11     0.17   0.01  -0.00     0.08   0.01  -0.00
    13   8    -0.04   0.07  -0.08    -0.08   0.02   0.04    -0.07   0.02   0.02
    14   6    -0.06  -0.13   0.10    -0.11  -0.07   0.05    -0.09  -0.04   0.04
    15   6    -0.01  -0.01   0.03    -0.06  -0.12  -0.11     0.16   0.04   0.01
    16   1    -0.14   0.10   0.04     0.03  -0.01  -0.03     0.01  -0.00   0.01
    17   1    -0.20  -0.02  -0.15     0.01  -0.15   0.18     0.18  -0.00   0.27
    18   1    -0.09  -0.23  -0.03     0.12   0.02   0.07    -0.12   0.25   0.15
    19   1     0.27   0.03   0.04    -0.26   0.14  -0.03    -0.03  -0.07  -0.11
    20   1     0.08   0.12   0.32    -0.10  -0.11  -0.31     0.10   0.10  -0.23
    21   1     0.01   0.06  -0.10     0.06  -0.02   0.01     0.13  -0.01   0.01
    22   1    -0.19  -0.03  -0.05    -0.26   0.20  -0.02    -0.09  -0.04  -0.10
    23   1    -0.09  -0.24   0.04    -0.17  -0.03   0.04    -0.01   0.03   0.22
    24   1     0.11  -0.09  -0.02    -0.06   0.04   0.01    -0.03   0.05  -0.01
    25   1     0.06   0.00   0.10     0.05   0.12   0.11    -0.15   0.34   0.21
    26   1     0.11  -0.01   0.06    -0.09   0.14  -0.23     0.13   0.27  -0.11
    27   1    -0.20  -0.18   0.16    -0.12  -0.11   0.06    -0.11  -0.06   0.05
    28   1     0.15  -0.20   0.15    -0.04  -0.11   0.05    -0.03  -0.06   0.04
    29   1    -0.15  -0.17   0.16    -0.19  -0.10   0.07    -0.13  -0.05   0.05
    30   1     0.04  -0.05   0.03    -0.04  -0.17  -0.16     0.19  -0.02  -0.04
    31   1    -0.06   0.01   0.05    -0.06  -0.05  -0.11     0.16   0.08   0.01
                     13                     14                     15
                      A                      A                      A
 Frequencies --    388.8124               428.9812               446.1385
 Red. masses --      3.2018                 2.1764                 1.8207
 Frc consts  --      0.2852                 0.2360                 0.2135
 IR Inten    --      0.5992                 1.5679                 0.8446
  Atom  AN      X      Y      Z        X      Y      Z        X      Y      Z
     1   8    -0.01  -0.04   0.01     0.02   0.04  -0.05     0.00  -0.01  -0.01
     2   6    -0.05   0.02   0.00     0.02   0.01  -0.02    -0.02   0.02   0.00
     3   6     0.07  -0.07  -0.04     0.06   0.01  -0.01    -0.04  -0.02   0.02
     4   6     0.05  -0.12  -0.05     0.05  -0.01   0.09    -0.03   0.03   0.09
     5   6     0.12  -0.05  -0.06     0.10   0.03  -0.01     0.05  -0.05   0.10
     6   6    -0.06   0.08  -0.09     0.03   0.02  -0.07    -0.06  -0.05  -0.03
     7   6    -0.01   0.14  -0.10    -0.10  -0.01  -0.04     0.07   0.03  -0.09
     8   6    -0.08   0.08   0.03    -0.04   0.01  -0.03    -0.03   0.01  -0.04
     9   6    -0.08  -0.03   0.15    -0.07  -0.03   0.01    -0.01   0.09  -0.04
    10   6    -0.00   0.03   0.14    -0.01  -0.03  -0.00    -0.03  -0.03  -0.02
    11   6     0.02  -0.00   0.06    -0.02   0.02  -0.03     0.01  -0.02  -0.01
    12   8     0.06  -0.04  -0.02    -0.09   0.02   0.01     0.04   0.00   0.00
    13   8    -0.00  -0.05  -0.02     0.04   0.02  -0.00     0.02  -0.01   0.01
    14   6     0.01   0.00   0.01     0.04   0.02  -0.02     0.03  -0.00  -0.00
    15   6    -0.06   0.11   0.02    -0.01  -0.11   0.13    -0.06  -0.03  -0.02
    16   1     0.04  -0.03  -0.02     0.02   0.05   0.01    -0.05  -0.04  -0.01
    17   1     0.06  -0.01  -0.31     0.10  -0.07   0.23     0.04  -0.05   0.30
    18   1     0.02  -0.40  -0.06     0.01   0.16   0.11    -0.07   0.26   0.12
    19   1     0.30  -0.01  -0.11     0.23   0.05  -0.05     0.34  -0.07   0.01
    20   1     0.10  -0.15   0.13     0.09   0.01   0.12     0.05  -0.05   0.39
    21   1    -0.14   0.03  -0.02     0.05   0.03  -0.09    -0.06  -0.05  -0.03
    22   1     0.13   0.05  -0.09    -0.27   0.05  -0.12     0.34  -0.08   0.02
    23   1     0.02   0.27  -0.18    -0.13  -0.14   0.11     0.14   0.26  -0.26
    24   1     0.02   0.01  -0.00    -0.04  -0.03  -0.04    -0.05  -0.03  -0.04
    25   1    -0.02  -0.16   0.05    -0.02  -0.10  -0.03    -0.07   0.25   0.11
    26   1    -0.18  -0.11   0.26    -0.12  -0.07   0.05     0.11   0.19  -0.20
    27   1    -0.02   0.02   0.02     0.06   0.02  -0.02     0.04   0.00  -0.01
    28   1    -0.01   0.02   0.02     0.03   0.02  -0.02     0.01   0.00  -0.01
    29   1     0.06   0.01   0.01     0.03   0.02  -0.03     0.03   0.00  -0.01
    30   1    -0.01   0.03  -0.04     0.23  -0.07   0.44    -0.07  -0.02  -0.01
    31   1    -0.14   0.24   0.04    -0.29  -0.37   0.22    -0.07  -0.03  -0.02
                     16                     17                     18
                      A                      A                      A
 Frequencies --    456.7411               498.0686               615.7457
 Red. masses --      3.9267                 3.8810                 5.3037
 Frc consts  --      0.4826                 0.5672                 1.1848
 IR Inten    --      9.6097                 2.8703                 0.9076
  Atom  AN      X      Y      Z        X      Y      Z        X      Y      Z
     1   8    -0.04  -0.12   0.20     0.01   0.06  -0.16    -0.17  -0.11  -0.07
     2   6     0.00   0.07  -0.14    -0.03  -0.04   0.07    -0.04  -0.20  -0.10
     3   6     0.02   0.11  -0.18     0.07  -0.00   0.08     0.11   0.04  -0.01
     4   6    -0.01   0.12  -0.04     0.11   0.15  -0.10     0.12  -0.08   0.02
     5   6     0.02  -0.04   0.04    -0.01   0.03   0.04     0.03   0.16   0.02
     6   6    -0.03  -0.01   0.06    -0.04   0.03  -0.01    -0.11   0.25   0.10
     7   6    -0.03   0.01   0.03     0.00  -0.04  -0.02     0.01   0.13   0.12
     8   6     0.03   0.07  -0.17    -0.08  -0.07   0.07     0.11   0.01   0.07
     9   6     0.04  -0.07  -0.06    -0.06  -0.02  -0.11     0.15  -0.05  -0.06
    10   6     0.02   0.04  -0.01     0.05   0.10  -0.10     0.00  -0.10  -0.05
    11   6     0.02  -0.05   0.04     0.03  -0.09   0.05     0.01   0.02   0.02
    12   8     0.12  -0.03   0.00     0.16  -0.06   0.03    -0.03  -0.01  -0.01
    13   8    -0.05  -0.04   0.02    -0.08  -0.07   0.06    -0.01  -0.00  -0.02
    14   6    -0.07  -0.02   0.02    -0.11  -0.02   0.02    -0.01  -0.00  -0.00
    15   6    -0.02   0.01   0.09    -0.01   0.05   0.07    -0.18  -0.06  -0.06
    16   1     0.01   0.03  -0.31     0.24  -0.04   0.22     0.14   0.16   0.22
    17   1     0.05   0.09   0.08     0.12   0.16  -0.11     0.11  -0.16   0.19
    18   1    -0.13   0.23   0.01     0.22   0.16  -0.14     0.15   0.10   0.02
    19   1     0.17  -0.20  -0.01    -0.01   0.10   0.04     0.12   0.10  -0.01
    20   1     0.02  -0.04   0.21    -0.03  -0.03   0.03    -0.01  -0.01   0.14
    21   1    -0.06  -0.01   0.04    -0.08   0.05  -0.05     0.06   0.26   0.15
    22   1    -0.12   0.13   0.11     0.08  -0.12  -0.06     0.08   0.07   0.11
    23   1    -0.06  -0.09   0.07     0.02   0.05  -0.07     0.01   0.10  -0.09
    24   1     0.11   0.22  -0.21    -0.20  -0.13   0.11     0.16   0.25   0.05
    25   1     0.15  -0.25  -0.18    -0.16  -0.08  -0.29     0.15   0.05   0.08
    26   1    -0.08  -0.19   0.12    -0.11  -0.08  -0.00     0.16   0.03  -0.21
    27   1    -0.07  -0.02   0.02    -0.09  -0.02   0.01    -0.02   0.00   0.01
    28   1    -0.07  -0.01   0.02    -0.15  -0.01   0.02     0.00  -0.00   0.01
    29   1    -0.05  -0.01   0.02    -0.10  -0.01   0.02    -0.00  -0.00   0.01
    30   1     0.01   0.09   0.23     0.05   0.18   0.32    -0.11  -0.10  -0.04
    31   1    -0.10  -0.12   0.11    -0.16  -0.18   0.12    -0.13  -0.11  -0.07
                     19                     20                     21
                      A                      A                      A
 Frequencies --    636.8441               665.8539               716.1625
 Red. masses --      3.5577                 5.2531                 4.0257
 Frc consts  --      0.8501                 1.3722                 1.2165
 IR Inten    --      2.9084                 3.6483                 2.4866
  Atom  AN      X      Y      Z        X      Y      Z        X      Y      Z
     1   8    -0.00   0.02  -0.04    -0.04  -0.08  -0.05     0.07   0.06   0.04
     2   6     0.02   0.05  -0.13    -0.20   0.10   0.02     0.08   0.04   0.03
     3   6     0.17   0.15  -0.03     0.03   0.08   0.03     0.04   0.11  -0.22
     4   6     0.13  -0.07   0.05     0.14   0.16  -0.09    -0.04   0.10  -0.11
     5   6    -0.05   0.09   0.12    -0.09  -0.01   0.09     0.05   0.01  -0.13
     6   6    -0.02  -0.02   0.08    -0.00  -0.19  -0.09    -0.05   0.04   0.01
     7   6     0.03  -0.15   0.01    -0.06   0.07  -0.08     0.02  -0.10   0.09
     8   6    -0.13  -0.05  -0.16     0.03   0.07   0.04    -0.01  -0.11   0.23
     9   6    -0.14   0.01   0.05     0.10   0.01   0.21    -0.07  -0.02   0.15
    10   6    -0.01  -0.04   0.07     0.18  -0.01   0.02    -0.00  -0.04  -0.03
    11   6     0.00  -0.01  -0.02     0.07   0.02   0.00     0.01  -0.02  -0.04
    12   8    -0.01  -0.00   0.01    -0.09  -0.04   0.03     0.00   0.00   0.01
    13   8    -0.00  -0.00   0.01    -0.03   0.07  -0.05    -0.00   0.01   0.01
    14   6     0.00  -0.00   0.00    -0.07   0.00   0.01     0.00  -0.00   0.00
    15   6    -0.01  -0.00   0.02     0.03  -0.21  -0.10    -0.10  -0.09  -0.06
    16   1     0.11   0.12  -0.13     0.29  -0.09   0.07     0.06   0.12  -0.19
    17   1    -0.00  -0.02  -0.12     0.07   0.15  -0.10    -0.00   0.02   0.09
    18   1     0.18  -0.26   0.03     0.13   0.09  -0.09    -0.24   0.27  -0.03
    19   1    -0.25   0.11   0.18    -0.03   0.10   0.08     0.23  -0.22  -0.19
    20   1    -0.07  -0.01  -0.11    -0.09   0.00   0.10     0.04  -0.04   0.10
    21   1     0.01   0.09  -0.15     0.26  -0.16  -0.05     0.02   0.04   0.02
    22   1     0.23  -0.24   0.08    -0.01   0.12   0.04     0.20  -0.31  -0.01
    23   1     0.09   0.09  -0.05    -0.06   0.10  -0.08     0.06   0.03  -0.09
    24   1    -0.06   0.05  -0.19     0.32  -0.03  -0.06     0.03  -0.08   0.22
    25   1    -0.19   0.15   0.18     0.09  -0.02   0.16    -0.27   0.15   0.19
    26   1     0.03   0.10  -0.05     0.04   0.01   0.21     0.01   0.08  -0.01
    27   1     0.01   0.00  -0.00    -0.15  -0.03   0.04     0.00  -0.01  -0.00
    28   1    -0.01   0.00  -0.00     0.06  -0.05   0.03     0.01  -0.01  -0.00
    29   1    -0.00   0.00  -0.00    -0.13  -0.03   0.04    -0.02  -0.00   0.00
    30   1    -0.16  -0.07  -0.23    -0.04  -0.14  -0.07    -0.10  -0.09  -0.06
    31   1     0.19   0.22  -0.05    -0.03  -0.14  -0.08    -0.09  -0.09  -0.06
                     22                     23                     24
                      A                      A                      A
 Frequencies --    744.1802               781.0958               793.2898
 Red. masses --      7.0251                 4.1042                 3.9545
 Frc consts  --      2.2922                 1.4753                 1.4663
 IR Inten    --      4.7464                 2.3818                 4.9253
  Atom  AN      X      Y      Z        X      Y      Z        X      Y      Z
     1   8     0.03   0.01  -0.01     0.05  -0.02  -0.00    -0.01   0.06   0.02
     2   6    -0.05   0.07   0.04    -0.17   0.19   0.07     0.23  -0.19  -0.06
     3   6     0.02   0.03   0.00    -0.02   0.01  -0.07    -0.04  -0.01  -0.04
     4   6     0.00   0.00   0.01     0.04  -0.14   0.03    -0.06   0.03   0.02
     5   6     0.09   0.02  -0.08     0.01  -0.04  -0.02    -0.10   0.02   0.07
     6   6     0.08  -0.12  -0.04    -0.05   0.08   0.03     0.00   0.04   0.02
     7   6     0.05  -0.06   0.10     0.01  -0.04  -0.01    -0.10   0.09  -0.05
     8   6    -0.10   0.00  -0.01    -0.03  -0.04   0.04    -0.08  -0.04  -0.00
     9   6     0.01  -0.02  -0.15     0.06  -0.06  -0.12    -0.04   0.02  -0.04
    10   6    -0.02   0.05   0.07     0.14  -0.08  -0.01     0.09  -0.00   0.03
    11   6     0.04   0.33   0.48     0.13  -0.03   0.01     0.12   0.03   0.11
    12   8    -0.00  -0.07  -0.13    -0.06  -0.12   0.08    -0.04  -0.11   0.05
    13   8    -0.01  -0.09  -0.09    -0.01   0.14  -0.10    -0.01   0.12  -0.11
    14   6     0.01  -0.00  -0.00    -0.05   0.01  -0.00    -0.03   0.01  -0.01
    15   6    -0.14  -0.12  -0.08     0.03   0.13   0.07     0.10  -0.05  -0.01
    16   1    -0.02   0.09   0.04    -0.10   0.05  -0.10    -0.05  -0.07  -0.13
    17   1     0.06   0.02   0.01     0.09  -0.23   0.27    -0.16   0.07  -0.13
    18   1    -0.06   0.01   0.03    -0.18   0.08   0.11    -0.06  -0.18   0.01
    19   1    -0.01   0.09  -0.05    -0.08  -0.05   0.00     0.12  -0.17   0.00
    20   1     0.11   0.10  -0.21    -0.01  -0.11  -0.09    -0.09   0.07   0.32
    21   1     0.16  -0.11  -0.03    -0.23   0.06   0.00     0.17   0.05   0.06
    22   1     0.04  -0.04   0.12    -0.07  -0.02  -0.06     0.14  -0.11  -0.11
    23   1     0.06   0.01   0.24    -0.02  -0.14  -0.04    -0.03   0.35  -0.14
    24   1    -0.28   0.07   0.05    -0.13  -0.05   0.08    -0.14  -0.16   0.02
    25   1    -0.08   0.07  -0.13    -0.15   0.15  -0.04    -0.03  -0.08  -0.17
    26   1     0.08   0.01  -0.17     0.16   0.06  -0.33    -0.16  -0.04   0.04
    27   1    -0.09   0.04   0.03    -0.19  -0.07   0.05    -0.18  -0.05   0.05
    28   1    -0.02   0.05   0.05     0.23  -0.10   0.04     0.22  -0.08   0.05
    29   1     0.15   0.02   0.02    -0.18  -0.05   0.07    -0.13  -0.05   0.07
    30   1    -0.13  -0.12  -0.06     0.01   0.14   0.07     0.11  -0.05  -0.01
    31   1    -0.17  -0.08  -0.06     0.02   0.15   0.08     0.11  -0.03  -0.01
                     25                     26                     27
                      A                      A                      A
 Frequencies --    811.4077               857.2742               891.9625
 Red. masses --      2.9831                 2.6823                 3.5660
 Frc consts  --      1.1572                 1.1614                 1.6716
 IR Inten    --      1.4517                 1.6942                 6.5832
  Atom  AN      X      Y      Z        X      Y      Z        X      Y      Z
     1   8     0.03   0.00   0.00     0.00   0.02  -0.04     0.00   0.01   0.00
     2   6    -0.04   0.07   0.03    -0.01  -0.02   0.04     0.01   0.01   0.00
     3   6     0.02  -0.05  -0.08     0.08   0.13   0.06    -0.07   0.09  -0.07
     4   6     0.02  -0.00  -0.06    -0.08   0.09   0.02     0.09  -0.10   0.09
     5   6    -0.08  -0.05   0.12     0.11  -0.09  -0.10    -0.06   0.04  -0.05
     6   6     0.03   0.17   0.09    -0.01  -0.04   0.09    -0.04  -0.10  -0.03
     7   6    -0.05   0.07  -0.13    -0.08   0.13  -0.01    -0.10   0.04   0.04
     8   6    -0.01  -0.10  -0.00    -0.06  -0.10  -0.09    -0.07  -0.05   0.07
     9   6     0.02  -0.05   0.03     0.07  -0.08  -0.02     0.11  -0.02  -0.07
    10   6    -0.05  -0.02  -0.01    -0.03  -0.02   0.04     0.18   0.01   0.01
    11   6    -0.06   0.09   0.08    -0.02  -0.03  -0.03    -0.02   0.06  -0.08
    12   8     0.01   0.05  -0.07     0.00   0.00   0.01    -0.03   0.11  -0.06
    13   8     0.00  -0.09   0.04    -0.00   0.03  -0.01     0.03  -0.14   0.10
    14   6     0.02  -0.01   0.00     0.03  -0.00  -0.00    -0.10  -0.01   0.02
    15   6     0.10  -0.04  -0.01    -0.01  -0.01   0.03     0.08   0.03   0.02
    16   1     0.07  -0.17  -0.19     0.15   0.21   0.26    -0.20   0.15  -0.13
    17   1     0.17  -0.04   0.10    -0.30   0.11  -0.12    -0.03  -0.07  -0.02
    18   1    -0.07   0.19  -0.02    -0.04  -0.11  -0.00     0.02  -0.26   0.11
    19   1    -0.20  -0.19   0.15    -0.05  -0.10  -0.04     0.22  -0.07  -0.14
    20   1    -0.10  -0.14   0.03     0.10  -0.17  -0.23    -0.04   0.15   0.25
    21   1     0.11   0.18   0.11    -0.07  -0.17   0.34     0.02  -0.13   0.05
    22   1    -0.13   0.02  -0.28     0.02   0.11   0.07     0.19  -0.11   0.10
    23   1    -0.08  -0.02  -0.15    -0.06   0.22  -0.02    -0.03   0.33  -0.07
    24   1     0.01  -0.27  -0.01    -0.12  -0.28  -0.07    -0.14  -0.11   0.10
    25   1    -0.09   0.11   0.13     0.05   0.07   0.16    -0.00  -0.02  -0.17
    26   1     0.20   0.03  -0.07     0.31   0.00  -0.09     0.08  -0.04  -0.06
    27   1     0.08   0.04  -0.02     0.02  -0.01   0.00     0.06   0.07  -0.04
    28   1    -0.14   0.06  -0.01     0.05  -0.01  -0.00    -0.35   0.09  -0.03
    29   1     0.12   0.03  -0.04     0.00  -0.01   0.00     0.05   0.06  -0.06
    30   1     0.23  -0.16  -0.04    -0.07  -0.01  -0.03    -0.03   0.16   0.09
    31   1     0.23  -0.14  -0.05     0.08   0.01  -0.00    -0.01   0.07   0.05
                     28                     29                     30
                      A                      A                      A
 Frequencies --    901.6319               904.2558               919.3393
 Red. masses --      1.5856                 1.5764                 2.4455
 Frc consts  --      0.7594                 0.7594                 1.2178
 IR Inten    --      2.2488                 0.5874                 5.3347
  Atom  AN      X      Y      Z        X      Y      Z        X      Y      Z
     1   8     0.00   0.00  -0.01     0.00   0.00  -0.00    -0.03  -0.02  -0.02
     2   6    -0.01  -0.03   0.06     0.00  -0.01   0.02    -0.02  -0.03  -0.02
     3   6     0.00   0.02  -0.02     0.00   0.00  -0.00     0.09   0.12   0.04
     4   6     0.04   0.01  -0.04    -0.04  -0.08  -0.08    -0.08   0.01   0.04
     5   6    -0.06   0.03  -0.06     0.09   0.04   0.02     0.00  -0.09  -0.02
     6   6    -0.01  -0.02   0.02    -0.00  -0.03   0.04    -0.08   0.01  -0.01
     7   6     0.07   0.02  -0.05    -0.09  -0.03  -0.03    -0.01  -0.08  -0.06
     8   6     0.00   0.01  -0.01    -0.01  -0.00  -0.01     0.08   0.10   0.09
     9   6    -0.02   0.03  -0.05     0.05   0.10   0.02    -0.06   0.05  -0.03
    10   6    -0.00  -0.02   0.04     0.01   0.01  -0.02     0.03  -0.07  -0.03
    11   6    -0.01   0.00  -0.01     0.00   0.00   0.00    -0.01   0.06   0.07
    12   8    -0.00   0.01  -0.00     0.00  -0.00  -0.00    -0.01   0.02  -0.03
    13   8    -0.00  -0.00   0.00     0.00  -0.00   0.00     0.00  -0.03   0.00
    14   6     0.01  -0.00   0.00    -0.01   0.00   0.00    -0.00  -0.00   0.00
    15   6    -0.01  -0.07   0.13    -0.01  -0.02   0.04     0.13   0.01   0.02
    16   1     0.10   0.03   0.11    -0.05   0.09   0.07     0.18   0.16   0.20
    17   1     0.03  -0.03   0.06     0.13  -0.21   0.30    -0.36  -0.04   0.03
    18   1    -0.01   0.10  -0.02    -0.15   0.35  -0.02    -0.04  -0.07   0.02
    19   1     0.28  -0.04  -0.17    -0.20   0.08   0.11    -0.00  -0.10  -0.02
    20   1    -0.06  -0.00   0.29     0.08   0.03  -0.27    -0.05  -0.32  -0.01
    21   1    -0.00  -0.01   0.01     0.00  -0.01   0.00    -0.25  -0.00  -0.05
    22   1    -0.23   0.17  -0.12     0.19  -0.15   0.06     0.04  -0.11  -0.06
    23   1    -0.00  -0.22   0.17    -0.02   0.24  -0.17    -0.01  -0.15  -0.29
    24   1    -0.11  -0.09   0.03     0.03  -0.13  -0.03     0.19   0.24   0.05
    25   1     0.03  -0.05  -0.11     0.18  -0.20  -0.25    -0.00  -0.05  -0.11
    26   1    -0.05  -0.03   0.06    -0.18  -0.10   0.32    -0.36   0.03  -0.09
    27   1     0.01   0.00  -0.00    -0.00   0.00  -0.00     0.02   0.02  -0.01
    28   1    -0.01   0.00  -0.00    -0.01   0.00   0.00    -0.05   0.02   0.00
    29   1     0.01   0.00  -0.00    -0.00   0.00  -0.00     0.04   0.01  -0.01
    30   1    -0.31  -0.17  -0.34    -0.09  -0.05  -0.10     0.20  -0.05  -0.00
    31   1     0.37   0.35   0.00     0.09   0.12   0.01     0.18  -0.04   0.01
                     31                     32                     33
                      A                      A                      A
 Frequencies --    952.9286               980.8611               984.0524
 Red. masses --      2.3669                 2.3323                 2.3481
 Frc consts  --      1.2663                 1.3220                 1.3397
 IR Inten    --      1.7324                 7.1099                 1.9167
  Atom  AN      X      Y      Z        X      Y      Z        X      Y      Z
     1   8     0.00   0.00  -0.01    -0.02   0.00  -0.00     0.01   0.02   0.01
     2   6    -0.01  -0.00   0.03     0.06  -0.07  -0.02     0.03  -0.01  -0.01
     3   6     0.10  -0.04  -0.04     0.07   0.02  -0.03    -0.05  -0.03   0.05
     4   6    -0.07   0.06  -0.03    -0.09  -0.02  -0.08     0.05  -0.00  -0.11
     5   6    -0.05   0.01   0.05     0.00   0.02   0.12    -0.03   0.07  -0.06
     6   6    -0.01   0.03  -0.12     0.06  -0.09  -0.07    -0.09  -0.07  -0.02
     7   6    -0.02  -0.06   0.07     0.05   0.10  -0.03    -0.05   0.01   0.07
     8   6    -0.11   0.06   0.03     0.02  -0.00   0.04    -0.00   0.01  -0.05
     9   6     0.15  -0.02  -0.06    -0.06  -0.07   0.01    -0.02  -0.09   0.08
    10   6    -0.02  -0.05   0.11     0.08  -0.07  -0.01    -0.05  -0.09  -0.07
    11   6    -0.07  -0.04  -0.03     0.02   0.04  -0.00    -0.03   0.03   0.08
    12   8    -0.00   0.03  -0.00    -0.02   0.02  -0.02     0.00  -0.01  -0.01
    13   8    -0.03   0.02  -0.00     0.03  -0.03   0.01    -0.04   0.01  -0.02
    14   6     0.07  -0.01  -0.00    -0.05  -0.00   0.01     0.06  -0.01  -0.00
    15   6     0.04  -0.00   0.02    -0.06   0.10   0.04     0.13   0.08   0.05
    16   1     0.31  -0.21  -0.04     0.25  -0.12  -0.05    -0.02  -0.02   0.08
    17   1    -0.05   0.05  -0.01    -0.16  -0.16   0.21     0.13  -0.09   0.13
    18   1    -0.22   0.02   0.02    -0.31   0.18   0.01     0.17   0.30  -0.13
    19   1     0.01   0.07   0.03    -0.17   0.15   0.18     0.21   0.23  -0.13
    20   1    -0.08  -0.14   0.07     0.01   0.02  -0.13    -0.01   0.16   0.15
    21   1     0.01   0.13  -0.33     0.07  -0.07  -0.10    -0.37  -0.11  -0.04
    22   1     0.12  -0.16   0.06    -0.16   0.24  -0.02     0.13   0.05   0.29
    23   1     0.04   0.18   0.10     0.00  -0.06   0.22    -0.01   0.16  -0.01
    24   1    -0.38   0.19   0.12     0.10  -0.09   0.01     0.11   0.01  -0.09
    25   1     0.32  -0.08   0.04    -0.20   0.12   0.12    -0.01   0.09   0.33
    26   1     0.13  -0.06   0.00    -0.01   0.07  -0.25     0.11   0.05  -0.16
    27   1     0.07  -0.00  -0.00    -0.01   0.02  -0.01     0.03  -0.00   0.01
    28   1     0.04  -0.00  -0.01    -0.10   0.02  -0.00     0.06  -0.00   0.00
    29   1     0.06  -0.00  -0.01    -0.00   0.02  -0.01     0.05  -0.01  -0.00
    30   1     0.17  -0.16  -0.07    -0.16   0.19   0.07     0.15   0.04   0.03
    31   1    -0.09   0.16   0.06    -0.19   0.23   0.09     0.18  -0.02   0.03
                     34                     35                     36
                      A                      A                      A
 Frequencies --   1008.3664              1026.8000              1048.0053
 Red. masses --      3.5852                 2.4340                 2.2104
 Frc consts  --      2.1478                 1.5119                 1.4303
 IR Inten    --      3.8618                 6.4008                 0.5485
[...]
 0.00034576,0.00038826,-0.00035030,0.00015263,0.00078473,-0.00047736,-0
 .00055638,0.00020498,-0.00009803,-0.00022979,0.00046944,-0.00084876,0.
 00016469,-0.00007011,-0.00009002,0.00005836,0.00028794,-0.00033106,0.0
 0023941,0.00002253,0.00015637,0.00064334,-0.00006326,0.00003297,-0.000
 07519,-0.00000037,0.00003811,0.00001373,-0.00006528,-0.00004342,-0.000
 01130,-0.00058182,0.00064214,-0.00029436,-0.00003262,0.00042133,0.0003
 9661,-0.00058887,0.00044728,0.00094475,-0.00100741,0.00003884,0.053298
 38,0.00006420,-0.00042310,-0.00029403,0.00143314,-0.00008614,0.0004172
 5,0.00001329,-0.00003104,0.00011524,0.00029184,0.00127130,0.00015972,-
 0.00000131,0.00004532,-0.00006988,-0.00030705,-0.00012937,0.00044689,-
 0.00283409,0.00040066,0.00336850,0.01215131,0.00084687,0.01771918,-0.1
 3156625,0.00037835,-0.11971189,-0.01240879,-0.00011331,-0.01502599,0.0
 0012649,0.00006764,-0.00261928,0.00010029,-0.00030588,0.00090144,-0.00
 004737,0.00040256,0.00066524,-0.00013956,-0.00004696,-0.00008480,-0.00
 189868,-0.00406165,0.00120158,0.00004403,0.00001603,-0.00003296,0.0006
 2627,-0.00037117,0.00026150,0.00001215,0.00005847,0.00029054,-0.000014
 74,0.00007408,-0.00000052,0.00008102,-0.00007456,-0.00002036,0.0001256
 9,0.00010739,-0.00011054,-0.00004483,-0.00017147,0.00001784,0.00086533
 ,-0.00003120,0.00119696,0.00087456,-0.00009199,-0.00089432,-0.01021707
 ,-0.00049965,-0.01545910,0.14287055,-0.00008917,0.00010212,0.00012725,
 -0.00036721,-0.00012345,-0.00076303,0.00023524,-0.00019626,0.00011164,
 -0.00071254,0.00163307,-0.00108510,-0.00006485,0.00016987,0.00000418,-
 0.00010480,0.00000488,0.00049321,0.00001487,0.00053627,0.00055542,0.00
 046274,-0.00048315,-0.00065371,0.00145741,-0.05179010,-0.00123317,-0.0
 1580193,-0.00162159,-0.02186968,0.00027928,0.00117081,-0.00165941,0.00
 026694,-0.00032016,0.00043412,-0.00004693,-0.00002803,0.00007077,-0.00
 008608,0.00004741,-0.00002067,-0.00277713,-0.00477703,0.00114291,0.000
 04796,-0.00001108,-0.00003659,0.00033977,-0.00049560,0.00049118,0.0000
 8445,0.00029193,0.00031177,0.00000167,0.00004679,0.00004283,0.00007436
 ,-0.00006682,0.00003364,0.00011261,0.00006669,-0.00001639,-0.00038617,
 0.00020383,-0.00042416,-0.00004080,0.00041201,0.00024568,0.00028013,0.
 00010385,0.00028379,0.01491991,0.00134038,0.02319823,0.00308933,0.0534
 5322,0.00140817,-0.00012798,0.00043649,-0.00257289,0.00113007,-0.00054
 756,0.00021829,-0.00024506,-0.00036618,0.00006409,0.00032057,-0.000098
 63,-0.00021268,0.00006956,-0.00002110,0.00045784,0.00048608,0.00036228
 ,0.00513444,-0.00022646,-0.00350691,-0.01357559,-0.00119469,-0.0215060
 9,-0.11953761,-0.00179520,-0.22309188,0.00028873,-0.00021755,0.0015214
 1,0.00063452,-0.00025324,0.00007843,-0.00025997,-0.00031049,0.00049932
 ,-0.00027441,0.00023205,0.00026787,-0.00002973,-0.00005786,-0.00012451
 ,0.00033508,0.00016607,0.00105992,-0.00001534,-0.00010004,0.00000220,0
 .00023167,-0.00046246,0.00033721,0.00017106,-0.00003934,0.00024074,0.0
 0004554,-0.00011045,0.00001784,0.00001575,0.00003918,0.00006431,-0.000
 11410,-0.00007372,0.00005917,0.00017309,0.00005446,0.00039166,-0.00115
 235,-0.00025036,-0.00144894,-0.00006374,0.00047559,0.00090778,0.000072
 21,0.00059370,0.00051556,0.12851084,0.00174784,0.24376430,-0.00007278,
 0.00004022,-0.00001185,0.00006958,-0.00009683,0.00003629,-0.00001689,0
 .00006233,-0.00003175,0.00000318,-0.00003258,0.00012828,-0.00000745,-0
 .00002253,-0.00000977,0.00006347,0.00001175,0.00000737,-0.00001212,0.0
 0000752,-0.00001693,-0.00002153,0.00009172,-0.00003611,0.00006071,0.00
 000433,0.00004536,0.00016546,0.00033145,0.00017188,0.00285533,-0.00831
 028,0.00253503,0.00097473,0.00248391,-0.00293474,-0.02195072,-0.009830
 11,0.01151550,-0.15328520,-0.12743938,-0.00715288,-0.00016037,-0.00005
 014,0.00000323,-0.00001764,0.00000651,0.00002021,-0.00002444,-0.000000
 14,-0.00000785,-0.00000854,0.00004682,0.00001523,0.00000661,0.00000922
 ,0.00000065,-0.00000843,0.00000516,0.00000566,-0.00001006,0.00000342,0
 .00003360,0.00000507,0.00000361,-0.00000884,-0.00000133,0.00000234,0.0
 0001853,-0.00001442,-0.00000155,0.00001675,0.00003617,0.00018104,-0.00
 007742,0.00000654,-0.00000242,-0.00000844,0.16737291,-0.00003853,0.000
 01561,-0.00000406,0.00004012,-0.00003578,0.00001887,-0.00000221,0.0000
 0642,-0.00000463,-0.00003892,-0.00000982,0.00002703,-0.00001349,0.0000
 0192,-0.00000651,-0.00002416,0.00001328,-0.00003184,-0.00000722,-0.000
 00937,-0.00001331,-0.00002822,0.00000378,-0.00002252,-0.00001842,-0.00
 005149,0.00011220,-0.00056858,-0.00027470,-0.00042587,0.00213625,0.000
 48853,-0.00066370,0.00032299,0.00006056,-0.00018743,0.00301243,0.00778
 226,0.00446516,-0.13349699,-0.21938612,-0.00689565,0.00008600,-0.00001
 954,-0.00013021,-0.00000606,0.00000430,0.00001027,0.00002641,-0.000008
 16,0.00001152,0.00000566,0.00000304,-0.00001045,0.00000378,0.00000476,
 -0.00000114,0.00000107,-0.00000243,0.00000793,0.00001023,0.00000094,0.
 00000217,0.00000090,0.00000098,-0.00000457,0.00000263,0.00000580,0.000
 01012,-0.00000596,-0.00000019,0.00001637,0.00000283,0.00002648,-0.0000
 3005,0.00001706,0.00000887,0.00001351,0.14435657,0.22856254,0.00010098
 ,-0.00001604,0.00002121,-0.00009947,0.00004390,-0.00005461,0.00001414,
 -0.00003376,0.00003516,-0.00005606,0.00003584,-0.00012234,0.00001210,0
 .00002460,0.00001830,-0.00011387,-0.00001138,-0.00005663,0.00000179,-0
 .00001229,0.00003674,0.00006238,-0.00005964,0.00006365,-0.00011736,-0.
 00006137,-0.00015787,-0.00038673,-0.00018059,-0.00047768,-0.00226470,0
 .00532008,0.00040417,0.00069847,-0.00183459,0.00076942,0.02972985,0.02
 011953,-0.00902203,-0.01049050,-0.01079739,-0.05159941,0.00026477,0.00
 006015,-0.00000005,0.00001998,-0.00000581,-0.00002728,-0.00001406,-0.0
 0000700,0.00000786,0.00001764,-0.00002250,0.00001708,-0.00000607,-0.00
 000756,0.00000267,0.00000423,-0.00000156,-0.00001370,0.00002210,-0.000
 00145,-0.00005935,-0.00000878,0.00000231,0.00000784,0.00000225,-0.0000
 0379,-0.00001744,0.00002699,0.00000666,-0.00003459,-0.00004774,-0.0001
 8073,0.00006131,0.00003183,-0.00001645,0.00003191,-0.00228623,0.005804
 21,0.05744487,-0.00007358,-0.00003599,-0.00000831,0.00010115,0.0000830
 4,0.00000251,-0.00007289,0.00010712,-0.00005758,-0.00016489,-0.0001850
 0,0.00037765,-0.00001281,-0.00002132,-0.00001722,0.00007311,0.00000972
 ,0.00001533,-0.00001272,0.00003722,-0.00001275,-0.00001071,-0.00006788
 ,-0.00002433,0.00004413,0.00018665,0.00002146,-0.00033600,0.00102151,-
 0.00025435,-0.00051531,-0.00314752,0.00382884,0.00101895,0.00043766,-0
 .00071748,-0.01825591,0.02197310,0.00565678,-0.11398991,0.11006273,-0.
 01930610,-0.00015190,-0.00000531,-0.00006722,-0.00004136,-0.00000270,0
 .00005754,0.00000440,-0.00000083,-0.00001558,0.00001316,-0.00000427,-0
 .00000436,0.00000610,-0.00000153,-0.00000305,-0.00000326,0.00000239,0.
 00001680,-0.00001383,-0.00000296,0.00003771,0.00001232,-0.00001232,0.0
 0000298,-0.00000590,-0.00000679,0.00000943,-0.00003174,-0.00000773,0.0
 0003012,0.00001006,-0.00003178,0.00002248,-0.00000684,-0.00000560,-0.0
 0000945,0.01362617,-0.01752070,0.00203451,0.12564135,0.00006608,0.0000
 1021,0.00000734,-0.00007643,-0.00002251,-0.00002160,0.00000827,-0.0000
 0817,0.00002431,0.00001883,0.00005718,-0.00008941,0.00001155,0.0000104
 8,0.00000481,-0.00004560,0.00000506,-0.00000315,0.00001499,-0.00002254
 ,0.00000858,0.00002011,0.00002103,0.00002054,-0.00000777,-0.00006004,-
 0.00007541,0.00004390,0.00002687,0.00005043,-0.00116316,0.00061125,0.0
 0123851,0.00111999,0.00030114,-0.00109531,0.00093416,0.00139034,-0.002
 21174,0.11625401,-0.26321043,0.02730922,0.00010867,-0.00002403,0.00001
 009,0.00001551,-0.00000185,-0.00002162,-0.00002598,0.00000689,0.000000
 56,-0.00000374,0.00001503,0.00001697,-0.00000442,0.00000112,0.00000530
 ,0.00000346,-0.00000022,-0.00001488,0.00000849,-0.00000129,-0.00003591
 ,-0.00000751,0.00000890,0.00000298,0.00000448,0.00000368,-0.00001234,0
 .00001891,0.00000489,-0.00002193,-0.00000440,-0.00002102,0.00001474,-0
 .00000255,-0.00000418,0.00000313,0.01275291,-0.01838087,0.00389930,-0.
 12815996,0.27687277,0.00004129,0.00001998,0.00000848,-0.00006708,-0.00
 005170,-0.00000086,0.00008805,-0.00014584,0.00005610,0.00018910,0.0001
 8835,-0.00045161,0.00000327,0.00000713,0.00003483,-0.00005384,0.000015
 68,-0.00002127,0.00001162,-0.00002599,0.00001808,0.00002181,0.00004509
 ,0.00001483,-0.00007981,-0.00014682,-0.00000230,0.00063868,-0.00127279
 ,0.00045145,0.00205294,0.00392248,-0.00607635,-0.00132270,-0.00016806,
 0.00272158,0.02444982,-0.03080359,-0.00536203,-0.02483192,0.03571730,-
 0.05398666,0.00011514,-0.00005182,0.00012449,0.00004025,0.00000255,-0.
 00006176,0.00001192,0.00000600,0.00001386,-0.00001216,-0.00002091,-0.0
 0000436,-0.00000497,-0.00000185,-0.00000072,-0.00000379,0.00000342,-0.
 00000968,0.00000874,-0.00000023,-0.00003065,-0.00000595,0.00001327,-0.
 00000357,-0.00000084,0.00000367,-0.00000491,0.00001474,0.00000408,-0.0
 0001908,0.00000864,0.00004234,0.00000966,0.00001111,0.00002694,0.00000
 132,-0.00006404,-0.00221281,0.00081539,0.01031963,-0.02944302,0.061260
 95,-0.00003725,0.00000165,-0.00000635,0.00005457,-0.00000761,0.0000065
 7,-0.00000929,0.00002066,-0.00000938,-0.00002853,-0.00010646,0.0000041
 1,-0.00001910,-0.00001261,0.00000991,0.00001442,0.00005142,-0.00002769
 ,0.00000100,0.00001387,-0.00001891,-0.00004937,-0.00008332,-0.00002685
 ,-0.00002549,0.00010393,0.00021672,-0.00068743,-0.00054892,-0.00035190
 ,0.00270148,-0.00257458,0.00193243,-0.00053232,0.00142544,-0.00026840,
 0.01095255,0.00288198,0.02929659,-0.13751281,0.00061727,-0.13078038,-0
 .00008814,-0.00004640,-0.00008999,-0.00001138,0.00000254,0.00001409,-0
 .00000662,0.00002290,0.00000216,-0.00000011,0.00001693,-0.00000661,0.0
 0000329,0.00000269,-0.00000148,-0.00000728,0.00000749,0.00000610,-0.00
 000399,0.00000071,0.00002353,0.00000469,-0.00000318,-0.00000315,-0.000
 00356,-0.00000111,0.00000597,-0.00002622,-0.00000169,0.00003465,0.0000
 3895,0.00002114,0.00000085,-0.00004460,0.00001808,-0.00000579,-0.00960
 864,0.00176078,-0.01719255,-0.00689100,-0.00191511,-0.01153193,0.14186
 375,-0.00001899,-0.00002507,-0.00000156,0.00002031,0.00005654,0.000005
 30,0.00000138,-0.00002481,0.00000262,0.00001023,0.00000574,-0.00001115
 ,-0.00000765,-0.00000682,0.00000204,0.00003648,0.00001812,0.00002329,0
 .00001023,0.00000116,-0.00000708,-0.00000620,-0.00001073,-0.00001382,0
 .00005464,0.00000804,-0.00002602,0.00027774,0.00004937,0.00025398,-0.0
 0044443,0.00263717,-0.00289026,-0.00061750,-0.00057448,0.00162807,-0.0
 0017671,-0.00019068,-0.00215931,0.00207888,-0.05292528,0.00392765,-0.0
 0007411,-0.00006118,0.00004799,-0.00000306,-0.00000111,0.00000366,0.00
 002946,0.00000232,-0.00000289,-0.00000386,-0.00003269,-0.00002349,-0.0
 0000006,-0.00000101,-0.00000290,0.00000037,0.00000016,0.00000735,-0.00
 000760,-0.00000435,0.00001434,0.00000244,-0.00000138,0.00000038,-0.000
 00441,0.00000047,-0.00000158,-0.00000541,-0.00000386,0.00000464,0.0000
 1279,-0.00001590,0.00002677,-0.00002856,0.00001767,-0.00001082,-0.0146
 7332,0.00116840,-0.02201507,0.01529778,0.00240468,0.02429293,-0.001757
 23,0.04750588,0.00012270,0.00000687,0.00001649,-0.00015058,-0.00001009
 ,-0.00001935,0.00003556,-0.00004341,0.00001886,0.00007198,0.00012782,-
 0.00009448,0.00002566,0.00004115,-0.00003860,-0.00005729,-0.00010050,0
 .00007617,-0.00001774,-0.00003115,0.00000309,0.00004894,0.00002149,0.0
 0004522,-0.00012005,-0.00011693,-0.00011541,0.00022123,-0.00005581,0.0
 0004309,-0.00446054,0.00815827,-0.00158775,-0.00015851,-0.00243287,0.0
 0290754,0.00229846,-0.00449307,-0.03397685,-0.12328924,0.00160366,-0.2
 3399191,0.00012863,0.00014788,-0.00003524,0.00003136,-0.00000585,-0.00
 002785,0.00003204,-0.00003369,0.00001493,-0.00000219,-0.00000314,0.000
 00116,-0.00000606,0.00000126,0.00000832,0.00002835,-0.00002039,-0.0000
 1337,0.00001732,0.00000240,-0.00004330,-0.00000890,-0.00000452,0.00001
 114,0.00002429,0.00000831,-0.00001083,0.00003498,0.00000977,-0.0000307
 9,-0.00007865,-0.00008409,-0.00000113,0.00009290,-0.00002204,0.0000274
 7,-0.00185877,0.00014826,0.00188518,-0.00194600,0.00040880,0.00055103,
 0.12885405,-0.00308370,0.26416881,-0.00000240,-0.00035974,-0.00000676,
 0.00019936,0.00092593,0.00001712,0.00043940,-0.00039783,-0.00002393,-0
 .00107084,-0.00153575,-0.00354756,-0.00113829,-0.00156003,0.00373772,-
 0.01197621,0.01521570,0.00005540,0.00029289,0.00137462,-0.00078167,-0.
 00015445,-0.00049962,-0.00001507,0.00041447,0.00140911,0.00074247,-0.0
 1168545,0.01483379,-0.00126370,-0.00091717,0.00080167,0.00062953,0.000
 40539,-0.00018524,-0.00001717,0.00017056,-0.00045418,0.00115630,0.0003
 6156,-0.00017943,-0.00001419,-0.13922062,0.12140130,-0.00099071,0.0000
 0583,-0.00002138,0.00001820,-0.00053512,0.00104136,0.00008150,0.000075
 88,0.00024256,0.00002808,0.00011119,0.00024987,-0.00001990,-0.00053784
 ,0.00104773,-0.00006688,0.00085755,-0.00034097,-0.00004972,-0.00006297
 ,-0.00094220,0.00023338,0.00043180,-0.00018613,0.00001554,-0.00005604,
 -0.00003503,0.00001179,-0.00014169,-0.00086552,-0.00027837,0.00036550,
 -0.00019004,0.00000994,-0.00003699,-0.00002197,0.00003733,0.00002568,0
 .00001107,-0.00002896,-0.00006092,0.00000640,0.00009038,0.15058798,0.0
 0016723,0.00013529,0.00000300,-0.00022816,-0.00033630,-0.00000322,-0.0
 0008829,0.00006682,0.00002850,-0.00023349,0.00099370,0.00052556,-0.000
 49628,0.00094984,-0.00044775,-0.00118123,0.00012386,-0.00051725,-0.000
 64520,0.00069653,0.00031671,0.00012641,0.00000901,-0.00000547,-0.00066
 681,0.00064866,-0.00021133,-0.00070485,-0.00074150,0.00076698,0.001998
 93,-0.00180071,-0.00014599,-0.00035697,0.00059543,0.00003486,-0.000957
 65,0.00080092,-0.00149299,-0.00034927,0.00012149,0.00013303,0.12241253
 ,-0.22309179,0.00153942,0.00003593,-0.00003428,-0.00001675,0.00033131,
 0.00015712,-0.00010063,-0.00012247,0.00040031,-0.00015274,-0.00011597,
 0.00041018,0.00012160,0.00028362,0.00017672,0.00010545,0.00004196,0.00
 010819,-0.00051365,0.00019783,0.00048164,0.00008276,-0.00004469,0.0001
 7535,-0.00010200,-0.00000500,0.00001574,-0.00000138,0.00006514,0.00041
 276,-0.00011113,-0.00001870,0.00013365,0.00007708,0.00000787,-0.000013
 81,0.00004357,0.00000068,0.00000980,0.00003573,0.00003981,-0.00001305,
 -0.00012213,-0.13480108,0.23939567,-0.00003983,0.00001409,-0.00001983,
 0.00005619,-0.00004890,-0.00006576,0.00008452,-0.00006786,-0.00042804,
 -0.00286107,-0.00121926,-0.00537304,0.00323240,0.00137484,-0.00487563,
 0.01671893,-0.02314839,0.00025684,-0.00062457,-0.00098258,0.00102605,-
 0.00005655,-0.00000980,-0.00027495,0.00081073,0.00101140,0.00115846,-0
 .01642501,0.02300438,-0.00136421,-0.00205440,0.00290309,0.00139037,0.0
 0041684,-0.00074083,-0.00010965,0.00066314,-0.00087670,-0.00085923,0.0
 0063442,-0.00029647,-0.00031169,0.00050905,-0.00084647,-0.04707665,0.0
 0001462,0.00000575,0.00027971,-0.00142584,0.00143882,0.00013173,0.0002
 0941,-0.00024022,0.00004341,-0.00024296,0.00030037,-0.00002120,0.00136
 243,-0.00139758,0.00010870,-0.00081173,-0.00019614,0.00092069,-0.00005
 821,0.00071402,0.00005928,-0.00042613,-0.00003247,-0.00007740,-0.00001
 905,0.00000030,0.00009771,-0.00008092,-0.00068476,0.00010507,0.0003430
 8,-0.00001689,-0.00008305,-0.00007542,-0.00001339,0.00005432,-0.000001
 15,0.00000889,-0.00003199,-0.00009750,0.00001293,0.00020681,0.00004958
 ,-0.00001215,0.05534896,-0.00000364,0.00037285,-0.00000135,0.00019489,
 -0.00095686,0.00000874,-0.00012632,0.00051705,-0.00000817,0.00027665,-
 0.00138444,0.00071769,0.00034401,-0.00144453,-0.00079803,-0.01223281,-
 0.01574844,0.00004334,-0.00124079,0.00160787,0.00393068,0.00050181,0.0
 0048992,0.00003456,-0.00108758,0.00124719,-0.00363447,-0.01093992,-0.0
 1415234,-0.00150131,-0.00041392,-0.00054136,0.00137045,0.00021719,0.00
 063761,-0.00052363,0.00026098,-0.00009170,-0.00022242,-0.00008223,-0.0
 0008722,0.00000179,-0.13714411,-0.11805954,-0.00076263,-0.00005900,0.0
 0003545,0.00000246,0.00037225,0.00023921,0.00000557,-0.00010263,0.0008
 8828,-0.00026896,-0.00010100,0.00097052,0.00022808,0.00042193,0.000193
 00,0.00001650,0.00087414,0.00032720,-0.00005413,0.00012042,-0.00023031
 ,-0.00002820,-0.00060470,-0.00109364,-0.00007684,0.00002693,0.00001115
 ,-0.00001966,0.00004533,-0.00020567,0.00003568,-0.00052101,-0.00100909
 ,0.00006082,0.00001161,0.00000569,0.00000279,0.00001398,0.00000124,-0.
 00001877,0.00001938,-0.00001004,-0.00000429,0.01285193,0.01530685,0.00
 019502,0.14810623,-0.00018491,0.00014892,0.00000283,0.00026804,-0.0003
 7183,-0.00000895,-0.00011585,0.00003123,0.00002758,0.00064452,0.000569
 41,0.00020967,0.00066098,0.00061911,-0.00030705,0.00086350,-0.00042304
 ,0.00032879,0.00039831,0.00103358,0.00066034,0.00013060,0.00011693,0.0
 0001039,0.00032090,0.00087982,-0.00045809,0.00114329,-0.00031715,-0.00
 073916,-0.00116290,-0.00014473,0.00049137,0.00040829,0.00044777,-0.000
 62289,0.00063055,-0.00002807,-0.00025963,-0.00017670,-0.00006175,-0.00
 001282,-0.11942527,-0.21800891,-0.00145814,-0.00000313,0.00001888,-0.0
 0000438,0.00002097,0.00015883,-0.00008405,-0.00011072,0.00048443,0.000
 10025,-0.00017275,0.00050998,-0.00007565,0.00003458,0.00020161,0.00010
 213,-0.00002587,0.00010528,0.00052349,0.00012684,0.00042172,-0.0001269
 1,-0.00034660,0.00011865,-0.00011006,-0.00003279,-0.00004071,-0.000005
 20,0.00011465,0.00037792,0.00014486,-0.00028775,0.00017412,0.00006683,
 0.00005056,0.00003379,-0.00009122,0.00000059,-0.00000417,-0.00000149,0
 .00004897,0.00001668,-0.00002257,-0.01598499,-0.02098724,0.00004199,0.
 13216411,0.23391897,-0.00000728,-0.00002098,-0.00002136,0.00000939,0.0
 0006513,-0.00005016,-0.00001836,-0.00001240,-0.00026375,0.00077651,-0.
 00106089,0.00102046,-0.00067257,0.00102487,0.00101319,0.01698165,0.023
 34542,0.00039595,0.00329565,-0.00142102,-0.00501933,0.00008165,0.00006
 208,-0.00044537,-0.00314281,0.00113902,-0.00535190,-0.01634567,-0.0230
 5705,-0.00172863,-0.00148660,-0.00202167,0.00161134,0.00034491,0.00073
 619,-0.00011341,0.00038959,0.00019650,-0.00008979,-0.00002613,-0.00010
 101,-0.00007820,-0.00073398,-0.00079786,-0.04824317,-0.00000806,-0.000
 00306,0.00009777,0.00034706,0.00002576,-0.00003906,0.00003395,0.000676
 79,0.00006713,-0.00006186,-0.00071279,0.00006524,-0.00040187,0.0000292
 0,-0.00007513,-0.00082685,0.00019508,0.00092743,-0.00025108,-0.0003116
 8,-0.00001531,0.00142026,0.00144074,0.00011164,0.00002226,-0.00000034,
 0.00029399,0.00019942,0.00024995,0.00000157,-0.00142794,-0.00150411,0.
 00020765,0.00002747,0.00001050,-0.00003408,0.00001115,0.00001181,-0.00
 001424,0.00001116,-0.00000428,0.00000157,0.00019032,0.00014233,-0.0002
 1578,0.00126867,0.00167775,0.05598373\\0.00004649,-0.00000798,0.000030
 86,-0.00003739,0.00001334,-0.00003127,-0.00002549,-0.00001963,-0.00001
 295,0.00000687,0.00000611,0.00002144,0.00000708,-0.00000274,-0.0000226
 5,-0.00006034,-0.00005367,0.00002817,0.00003993,0.00002900,0.00000052,
 -0.00001189,-0.00000077,-0.00001305,0.00005317,0.00003898,-0.00001563,
 -0.00002509,-0.00002315,-0.00005801,0.00009630,-0.00002481,-0.00000112
 ,-0.00009278,0.00003208,0.00003694,-0.00006807,-0.00000232,0.00001139,
 0.00003994,0.00002985,0.00002953,0.00000772,0.00001846,-0.00000510,-0.
 00000181,0.00000200,-0.00000679,0.00000552,0.00000181,-0.00000770,0.00
 000706,0.00000374,-0.00000662,0.00000876,0.00001053,0.00000394,-0.0000
 0285,-0.00000174,0.00000088,-0.00000010,0.00000375,0.00000095,0.000002
 79,-0.00001142,0.00001527,0.00000198,-0.00000134,0.00000385,-0.0000032
 3,0.00000200,-0.00000025,-0.00000829,-0.00000472,-0.00001407,-0.000000
 55,-0.00000560,0.00000653,0.00001039,-0.00000830,-0.00000566,-0.000001
 21,-0.00001153,0.00000546,-0.00000447,-0.00000333,0.00000126,0.0000133
 9,-0.00001632,0.00000325,-0.00000383,0.00000774,0.00000063\\\@


 The cat could very well be man's best friend
 but would never stoop to admitting it.
                               -- Doug Larson
 Job cpu time:       0 days  0 hours  4 minutes 18.9 seconds.
 Elapsed time:       0 days  0 hours  4 minutes 27.0 seconds.
 File lengths (MBytes):  RWF=    244 Int=      0 D2E=      0 Chk=     11 Scr=      1
 Normal termination of Gaussian 16 at Sat Feb 24 00:59:47 2024.
