 Entering Gaussian System, Link 0=g16
 Input=/Volumes/SSD-PMU3/b3lyp_6-31gd_freq/DUPFRYAOGHZOCO-IILKTSJVSA-N_calculating/gaussianinput0.gjf
 Output=/Volumes/SSD-PMU3/b3lyp_6-31gd_freq/DUPFRYAOGHZOCO-IILKTSJVSA-N_calculating/gaussianinput0.log
 Initial command:
 /Applications/g16/l1.exe "/Users/macmini_m1_2022/PycharmProjects/sphere_model/sphere_model_lib/Gau-82247.inp" -scrdir="/Users/macmini_m1_2022/PycharmProjects/sphere_model/sphere_model_lib/"
 Entering Link 1 = /Applications/g16/l1.exe PID=     82248.
  
 Copyright (c) 1988,1990,1992,1993,1995,1998,2003,2009,2016,
            Gaussian, Inc.  All Rights Reserved.
  
 This is part of the Gaussian(R) 16 program.  It is based on
 the Gaussian(R) 09 system (copyright 2009, Gaussian, Inc.),
 the Gaussian(R) 03 system (copyright 2003, Gaussian, Inc.),
 the Gaussian(R) 98 system (copyright 1998, Gaussian, Inc.),
 the Gaussian(R) 94 system (copyright 1995, Gaussian, Inc.),
 the Gaussian 92(TM) system (copyright 1992, Gaussian, Inc.),
 the Gaussian 90(TM) system (copyright 1990, Gaussian, Inc.),
 the Gaussian 88(TM) system (copyright 1988, Gaussian, Inc.),
 the Gaussian 86(TM) system (copyright 1986, Carnegie Mellon
 University), and the Gaussian 82(TM) system (copyright 1983,
 Carnegie Mellon University). Gaussian is a federally registered
 trademark of Gaussian, Inc.
  
 This software contains proprietary and confidential information,
 including trade secrets, belonging to Gaussian, Inc.
  
 This software is provided under written license and may be
 used, copied, transmitted, or stored only in accord with that
 written license.
  
 The following legend is applicable only to US Government
 contracts under FAR:
  
                    RESTRICTED RIGHTS LEGEND
  
 Use, reproduction and disclosure by the US Government is
 subject to restrictions as set forth in subparagraphs (a)
 and (c) of the Commercial Computer Software - Restricted
 Rights clause in FAR 52.227-19.
  
 Gaussian, Inc.
 340 Quinnipiac St., Bldg. 40, Wallingford CT 06492
  
  
 ---------------------------------------------------------------
 Warning -- This program may not be used in any manner that
 competes with the business of Gaussian, Inc. or will provide
 assistance to any competitor of Gaussian, Inc.  The licensee
 of this program is prohibited from giving any competitor of
 Gaussian, Inc. access to this program.  By using this program,
 the user acknowledges that Gaussian, Inc. is engaged in the
 business of creating and licensing software in the field of
 computational chemistry and represents and warrants to the
 licensee that it is not a competitor of Gaussian, Inc. and that
 it will not use this program in any manner prohibited above.
 ---------------------------------------------------------------
  

 Cite this work as:
 Gaussian 16, Revision A.03,
 M. J. Frisch, G. W. Trucks, H. B. Schlegel, G. E. Scuseria, 
 M. A. Robb, J. R. Cheeseman, G. Scalmani, V. Barone, 
 G. A. Petersson, H. Nakatsuji, X. Li, M. Caricato, A. V. Marenich, 
 J. Bloino, B. G. Janesko, R. Gomperts, B. Mennucci, H. P. Hratchian, 
 J. V. Ortiz, A. F. Izmaylov, J. L. Sonnenberg, D. Williams-Young, 
 F. Ding, F. Lipparini, F. Egidi, J. Goings, B. Peng, A. Petrone, 
 T. Henderson, D. Ranasinghe, V. G. Zakrzewski, J. Gao, N. Rega, 
 G. Zheng, W. Liang, M. Hada, M. Ehara, K. Toyota, R. Fukuda, 
 J. Hasegawa, M. Ishida, T. Nakajima, Y. Honda, O. Kitao, H. Nakai, 
 T. Vreven, K. Throssell, J. A. Montgomery, Jr., J. E. Peralta, 
 F. Ogliaro, M. J. Bearpark, J. J. Heyd, E. N. Brothers, K. N. Kudin, 
 V. N. Staroverov, T. A. Keith, R. Kobayashi, J. Normand, 
 K. Raghavachari, A. P. Rendell, J. C. Burant, S. S. Iyengar, 
 J. Tomasi, M. Cossi, J. M. Millam, M. Klene, C. Adamo, R. Cammi, 
 J. W. Ochterski, R. L. Martin, K. Morokuma, O. Farkas, 
 J. B. Foresman, and D. J. Fox, Gaussian, Inc., Wallingford CT, 2016.
 
 ******************************************
 Gaussian 16:  EM64M-G16RevA.03 25-Dec-2016
                24-Feb-2024 
 ******************************************
 %nprocshared=10
 Will use up to   10 processors via shared memory.
 %mem=12GB
 %chk= 0.chk
 ---------------------
 # freq b3lyp/6-31g(d)
 ---------------------
 1/10=4,30=1,38=1/1,3;
 2/12=2,17=6,18=5,40=1/2;
 3/5=1,6=6,7=1,11=2,25=1,30=1,71=2,74=-5,140=1/1,2,3;
 4//1;
 5/5=2,38=5,98=1/2;
 8/6=4,10=90,11=11/1;
 11/6=1,8=1,9=11,15=111,16=1/1,2,10;
 10/6=1/2;
 6/7=2,8=2,9=2,10=2,28=1/1;
 7/8=1,10=1,25=1/1,2,3,16;
 1/10=4,30=1/3;
 99//99;
 ---------
 good luck
 ---------
 Symbolic Z-matrix:
 Charge =  0 Multiplicity = 1
 O                     1.21591   0.        0. 
 C                     0.        0.        0. 
 C                    -0.84761  -1.26996  -0.00443 
 C                    -1.75555  -1.26621   1.24932 
 C                    -1.72801  -1.26208  -1.27954 
 C                    -2.62034  -0.00464  -1.28517 
 C                    -1.73137   1.25464  -1.2806 
 C                    -0.85223   1.26569  -0.00443 
 C                    -1.75895   1.25706   1.24995 
 C                    -2.65651  -0.0004    1.24959 
 C                    -3.55158   0.01096   2.48542 
 O                    -3.59026   0.89038   3.31942 
 O                    -4.32745  -1.09753   2.54992 
 C                    -5.20798  -1.16864   3.68357 
 C                    -3.52689  -0.00786  -0.03815 
 H                    -0.17768  -2.13557   0.00801 
 H                    -1.14086  -1.28608   2.1588 
 H                    -2.37642  -2.16891   1.25852 
 H                    -1.09313  -1.28293  -2.17471 
 H                    -2.34473  -2.1707   -1.30141 
 H                    -3.24836  -0.00657  -2.18534 
 H                    -1.09721   1.27691  -2.17631 
 H                    -2.35052   2.16154  -1.30254 
 H                    -0.18534   2.13343   0.00735 
 H                    -2.38041   2.15994   1.26562 
 H                    -1.15297   1.28179   2.16278 
 H                    -5.74784  -2.10994   3.57625 
 H                    -4.6361   -1.15676   4.61515 
 H                    -5.90233  -0.32426   3.68402 
 H                    -4.17607  -0.89072  -0.03951 
 H                    -4.18019   0.87516  -0.04547 
 

 GradGradGradGradGradGradGradGradGradGradGradGradGradGradGradGradGradGrad
 Berny optimization.
 Initialization pass.
 Trust Radius=3.00D-01 FncErr=1.00D-07 GrdErr=1.00D-07 EigMax=2.50D+02 EigMin=1.00D-04
 Number of steps in this run=      2 maximum allowed number of steps=      2.
 GradGradGradGradGradGradGradGradGradGradGradGradGradGradGradGradGradGrad

                          Input orientation:                          
 ---------------------------------------------------------------------
 Center     Atomic      Atomic             Coordinates (Angstroms)
 Number     Number       Type             X           Y           Z
 ---------------------------------------------------------------------
      1          8           0        1.215908    0.000000    0.000000
      2          6           0        0.000000    0.000000    0.000000
      3          6           0       -0.847607   -1.269959   -0.004433
      4          6           0       -1.755552   -1.266206    1.249319
      5          6           0       -1.728012   -1.262084   -1.279537
      6          6           0       -2.620336   -0.004643   -1.285171
      7          6           0       -1.731373    1.254638   -1.280597
      8          6           0       -0.852227    1.265690   -0.004433
      9          6           0       -1.758953    1.257063    1.249954
     10          6           0       -2.656509   -0.000403    1.249587
     11          6           0       -3.551579    0.010960    2.485415
     12          8           0       -3.590256    0.890383    3.319416
     13          8           0       -4.327446   -1.097532    2.549915
     14          6           0       -5.207977   -1.168640    3.683572
     15          6           0       -3.526893   -0.007856   -0.038153
     16          1           0       -0.177683   -2.135567    0.008009
     17          1           0       -1.140858   -1.286075    2.158797
     18          1           0       -2.376415   -2.168914    1.258524
     19          1           0       -1.093132   -1.282928   -2.174713
     20          1           0       -2.344728   -2.170695   -1.301405
     21          1           0       -3.248361   -0.006568   -2.185343
     22          1           0       -1.097213    1.276913   -2.176306
     23          1           0       -2.350515    2.161540   -1.302537
     24          1           0       -0.185339    2.133431    0.007345
     25          1           0       -2.380405    2.159944    1.265615
     26          1           0       -1.152969    1.281789    2.162785
     27          1           0       -5.747840   -2.109941    3.576248
     28          1           0       -4.636095   -1.156759    4.615151
     29          1           0       -5.902326   -0.324260    3.684022
     30          1           0       -4.176067   -0.890722   -0.039505
     31          1           0       -4.180188    0.875162   -0.045470
 ---------------------------------------------------------------------
                    Distance matrix (angstroms):
                    1          2          3          4          5
     1  O    0.000000
     2  C    1.215908   0.000000
     3  C    2.422996   1.526844   0.000000
     4  C    3.463185   2.499208   1.547990   0.000000
     5  C    3.449165   2.493210   1.549537   2.529009   0.000000
     6  C    4.045795   2.918535   2.526635   2.960242   1.541892
     7  C    3.449712   2.492328   2.963651   3.571514   2.516724
     8  C    2.424701   1.525871   2.535653   2.966208   2.963534
     9  C    3.463003   2.497300   2.964773   2.523271   3.570068
    10  C    4.069039   2.935730   2.540958   1.553699   2.974965
    11  C    5.376462   4.334873   3.892501   2.526816   4.372745
    12  O    5.908512   4.970034   4.820495   3.507466   5.408460
    13  O    6.199630   5.141345   4.320151   2.886978   4.631289
    14  C    7.496714   6.485171   5.711784   4.225440   6.062288
    15  C    4.742961   3.527108   2.961860   2.525604   2.519939
    16  H    2.550060   2.142961   1.094637   2.187764   2.196421
    17  H    3.445104   2.759701   2.183076   1.097904   3.488190
    18  H    4.380965   3.454768   2.177254   1.095645   2.772097
    19  H    3.421542   2.751403   2.184163   3.487560   1.097655
    20  H    4.368489   3.450119   2.175967   2.769733   1.098358
    21  H    4.970459   3.915050   3.480825   3.951211   2.169854
    22  H    3.423061   2.751489   3.356470   4.316917   2.765612
    23  H    4.369008   3.448736   3.964718   4.314556   3.479833
    24  H    2.552464   2.141479   3.467247   3.945326   3.945304
    25  H    4.381850   3.454485   3.965694   3.482702   4.314359
    26  H    3.454302   2.765856   3.361770   2.773050   4.318743
    27  H    8.107724   7.090773   6.126918   4.697324   6.360545
    28  H    7.542125   6.643123   5.975451   4.431516   6.573841
    29  H    8.021622   6.965243   6.328446   4.900079   6.552963
    30  H    5.465194   4.270185   3.350179   2.767842   2.769217
    31  H    5.466793   4.271059   3.963499   3.484364   3.479067
                    6          7          8          9         10
     6  C    0.000000
     7  C    1.541449   0.000000
     8  C    2.525915   1.549714   0.000000
     9  C    2.959855   2.530702   1.547809   0.000000
    10  C    2.535020   2.972009   2.535940   1.544936   0.000000
    11  C    3.883912   4.363798   3.880746   2.508514   1.525959
    12  O    4.789994   4.974761   4.322688   2.787615   2.439175
    13  O    4.337801   5.190869   4.917993   3.719028   2.384654
    14  C    5.721816   6.527023   6.204829   4.868501   3.714707
    15  C    1.541723   2.522192   2.962582   2.526826   1.554316
    16  H    3.489943   3.945624   3.467523   3.943701   3.499288
    17  H    3.961293   4.316638   3.357734   2.770485   2.185592
    18  H    3.348724   4.310907   3.964179   3.481185   2.186543
    19  H    2.181204   2.765147   3.356129   4.315462   3.976789
    20  H    2.183576   3.479877   3.964648   4.313014   3.363768
    21  H    1.097601   2.170359   3.480872   3.951755   3.485552
    22  H    2.180920   1.097702   2.185675   3.489635   3.974882
    23  H    2.182992   1.098312   2.175428   2.771865   3.358715
    24  H    3.488720   2.195744   1.094465   2.188232   3.493293
    25  H    3.354029   2.779212   2.179000   1.096194   2.177978
    26  H    3.961878   3.491729   2.188045   1.095942   2.176828
    27  H    6.151988   7.144322   6.941411   5.714856   4.406794
    28  H    6.340698   7.000864   6.444104   5.042721   4.072216
    29  H    5.963765   6.673620   6.452607   5.058934   4.070219
    30  H    2.181082   3.481294   3.962229   3.481110   2.182540
    31  H    2.178085   2.768797   3.351048   2.772427   2.182976
                   11         12         13         14         15
    11  C    0.000000
    12  O    1.212616   0.000000
    13  O    1.354579   2.255524   0.000000
    14  C    2.360231   2.643711   1.437209   0.000000
    15  C    2.523759   3.476222   2.919996   4.245551   0.000000
    16  H    4.704072   5.636262   4.975875   6.304647   3.968185
    17  H    2.756910   3.476141   3.216032   4.345134   3.486201
    18  H    2.763715   3.883296   2.573339   3.859942   2.770405
    19  H    5.425394   6.414387   5.728636   7.159924   3.480501
    20  H    4.533885   5.680979   4.462680   5.835435   2.769692
    21  H    4.680623   5.587825   4.977680   6.295607   2.165181
    22  H    5.418320   6.047117   6.197545   7.564210   3.482194
    23  H    4.518421   4.951287   5.419520   6.642023   2.772871
    24  H    4.687994   4.910035   5.836166   7.045936   3.969025
    25  H    2.734537   2.700671   4.006438   4.992109   2.777337
    26  H    2.733574   2.726052   3.986018   4.975991   3.484656
    27  H    3.242175   3.704467   2.023821   1.090421   4.734476
    28  H    2.659985   2.638844   2.089012   1.093174   4.919710
    29  H    2.659895   2.637037   2.089114   1.093206   4.426893
    30  H    2.752860   3.846799   2.602073   3.873420   1.095847
    31  H    2.747248   3.416242   3.263316   4.374841   1.098439
                   16         17         18         19         20
    16  H    0.000000
    17  H    2.505041   0.000000
    18  H    2.529688   1.765360   0.000000
    19  H    2.515813   4.333774   3.770796   0.000000
    20  H    2.532170   3.768933   2.560126   1.765585   0.000000
    21  H    4.332724   4.995023   4.158876   2.504839   2.506261
    22  H    4.154731   5.036262   5.030719   2.559845   3.769316
    23  H    4.990377   5.032907   5.031157   3.769093   4.332239
    24  H    4.269005   4.151480   4.987628   4.154151   4.990119
    25  H    4.988484   3.769522   4.328866   5.034511   5.034411
    26  H    4.156027   2.567896   3.771188   5.039369   5.033940
    27  H    6.615107   4.890011   4.091678   7.444717   5.947803
    28  H    6.485465   4.274000   4.171038   7.659684   6.425268
    29  H    7.040273   5.091461   4.660240   7.640168   6.396898
    30  H    4.187955   3.768465   2.560742   3.770600   2.566033
    31  H    5.008732   4.332120   3.770994   4.326770   3.771410
                   21         22         23         24         25
    21  H    0.000000
    22  H    2.504964   0.000000
    23  H    2.507223   1.765447   0.000000
    24  H    4.332387   2.516638   2.530725   0.000000
    25  H    4.166081   3.777982   2.568326   2.530269   0.000000
    26  H    4.995673   4.339452   3.770482   2.511478   1.755753
    27  H    6.623255   8.135784   7.320513   7.853960   5.908516
    28  H    7.035301   8.035567   7.159191   7.201837   5.225710
    29  H    6.449334   7.745729   6.607597   7.227872   4.942053
    30  H    2.499397   4.329423   3.774148   5.007355   3.772838
    31  H    2.494956   3.769164   2.565675   4.188657   2.570764
                   26         27         28         29         30
    26  H    0.000000
    27  H    5.883413   0.000000
    28  H    4.908440   1.795509   0.000000
    29  H    5.239270   1.795588   1.778594   0.000000
    30  H    4.325391   4.126819   4.684893   4.143127   0.000000
    31  H    3.769057   4.948254   5.104698   4.279426   1.765899
                   31
    31  H    0.000000
 Stoichiometry    C12H16O3
 Framework group  C1[X(C12H16O3)]
 Deg. of freedom    87
 Full point group                 C1      NOp   1
 Largest Abelian subgroup         C1      NOp   1
 Largest concise Abelian subgroup C1      NOp   1
                         Standard orientation:                         
 ---------------------------------------------------------------------
 Center     Atomic      Atomic             Coordinates (Angstroms)
 Number     Number       Type             X           Y           Z
 ---------------------------------------------------------------------
      1          8           0        3.074206   -1.502158   -1.038049
      2          6           0        2.202363   -0.796694   -0.568322
      3          6           0        1.446679    0.262375   -1.367426
      4          6           0       -0.065014   -0.068330   -1.326297
      5          6           0        1.692118    1.640080   -0.702029
      6          6           0        1.205645    1.602944    0.760639
      7          6           0        1.989616    0.524528    1.534249
      8          6           0        1.744796   -0.861579    0.885880
      9          6           0        0.232070   -1.187924    0.915387
     10          6           0       -0.560737   -0.108201    0.145657
     11          6           0       -2.049982   -0.437523    0.193044
     12          8           0       -2.545989   -1.375123    0.780685
     13          8           0       -2.782377    0.461126   -0.507607
     14          6           0       -4.200828    0.229756   -0.513564
     15          6           0       -0.301256    1.279126    0.796727
     16          1           0        1.815588    0.249801   -2.397949
     17          1           0       -0.251279   -1.036962   -1.808429
     18          1           0       -0.623825    0.686698   -1.890301
     19          1           0        2.759702    1.892043   -0.742351
     20          1           0        1.156920    2.416535   -1.265120
     21          1           0        1.373368    2.582642    1.226245
     22          1           0        3.062176    0.758114    1.532626
     23          1           0        1.668552    0.495775    2.584192
     24          1           0        2.318040   -1.642097    1.395817
     25          1           0       -0.116955   -1.239218    1.953266
     26          1           0        0.042558   -2.173606    0.475381
     27          1           0       -4.626111    1.034479   -1.114040
     28          1           0       -4.429195   -0.743230   -0.956481
     29          1           0       -4.598629    0.257133    0.504328
     30          1           0       -0.870757    2.048969    0.263914
     31          1           0       -0.659692    1.270818    1.835006
 ---------------------------------------------------------------------
 Rotational constants (GHZ):           1.2150194           0.4395581           0.4245674
 Standard basis: 6-31G(d) (6D, 7F)
 There are   257 symmetry adapted cartesian basis functions of A   symmetry.
 There are   257 symmetry adapted basis functions of A   symmetry.
   257 basis functions,   484 primitive gaussians,   257 cartesian basis functions
    56 alpha electrons       56 beta electrons
       nuclear repulsion energy      1088.1602827514 Hartrees.
 NAtoms=   31 NActive=   31 NUniq=   31 SFac= 1.00D+00 NAtFMM=   60 NAOKFM=F Big=F
 Integral buffers will be    131072 words long.
 Raffenetti 2 integral format.
 Two-electron integral symmetry is turned on.
 One-electron integrals computed using PRISM.
 NBasis=   257 RedAO= T EigKep=  2.01D-03  NBF=   257
 NBsUse=   257 1.00D-06 EigRej= -1.00D+00 NBFU=   257
 ExpMin= 1.61D-01 ExpMax= 5.48D+03 ExpMxC= 8.25D+02 IAcc=3 IRadAn=         5 AccDes= 0.00D+00
 Harris functional with IExCor=  402 and IRadAn=       5 diagonalized for initial guess.
 HarFok:  IExCor=  402 AccDes= 0.00D+00 IRadAn=         5 IDoV= 1 UseB2=F ITyADJ=14
 ICtDFT=  3500011 ScaDFX=  1.000000  1.000000  1.000000  1.000000
 FoFCou: FMM=F IPFlag=           0 FMFlag=      100000 FMFlg1=           0
         NFxFlg=           0 DoJE=T BraDBF=F KetDBF=T FulRan=T
         wScrn=  0.000000 ICntrl=       500 IOpCl=  0 I1Cent=   200000004 NGrid=           0
         NMat0=    1 NMatS0=      1 NMatT0=    0 NMatD0=    1 NMtDS0=    0 NMtDT0=    0
 Petite list used in FoFCou.
 Requested convergence on RMS density matrix=1.00D-08 within 128 cycles.
 Requested convergence on MAX density matrix=1.00D-06.
 Requested convergence on             energy=1.00D-06.
 No special actions if energy rises.
 Integral accuracy reduced to 1.0D-05 until final iterations.
 Initial convergence to 1.0D-05 achieved.  Increase integral accuracy.
 SCF Done:  E(RB3LYP) =  -692.608974511     A.U. after   14 cycles
            NFock= 14  Conv=0.75D-08     -V/T= 2.0093
 DoSCS=F DFT=T ScalE2(SS,OS)=  1.000000  1.000000
 Range of M.O.s used for correlation:     1   257
 NBasis=   257 NAE=    56 NBE=    56 NFC=     0 NFV=     0
 NROrb=    257 NOA=    56 NOB=    56 NVA=   201 NVB=   201
 Symmetrizing basis deriv contribution to polar:
 IMax=3 JMax=2 DiffMx= 0.00D+00
 G2DrvN: will do    32 centers at a time, making    1 passes.
 Calling FoFCou, ICntrl=  3107 FMM=F I1Cent=   0 AccDes= 0.00D+00.
 End of G2Drv F.D. properties file   721 does not exist.
 End of G2Drv F.D. properties file   722 does not exist.
 End of G2Drv F.D. properties file   788 does not exist.
          IDoAtm=1111111111111111111111111111111
          Differentiating once with respect to electric field.
                with respect to dipole field.
          Differentiating once with respect to nuclear coordinates.
 Keep R1 ints in memory in canonical form, NReq=560459111.
          There are    96 degrees of freedom in the 1st order CPHF.  IDoFFX=6 NUNeed=     3.
     93 vectors produced by pass  0 Test12= 1.17D-14 1.04D-09 XBig12= 8.66D+01 2.10D+00.
 AX will form    93 AO Fock derivatives at one time.
     93 vectors produced by pass  1 Test12= 1.17D-14 1.04D-09 XBig12= 1.80D+01 1.36D+00.
     93 vectors produced by pass  2 Test12= 1.17D-14 1.04D-09 XBig12= 1.06D-01 3.49D-02.
     93 vectors produced by pass  3 Test12= 1.17D-14 1.04D-09 XBig12= 4.11D-04 4.74D-03.
     93 vectors produced by pass  4 Test12= 1.17D-14 1.04D-09 XBig12= 6.24D-07 9.35D-05.
     58 vectors produced by pass  5 Test12= 1.17D-14 1.04D-09 XBig12= 4.98D-10 2.15D-06.
      6 vectors produced by pass  6 Test12= 1.17D-14 1.04D-09 XBig12= 3.41D-13 6.39D-08.
      3 vectors produced by pass  7 Test12= 1.17D-14 1.04D-09 XBig12= 2.88D-16 1.78D-09.
 InvSVY:  IOpt=1 It=  1 EMax= 1.07D-14
 Solved reduced A of dimension   532 with    96 vectors.
 Isotropic polarizability for W=    0.000000      121.27 Bohr**3.
 End of Minotr F.D. properties file   721 does not exist.
 End of Minotr F.D. properties file   722 does not exist.
 End of Minotr F.D. properties file   788 does not exist.

 **********************************************************************

            Population analysis using the SCF density.

 **********************************************************************

 Orbital symmetries:
       Occupied  (A) (A) (A) (A) (A) (A) (A) (A) (A) (A) (A) (A)
                 (A) (A) (A) (A) (A) (A) (A) (A) (A) (A) (A) (A)
                 (A) (A) (A) (A) (A) (A) (A) (A) (A) (A) (A) (A)
                 (A) (A) (A) (A) (A) (A) (A) (A) (A) (A) (A) (A)
                 (A) (A) (A) (A) (A) (A) (A) (A)
       Virtual   (A) (A) (A) (A) (A) (A) (A) (A) (A) (A) (A) (A)
                 (A) (A) (A) (A) (A) (A) (A) (A) (A) (A) (A) (A)
                 (A) (A) (A) (A) (A) (A) (A) (A) (A) (A) (A) (A)
                 (A) (A) (A) (A) (A) (A) (A) (A) (A) (A) (A) (A)
                 (A) (A) (A) (A) (A) (A) (A) (A) (A) (A) (A) (A)
                 (A) (A) (A) (A) (A) (A) (A) (A) (A) (A) (A) (A)
                 (A) (A) (A) (A) (A) (A) (A) (A) (A) (A) (A) (A)
                 (A) (A) (A) (A) (A) (A) (A) (A) (A) (A) (A) (A)
                 (A) (A) (A) (A) (A) (A) (A) (A) (A) (A) (A) (A)
                 (A) (A) (A) (A) (A) (A) (A) (A) (A) (A) (A) (A)
                 (A) (A) (A) (A) (A) (A) (A) (A) (A) (A) (A) (A)
                 (A) (A) (A) (A) (A) (A) (A) (A) (A) (A) (A) (A)
                 (A) (A) (A) (A) (A) (A) (A) (A) (A) (A) (A) (A)
                 (A) (A) (A) (A) (A) (A) (A) (A) (A) (A) (A) (A)
                 (A) (A) (A) (A) (A) (A) (A) (A) (A) (A) (A) (A)
                 (A) (A) (A) (A) (A) (A) (A) (A) (A) (A) (A) (A)
                 (A) (A) (A) (A) (A) (A) (A) (A) (A)
 The electronic state is 1-A.
 Alpha  occ. eigenvalues --  -19.19718 -19.14002 -19.13346 -10.31484 -10.26457
 Alpha  occ. eigenvalues --  -10.24509 -10.21596 -10.20000 -10.19855 -10.19725
 Alpha  occ. eigenvalues --  -10.19477 -10.19465 -10.19421 -10.19345 -10.19090
 Alpha  occ. eigenvalues --   -1.10532  -1.03173  -1.01674  -0.88104  -0.79542
 Alpha  occ. eigenvalues --   -0.78308  -0.76889  -0.72760  -0.68029  -0.65461
 Alpha  occ. eigenvalues --   -0.61936  -0.60620  -0.57958  -0.55965  -0.52559
 Alpha  occ. eigenvalues --   -0.48952  -0.48449  -0.47762  -0.46294  -0.45714
 Alpha  occ. eigenvalues --   -0.44779  -0.44419  -0.43924  -0.42398  -0.41928
 Alpha  occ. eigenvalues --   -0.40989  -0.40582  -0.39850  -0.38403  -0.36872
 Alpha  occ. eigenvalues --   -0.36659  -0.36159  -0.34383  -0.34115  -0.33923
 Alpha  occ. eigenvalues --   -0.31794  -0.30934  -0.30485  -0.30010  -0.26910
 Alpha  occ. eigenvalues --   -0.23085
 Alpha virt. eigenvalues --   -0.01051   0.00574   0.06534   0.10696   0.11566
 Alpha virt. eigenvalues --    0.11742   0.11850   0.12708   0.13238   0.13395
 Alpha virt. eigenvalues --    0.14165   0.15248   0.15777   0.16500   0.17165
 Alpha virt. eigenvalues --    0.17787   0.18736   0.19122   0.19476   0.19696
 Alpha virt. eigenvalues --    0.20844   0.21068   0.21796   0.23131   0.23872
 Alpha virt. eigenvalues --    0.24354   0.25407   0.27128   0.28294   0.28734
 Alpha virt. eigenvalues --    0.29497   0.33620   0.35452   0.37074   0.39478
 Alpha virt. eigenvalues --    0.49996   0.50659   0.50853   0.51163   0.52220
 Alpha virt. eigenvalues --    0.53871   0.54911   0.55683   0.57092   0.59481
 Alpha virt. eigenvalues --    0.60006   0.61817   0.62790   0.63846   0.64466
 Alpha virt. eigenvalues --    0.65232   0.65733   0.66851   0.67705   0.69903
 Alpha virt. eigenvalues --    0.70967   0.72279   0.73609   0.74480   0.74888
 Alpha virt. eigenvalues --    0.76559   0.77202   0.78985   0.79729   0.80833
 Alpha virt. eigenvalues --    0.82791   0.84041   0.84699   0.85407   0.85904
 Alpha virt. eigenvalues --    0.86144   0.86320   0.86755   0.88296   0.89904
 Alpha virt. eigenvalues --    0.90882   0.91945   0.92602   0.93084   0.93500
 Alpha virt. eigenvalues --    0.94325   0.96045   0.97339   0.98003   1.01099
 Alpha virt. eigenvalues --    1.02583   1.05089   1.07242   1.09500   1.10339
 Alpha virt. eigenvalues --    1.10493   1.13338   1.16835   1.18006   1.20448
 Alpha virt. eigenvalues --    1.21517   1.23125   1.23954   1.28312   1.29318
 Alpha virt. eigenvalues --    1.34793   1.36577   1.37726   1.43059   1.44894
 Alpha virt. eigenvalues --    1.47638   1.50877   1.51991   1.56115   1.60552
 Alpha virt. eigenvalues --    1.60949   1.63485   1.64291   1.65523   1.66675
 Alpha virt. eigenvalues --    1.69970   1.72544   1.73784   1.74546   1.75905
 Alpha virt. eigenvalues --    1.76745   1.78511   1.80091   1.80337   1.82264
 Alpha virt. eigenvalues --    1.83495   1.85284   1.85457   1.86817   1.88733
 Alpha virt. eigenvalues --    1.90340   1.92078   1.92876   1.99636   2.00346
 Alpha virt. eigenvalues --    2.00862   2.01358   2.04186   2.06444   2.07061
 Alpha virt. eigenvalues --    2.08042   2.08697   2.10329   2.11070   2.13319
 Alpha virt. eigenvalues --    2.14051   2.15509   2.19724   2.21994   2.23600
 Alpha virt. eigenvalues --    2.26393   2.26895   2.29312   2.29917   2.32218
 Alpha virt. eigenvalues --    2.33222   2.35434   2.37380   2.38054   2.39511
 Alpha virt. eigenvalues --    2.40878   2.44160   2.45721   2.46648   2.48933
 Alpha virt. eigenvalues --    2.54021   2.55775   2.58473   2.62673   2.65387
 Alpha virt. eigenvalues --    2.67585   2.69109   2.69682   2.71339   2.73288
 Alpha virt. eigenvalues --    2.73659   2.75285   2.78322   2.79237   2.81133
 Alpha virt. eigenvalues --    2.89017   2.94929   3.01174   3.03267   3.05376
 Alpha virt. eigenvalues --    3.19127   4.00373   4.09799   4.12956   4.20766
 Alpha virt. eigenvalues --    4.25224   4.28556   4.29641   4.33026   4.50022
 Alpha virt. eigenvalues --    4.50801   4.56358   4.71698   4.79381   4.82844
 Alpha virt. eigenvalues --    4.86786
          Condensed to atoms (all electrons):
               1          2          3          4          5          6
     1  O    8.010212   0.579318  -0.073765   0.001019   0.000942   0.000036
     2  C    0.579318   4.518387   0.328584  -0.027767  -0.030353  -0.020175
     3  C   -0.073765   0.328584   5.230301   0.325797   0.340551  -0.027038
     4  C    0.001019  -0.027767   0.325797   5.145696  -0.039468  -0.017154
     5  C    0.000942  -0.030353   0.340551  -0.039468   5.096426   0.376193
     6  C    0.000036  -0.020175  -0.027038  -0.017154   0.376193   4.934699
     7  C    0.000934  -0.029946  -0.007946  -0.002620  -0.049796   0.374419
     8  C   -0.073206   0.328011  -0.125714  -0.006237  -0.008203  -0.028722
     9  C    0.000940  -0.025670  -0.006242  -0.053987  -0.002396  -0.014277
    10  C    0.000118  -0.020497  -0.021946   0.354261  -0.017328  -0.023681
    11  C    0.000000  -0.000040   0.002869  -0.035505  -0.000000   0.002944
    12  O    0.000000  -0.000015  -0.000049   0.000148  -0.000002  -0.000053
    13  O    0.000000  -0.000008   0.000199   0.001240  -0.000003   0.000179
    14  C   -0.000000   0.000000   0.000004  -0.000108  -0.000000   0.000004
    15  C   -0.000031  -0.002792  -0.015357  -0.045130  -0.046828   0.366734
    16  H    0.004328  -0.031059   0.345999  -0.031822  -0.030852   0.004109
    17  H    0.000719  -0.001306  -0.038326   0.366396   0.005045   0.000043
    18  H   -0.000079   0.003321  -0.027861   0.358793  -0.005875  -0.000784
    19  H    0.000758  -0.000702  -0.039594   0.005181   0.367892  -0.035146
    20  H   -0.000082   0.003536  -0.031189  -0.005590   0.360793  -0.033377
    21  H   -0.000001   0.000268   0.004560   0.000155  -0.037521   0.370419
    22  H    0.000750  -0.000787  -0.000074   0.000034  -0.004257  -0.035189
    23  H   -0.000082   0.003576  -0.000298   0.000112   0.005191  -0.033176
    24  H    0.004181  -0.031760   0.007064  -0.000083  -0.000057   0.004177
    25  H   -0.000077   0.003379  -0.000267   0.005364   0.000103  -0.000958
    26  H    0.000663  -0.001108   0.000222  -0.004945  -0.000011   0.000085
    27  H    0.000000   0.000000  -0.000000  -0.000019  -0.000000  -0.000000
    28  H    0.000000   0.000000  -0.000001  -0.000113   0.000000   0.000000
    29  H    0.000000  -0.000000   0.000001   0.000027   0.000000  -0.000001
    30  H    0.000000   0.000140  -0.001162  -0.004516  -0.003635  -0.032078
    31  H    0.000000   0.000138  -0.000067   0.005477   0.005092  -0.034622
               7          8          9         10         11         12
     1  O    0.000934  -0.073206   0.000940   0.000118   0.000000   0.000000
     2  C   -0.029946   0.328011  -0.025670  -0.020497  -0.000040  -0.000015
     3  C   -0.007946  -0.125714  -0.006242  -0.021946   0.002869  -0.000049
     4  C   -0.002620  -0.006237  -0.053987   0.354261  -0.035505   0.000148
     5  C   -0.049796  -0.008203  -0.002396  -0.017328  -0.000000  -0.000002
     6  C    0.374419  -0.028722  -0.014277  -0.023681   0.002944  -0.000053
     7  C    5.099364   0.335772  -0.036490  -0.017369  -0.000134  -0.000012
     8  C    0.335772   5.249308   0.310748  -0.019039   0.004427   0.000640
     9  C   -0.036490   0.310748   5.133887   0.360045  -0.041786   0.003281
    10  C   -0.017369  -0.019039   0.360045   5.088995   0.345381  -0.075064
    11  C   -0.000134   0.004427  -0.041786   0.345381   4.381789   0.549389
    12  O   -0.000012   0.000640   0.003281  -0.075064   0.549389   8.064115
    13  O   -0.000006  -0.000018   0.003219  -0.102416   0.247860  -0.082776
    14  C    0.000000   0.000001  -0.000200   0.007949  -0.018691   0.003673
    15  C   -0.045958  -0.012864  -0.051108   0.361641  -0.037987  -0.000346
    16  H   -0.000071   0.007088  -0.000131   0.003796  -0.000089   0.000000
    17  H   -0.000010   0.000493  -0.005051  -0.037910  -0.002703   0.000569
    18  H    0.000103  -0.000348   0.005360  -0.031416  -0.006936   0.000031
    19  H   -0.004167  -0.000096   0.000061   0.000187   0.000012  -0.000000
    20  H    0.005191  -0.000285   0.000101  -0.001257  -0.000088   0.000000
    21  H   -0.037586   0.004672   0.000018   0.004489  -0.000080   0.000000
    22  H    0.367859  -0.039302   0.004970   0.000232   0.000015  -0.000000
    23  H    0.360926  -0.031247  -0.005343  -0.001283  -0.000097  -0.000001
    24  H   -0.031243   0.347432  -0.031545   0.003729  -0.000101   0.000001
    25  H   -0.005821  -0.030338   0.361260  -0.030981  -0.005298   0.004540
    26  H    0.004881  -0.038294   0.368493  -0.033138  -0.005151   0.003871
    27  H    0.000000  -0.000000   0.000001  -0.000004   0.004822   0.000760
    28  H   -0.000000  -0.000000   0.000009   0.000031  -0.005427   0.005905
    29  H    0.000000  -0.000000   0.000005   0.000011  -0.005382   0.005959
    30  H    0.004878  -0.000125   0.005344  -0.034606  -0.006628   0.000024
    31  H   -0.003838  -0.001038  -0.004434  -0.038997  -0.002277   0.000741
              13         14         15         16         17         18
     1  O    0.000000  -0.000000  -0.000031   0.004328   0.000719  -0.000079
     2  C   -0.000008   0.000000  -0.002792  -0.031059  -0.001306   0.003321
     3  C    0.000199   0.000004  -0.015357   0.345999  -0.038326  -0.027861
     4  C    0.001240  -0.000108  -0.045130  -0.031822   0.366396   0.358793
     5  C   -0.000003  -0.000000  -0.046828  -0.030852   0.005045  -0.005875
     6  C    0.000179   0.000004   0.366734   0.004109   0.000043  -0.000784
     7  C   -0.000006   0.000000  -0.045958  -0.000071  -0.000010   0.000103
     8  C   -0.000018   0.000001  -0.012864   0.007088   0.000493  -0.000348
     9  C    0.003219  -0.000200  -0.051108  -0.000131  -0.005051   0.005360
    10  C   -0.102416   0.007949   0.361641   0.003796  -0.037910  -0.031416
    11  C    0.247860  -0.018691  -0.037987  -0.000089  -0.002703  -0.006936
    12  O   -0.082776   0.003673  -0.000346   0.000000   0.000569   0.000031
    13  O    8.265024   0.209650   0.000820  -0.000001   0.000007   0.007386
    14  C    0.209650   4.891653  -0.000121  -0.000000  -0.000069  -0.000226
    15  C    0.000820  -0.000121   5.119047   0.000205   0.005279  -0.004282
    16  H   -0.000001  -0.000000   0.000205   0.596090  -0.002544  -0.003864
    17  H    0.000007  -0.000069   0.005279  -0.002544   0.586707  -0.033294
    18  H    0.007386  -0.000226  -0.004282  -0.003864  -0.033294   0.571834
    19  H   -0.000000   0.000000   0.005063  -0.002584  -0.000158  -0.000045
    20  H   -0.000014   0.000000  -0.003385  -0.003986  -0.000064   0.005484
    21  H   -0.000001  -0.000000  -0.039644  -0.000136   0.000017  -0.000079
    22  H   -0.000000   0.000000   0.005034  -0.000085  -0.000005   0.000001
    23  H    0.000000  -0.000000  -0.003667   0.000023   0.000001  -0.000005
    24  H    0.000000  -0.000000   0.000146  -0.000178  -0.000082   0.000022
    25  H    0.000059  -0.000009  -0.004145   0.000022  -0.000006  -0.000194
    26  H    0.000057  -0.000009   0.005145  -0.000072   0.004435  -0.000007
    27  H   -0.032832   0.377286  -0.000013  -0.000000  -0.000002  -0.000003
    28  H   -0.031110   0.374158   0.000021   0.000000   0.000015   0.000024
    29  H   -0.031192   0.373790  -0.000104  -0.000000  -0.000000   0.000015
    30  H    0.007217  -0.000241   0.362978  -0.000062  -0.000058   0.004510
    31  H   -0.000047  -0.000062   0.363191   0.000017  -0.000158  -0.000075
              19         20         21         22         23         24
     1  O    0.000758  -0.000082  -0.000001   0.000750  -0.000082   0.004181
     2  C   -0.000702   0.003536   0.000268  -0.000787   0.003576  -0.031760
     3  C   -0.039594  -0.031189   0.004560  -0.000074  -0.000298   0.007064
     4  C    0.005181  -0.005590   0.000155   0.000034   0.000112  -0.000083
     5  C    0.367892   0.360793  -0.037521  -0.004257   0.005191  -0.000057
     6  C   -0.035146  -0.033377   0.370419  -0.035189  -0.033176   0.004177
     7  C   -0.004167   0.005191  -0.037586   0.367859   0.360926  -0.031243
     8  C   -0.000096  -0.000285   0.004672  -0.039302  -0.031247   0.347432
     9  C    0.000061   0.000101   0.000018   0.004970  -0.005343  -0.031545
    10  C    0.000187  -0.001257   0.004489   0.000232  -0.001283   0.003729
    11  C    0.000012  -0.000088  -0.000080   0.000015  -0.000097  -0.000101
    12  O   -0.000000   0.000000   0.000000  -0.000000  -0.000001   0.000001
    13  O   -0.000000  -0.000014  -0.000001  -0.000000   0.000000   0.000000
    14  C    0.000000   0.000000  -0.000000   0.000000  -0.000000  -0.000000
    15  C    0.005063  -0.003385  -0.039644   0.005034  -0.003667   0.000146
    16  H   -0.002584  -0.003986  -0.000136  -0.000085   0.000023  -0.000178
    17  H   -0.000158  -0.000064   0.000017  -0.000005   0.000001  -0.000082
    18  H   -0.000045   0.005484  -0.000079   0.000001  -0.000005   0.000022
    19  H    0.590932  -0.034858  -0.003478   0.004234   0.000010  -0.000085
    20  H   -0.034858   0.598214  -0.003175   0.000010  -0.000199   0.000023
    21  H   -0.003478  -0.003175   0.621081  -0.003401  -0.003149  -0.000139
    22  H    0.004234   0.000010  -0.003401   0.591719  -0.034800  -0.002489
    23  H    0.000010  -0.000199  -0.003149  -0.034800   0.597145  -0.004022
    24  H   -0.000085   0.000023  -0.000139  -0.002489  -0.004022   0.595457
    25  H    0.000000  -0.000004  -0.000078  -0.000051   0.005484  -0.003832
    26  H   -0.000005   0.000001   0.000017  -0.000150  -0.000059  -0.002594
    27  H    0.000000   0.000000  -0.000000  -0.000000  -0.000000   0.000000
    28  H   -0.000000  -0.000000  -0.000000   0.000000   0.000000  -0.000000
    29  H   -0.000000  -0.000000   0.000000  -0.000000  -0.000000  -0.000000
    30  H   -0.000030   0.004436  -0.003576  -0.000150  -0.000051   0.000016
    31  H   -0.000161  -0.000061  -0.003490  -0.000042   0.004611  -0.000070
              25         26         27         28         29         30
     1  O   -0.000077   0.000663   0.000000   0.000000   0.000000   0.000000
     2  C    0.003379  -0.001108   0.000000   0.000000  -0.000000   0.000140
     3  C   -0.000267   0.000222  -0.000000  -0.000001   0.000001  -0.001162
     4  C    0.005364  -0.004945  -0.000019  -0.000113   0.000027  -0.004516
     5  C    0.000103  -0.000011  -0.000000   0.000000   0.000000  -0.003635
     6  C   -0.000958   0.000085  -0.000000   0.000000  -0.000001  -0.032078
     7  C   -0.005821   0.004881   0.000000  -0.000000   0.000000   0.004878
     8  C   -0.030338  -0.038294  -0.000000  -0.000000  -0.000000  -0.000125
     9  C    0.361260   0.368493   0.000001   0.000009   0.000005   0.005344
    10  C   -0.030981  -0.033138  -0.000004   0.000031   0.000011  -0.034606
    11  C   -0.005298  -0.005151   0.004822  -0.005427  -0.005382  -0.006628
    12  O    0.004540   0.003871   0.000760   0.005905   0.005959   0.000024
    13  O    0.000059   0.000057  -0.032832  -0.031110  -0.031192   0.007217
    14  C   -0.000009  -0.000009   0.377286   0.374158   0.373790  -0.000241
    15  C   -0.004145   0.005145  -0.000013   0.000021  -0.000104   0.362978
    16  H    0.000022  -0.000072  -0.000000   0.000000  -0.000000  -0.000062
    17  H   -0.000006   0.004435  -0.000002   0.000015  -0.000000  -0.000058
    18  H   -0.000194  -0.000007  -0.000003   0.000024   0.000015   0.004510
    19  H    0.000000  -0.000005   0.000000  -0.000000  -0.000000  -0.000030
    20  H   -0.000004   0.000001   0.000000  -0.000000  -0.000000   0.004436
    21  H   -0.000078   0.000017  -0.000000  -0.000000   0.000000  -0.003576
    22  H   -0.000051  -0.000150  -0.000000   0.000000  -0.000000  -0.000150
    23  H    0.005484  -0.000059  -0.000000   0.000000  -0.000000  -0.000051
    24  H   -0.003832  -0.002594   0.000000  -0.000000  -0.000000   0.000016
    25  H    0.575809  -0.031852  -0.000000  -0.000001   0.000001  -0.000067
    26  H   -0.031852   0.571604  -0.000000   0.000000  -0.000001  -0.000161
    27  H   -0.000000  -0.000000   0.548108  -0.031396  -0.031477  -0.000000
    28  H   -0.000001   0.000000  -0.031396   0.552958  -0.037283   0.000016
    29  H    0.000001  -0.000001  -0.031477  -0.037283   0.554335   0.000018
    30  H   -0.000067  -0.000161  -0.000000   0.000016   0.000018   0.579053
    31  H    0.004898  -0.000057  -0.000002  -0.000000   0.000017  -0.033276
              31
     1  O    0.000000
     2  C    0.000138
     3  C   -0.000067
     4  C    0.005477
     5  C    0.005092
     6  C   -0.034622
     7  C   -0.003838
     8  C   -0.001038
     9  C   -0.004434
    10  C   -0.038997
    11  C   -0.002277
    12  O    0.000741
    13  O   -0.000047
    14  C   -0.000062
    15  C    0.363191
    16  H    0.000017
    17  H   -0.000158
    18  H   -0.000075
    19  H   -0.000161
    20  H   -0.000061
    21  H   -0.003490
    22  H   -0.000042
    23  H    0.004611
    24  H   -0.000070
    25  H    0.004898
    26  H   -0.000057
    27  H   -0.000002
    28  H   -0.000000
    29  H    0.000017
    30  H   -0.033276
    31  H    0.598805
 Mulliken charges:
               1
     1  O   -0.457597
     2  C    0.455326
     3  C   -0.169252
     4  C   -0.294634
     5  C   -0.281644
     6  C   -0.097613
     7  C   -0.281315
     8  C   -0.173516
     9  C   -0.279082
    10  C   -0.023934
    11  C    0.634893
    12  O   -0.485330
    13  O   -0.462494
    14  C   -0.218433
    15  C   -0.281543
    16  H    0.145858
    17  H    0.152019
    18  H    0.158490
    19  H    0.146778
    20  H    0.139826
    21  H    0.129838
    22  H    0.145925
    23  H    0.140398
    24  H    0.146027
    25  H    0.153061
    26  H    0.158139
    27  H    0.164772
    28  H    0.172195
    29  H    0.171264
    30  H    0.151791
    31  H    0.139784
 Sum of Mulliken charges =  -0.00000
 Mulliken charges with hydrogens summed into heavy atoms:
               1
     1  O   -0.457597
     2  C    0.455326
     3  C   -0.023394
     4  C    0.015875
     5  C    0.004961
     6  C    0.032225
     7  C    0.005009
     8  C   -0.027488
     9  C    0.032118
    10  C   -0.023934
    11  C    0.634893
    12  O   -0.485330
    13  O   -0.462494
    14  C    0.289798
    15  C    0.010033
 APT charges:
               1
     1  O   -0.639698
     2  C    0.695366
     3  C   -0.045161
     4  C    0.103813
     5  C    0.115080
     6  C    0.105198
     7  C    0.115763
     8  C   -0.044573
     9  C    0.095385
    10  C   -0.052996
    11  C    1.054692
    12  O   -0.676258
    13  O   -0.846905
    14  C    0.509237
    15  C    0.078681
    16  H   -0.051027
    17  H   -0.032413
    18  H   -0.019550
    19  H   -0.041468
    20  H   -0.044513
    21  H   -0.072825
    22  H   -0.041831
    23  H   -0.044583
    24  H   -0.047992
    25  H   -0.022878
    26  H   -0.019207
    27  H   -0.012401
    28  H   -0.026371
    29  H   -0.027218
    30  H   -0.023302
    31  H   -0.040045
 Sum of APT charges =   0.00000
 APT charges with hydrogens summed into heavy atoms:
               1
     1  O   -0.639698
     2  C    0.695366
     3  C   -0.096188
     4  C    0.051850
     5  C    0.029098
     6  C    0.032373
     7  C    0.029350
     8  C   -0.092565
     9  C    0.053301
    10  C   -0.052996
    11  C    1.054692
    12  O   -0.676258
    13  O   -0.846905
    14  C    0.443246
    15  C    0.015334
 Electronic spatial extent (au):  <R**2>=           2959.8786
 Charge=              0.0000 electrons
 Dipole moment (field-independent basis, Debye):
    X=             -2.1620    Y=              3.3292    Z=              0.2744  Tot=              3.9791
 Quadrupole moment (field-independent basis, Debye-Ang):
   XX=            -91.2307   YY=            -92.5609   ZZ=            -87.6025
   XY=              2.5334   XZ=              8.5806   YZ=             -0.1798
 Traceless Quadrupole moment (field-independent basis, Debye-Ang):
   XX=             -0.7660   YY=             -2.0961   ZZ=              2.8622
   XY=              2.5334   XZ=              8.5806   YZ=             -0.1798
 Octapole moment (field-independent basis, Debye-Ang**2):
  XXX=            -92.8138  YYY=              1.8603  ZZZ=             -1.4128  XYY=             -5.9825
  XXY=             36.4494  XXZ=              1.3036  XZZ=             -7.2146  YZZ=              1.6928
  YYZ=             -1.2058  XYZ=            -15.1958
 Hexadecapole moment (field-independent basis, Debye-Ang**3):
 XXXX=          -2334.7694 YYYY=           -698.5149 ZZZZ=           -604.1846 XXXY=             24.3761
 XXXZ=             97.6674 YYYX=             -4.6883 YYYZ=             -0.8585 ZZZX=             -5.5530
 ZZZY=             -2.9917 XXYY=           -582.0880 XXZZ=           -526.1796 YYZZ=           -220.8492
 XXYZ=            -14.3004 YYXZ=             24.2293 ZZXY=             -0.1715
 N-N= 1.088160282751D+03 E-N=-3.788602987409D+03  KE= 6.862415367646D+02
  Exact polarizability: 138.712  -3.226 113.876   0.091  -2.486 111.207
 Approx polarizability: 181.284  -7.676 179.560  -6.039  -6.583 169.906
 Calling FoFJK, ICntrl=    100127 FMM=F ISym2X=0 I1Cent= 0 IOpClX= 0 NMat=1 NMatS=1 NMatT=0.
 Full mass-weighted force constant matrix:
 Low frequencies ---  -13.2394   -0.0004    0.0006    0.0012    1.0929    6.7759
 Low frequencies ---   32.8444   80.4138  112.0970
 Diagonal vibrational polarizability:
       20.0933589      25.0017909      18.3523170
 Harmonic frequencies (cm**-1), IR intensities (KM/Mole), Raman scattering
 activities (A**4/AMU), depolarization ratios for plane and unpolarized
 incident light, reduced masses (AMU), force constants (mDyne/A),
 and normal coordinates:
                      1                      2                      3
                      A                      A                      A
 Frequencies --     32.8160                80.4135               112.0894
 Red. masses --      6.1384                 6.1560                 3.2845
 Frc consts  --      0.0039                 0.0235                 0.0243
 IR Inten    --      0.8924                 1.7894                 1.8579
  Atom  AN      X      Y      Z        X      Y      Z        X      Y      Z
     1   8    -0.02   0.03  -0.09     0.34   0.27   0.12    -0.11  -0.14   0.01
     2   6    -0.01   0.02  -0.05     0.08   0.02   0.01     0.02   0.01   0.03
     3   6    -0.01   0.06   0.01    -0.01  -0.07  -0.03     0.09   0.06   0.02
     4   6    -0.01   0.07   0.00    -0.00  -0.10  -0.06     0.09   0.03  -0.08
     5   6     0.00   0.03   0.07    -0.03  -0.06  -0.04     0.04   0.05   0.05
     6   6     0.01  -0.04   0.07    -0.04  -0.07  -0.04    -0.05   0.03   0.02
     7   6     0.01  -0.08   0.01    -0.06  -0.06  -0.01    -0.08   0.04   0.05
     8   6     0.00  -0.05  -0.05    -0.04  -0.07  -0.03     0.00   0.04   0.02
     9   6     0.00  -0.04  -0.05    -0.03  -0.08  -0.07     0.01  -0.00  -0.07
    10   6     0.00  -0.00  -0.00    -0.03  -0.08  -0.07     0.02  -0.01  -0.10
    11   6    -0.01   0.04   0.05    -0.04  -0.01  -0.02     0.03  -0.04  -0.08
    12   8    -0.04   0.25   0.36    -0.08   0.07   0.08     0.06   0.00   0.01
    13   8     0.03  -0.16  -0.23    -0.01   0.00  -0.03    -0.01  -0.08  -0.08
    14   6     0.02  -0.10  -0.16    -0.04   0.20   0.18    -0.04   0.05   0.23
    15   6     0.01  -0.03   0.07    -0.04  -0.07  -0.07    -0.05  -0.01  -0.08
    16   1    -0.02   0.11   0.00     0.02  -0.07  -0.03     0.15   0.07   0.04
    17   1    -0.02   0.09  -0.05     0.02  -0.11  -0.04     0.14   0.04  -0.12
    18   1    -0.01   0.09   0.04     0.00  -0.11  -0.09     0.11   0.04  -0.09
    19   1     0.00   0.03   0.07    -0.03  -0.05  -0.04     0.04   0.06   0.13
    20   1     0.00   0.06   0.11    -0.04  -0.07  -0.04     0.08   0.05   0.03
    21   1     0.02  -0.06   0.12    -0.05  -0.06  -0.04    -0.11   0.03   0.04
    22   1     0.01  -0.08   0.02    -0.06  -0.06   0.02    -0.08   0.07   0.13
    23   1     0.02  -0.12   0.02    -0.10  -0.06  -0.02    -0.14   0.01   0.03
    24   1     0.00  -0.07  -0.09    -0.04  -0.05  -0.01    -0.01   0.05   0.04
    25   1     0.01  -0.08  -0.05    -0.05  -0.10  -0.08    -0.05  -0.02  -0.09
    26   1    -0.00  -0.02  -0.09    -0.02  -0.07  -0.09     0.07   0.00  -0.10
    27   1     0.05  -0.30  -0.44    -0.01   0.19   0.14    -0.08  -0.06   0.12
    28   1    -0.02  -0.25   0.18    -0.24   0.18   0.33    -0.21  -0.04   0.52
    29   1     0.02   0.27  -0.17     0.10   0.38   0.23     0.16   0.34   0.30
    30   1     0.01  -0.01   0.10    -0.03  -0.08  -0.08    -0.03  -0.02  -0.11
    31   1     0.02  -0.08   0.07    -0.06  -0.07  -0.07    -0.11  -0.02  -0.10
                      4                      5                      6
                      A                      A                      A
 Frequencies --    133.5799               137.5286               223.2137
 Red. masses --      1.7349                 1.7323                 3.8812
 Frc consts  --      0.0182                 0.0193                 0.1139
 IR Inten    --      0.6301                 0.7444                 4.3071
  Atom  AN      X      Y      Z        X      Y      Z        X      Y      Z
     1   8    -0.03  -0.01  -0.03     0.04   0.03   0.03    -0.01  -0.05  -0.01
     2   6    -0.00   0.02  -0.01    -0.01  -0.02   0.00     0.05   0.02  -0.00
     3   6    -0.03   0.01   0.01     0.00  -0.02  -0.01     0.05   0.01  -0.01
     4   6    -0.01  -0.05   0.03    -0.01   0.05  -0.01     0.04  -0.04  -0.08
     5   6    -0.08   0.02  -0.01     0.07  -0.03  -0.00     0.00   0.01   0.02
     6   6    -0.04   0.01   0.00     0.05  -0.01  -0.00    -0.09   0.01  -0.01
     7   6     0.02   0.04  -0.02     0.01  -0.04   0.00    -0.14   0.02   0.06
     8   6     0.04   0.02   0.01    -0.04  -0.03  -0.01     0.02   0.02  -0.01
     9   6     0.04  -0.02   0.04    -0.04   0.03  -0.02     0.04  -0.08  -0.13
    10   6     0.01  -0.05   0.04    -0.01   0.06  -0.01     0.02  -0.06  -0.08
    11   6     0.01  -0.04   0.01    -0.01   0.04   0.00     0.01   0.02   0.08
    12   8    -0.04  -0.05  -0.05     0.04  -0.02  -0.05     0.01   0.05   0.12
    13   8     0.07   0.01   0.01    -0.07   0.03   0.05     0.01   0.15   0.25
    14   6     0.06   0.12  -0.05    -0.05  -0.11   0.02     0.05  -0.03  -0.10
    15   6    -0.02  -0.04   0.04     0.03   0.05  -0.01    -0.06  -0.04  -0.11
    16   1    -0.04   0.01  -0.00     0.00  -0.03  -0.01     0.08   0.04  -0.00
    17   1     0.02  -0.07   0.05    -0.06   0.07  -0.02     0.10  -0.05  -0.09
    18   1    -0.05  -0.09   0.03     0.02   0.08   0.00     0.04  -0.06  -0.09
    19   1    -0.09   0.08  -0.04     0.08  -0.09   0.01     0.01   0.01   0.08
    20   1    -0.13  -0.01  -0.00     0.11   0.00  -0.00     0.04   0.02  -0.01
    21   1    -0.06   0.02  -0.01     0.09  -0.02  -0.00    -0.14   0.01  -0.01
    22   1     0.01   0.07  -0.05     0.01  -0.08   0.02    -0.16   0.07   0.23
    23   1     0.06   0.04  -0.00    -0.01  -0.04  -0.00    -0.31  -0.03   0.01
    24   1     0.07   0.04   0.00    -0.06  -0.05  -0.01     0.04   0.05   0.01
    25   1     0.06  -0.01   0.05    -0.05   0.03  -0.02    -0.02  -0.21  -0.15
    26   1     0.06  -0.03   0.06    -0.08   0.04  -0.02     0.13  -0.05  -0.24
    27   1     0.18  -0.13  -0.46    -0.07  -0.43  -0.40     0.10  -0.10  -0.24
    28   1     0.02  -0.07   0.39     0.09  -0.35   0.47     0.30  -0.07  -0.15
    29   1    -0.05   0.63  -0.10    -0.15   0.34  -0.03    -0.23  -0.06  -0.21
    30   1    -0.06  -0.06   0.05     0.07   0.07  -0.02    -0.06  -0.09  -0.18
    31   1     0.00  -0.06   0.05     0.03   0.07  -0.01    -0.13  -0.01  -0.13
                      7                      8                      9
                      A                      A                      A
 Frequencies --    268.2511               275.6946               305.5883
 Red. masses --      2.7980                 2.3737                 4.8900
 Frc consts  --      0.1186                 0.1063                 0.2690
 IR Inten    --      1.9539                 2.0886                 0.6052
  Atom  AN      X      Y      Z        X      Y      Z        X      Y      Z
     1   8    -0.03   0.08  -0.07     0.01  -0.04   0.12    -0.05   0.06   0.05
     2   6    -0.06   0.01  -0.03    -0.02  -0.02   0.04    -0.12  -0.01   0.02
     3   6    -0.07  -0.01  -0.01    -0.03  -0.05  -0.03    -0.09  -0.02  -0.03
     4   6    -0.07   0.04   0.03    -0.08   0.17  -0.02    -0.05  -0.03  -0.03
     5   6     0.14  -0.07   0.02     0.00  -0.04  -0.07    -0.17  -0.01  -0.04
     6   6     0.02   0.00  -0.02    -0.00   0.03  -0.06    -0.04  -0.02   0.01
     7   6    -0.10  -0.02   0.07    -0.01   0.06  -0.02    -0.11  -0.08   0.01
     8   6    -0.01  -0.00  -0.00    -0.01   0.04   0.02    -0.13  -0.07   0.00
     9   6    -0.00   0.03   0.05     0.02  -0.06  -0.13    -0.10  -0.01   0.00
    10   6    -0.01   0.01   0.04    -0.00   0.01   0.00     0.04   0.05  -0.01
    11   6     0.02  -0.08   0.05     0.01  -0.03   0.02     0.17   0.08  -0.03
    12   8     0.05  -0.10   0.04     0.03  -0.04   0.02     0.20   0.06  -0.03
    13   8     0.06  -0.10   0.00     0.03  -0.04   0.00     0.19   0.06  -0.05
    14   6     0.05   0.10  -0.04     0.02   0.04  -0.02     0.23  -0.08   0.09
    15   6    -0.01   0.09  -0.11     0.01  -0.04   0.10    -0.02   0.04   0.02
    16   1    -0.10  -0.02  -0.02    -0.03  -0.10  -0.03    -0.05  -0.03  -0.01
    17   1    -0.10   0.07  -0.01    -0.29   0.30  -0.19    -0.08  -0.07   0.06
    18   1    -0.09   0.07   0.09     0.03   0.39   0.16    -0.09  -0.07  -0.05
    19   1     0.20  -0.31   0.12     0.01  -0.05  -0.05    -0.21   0.11  -0.16
    20   1     0.37   0.07  -0.01     0.02  -0.05  -0.10    -0.33  -0.07   0.02
    21   1     0.04   0.01  -0.03     0.00   0.05  -0.11     0.04  -0.04   0.01
    22   1    -0.11  -0.01   0.27    -0.00   0.03  -0.02    -0.10  -0.14   0.07
    23   1    -0.29  -0.07   0.02    -0.01   0.11  -0.02    -0.17  -0.07  -0.00
    24   1     0.01  -0.00  -0.03    -0.00   0.06   0.05    -0.12  -0.08  -0.03
    25   1     0.03   0.07   0.06    -0.07  -0.29  -0.17    -0.14   0.02  -0.01
    26   1    -0.06   0.02   0.08     0.15   0.01  -0.33    -0.18   0.01  -0.01
    27   1     0.18   0.16  -0.04     0.08   0.08  -0.02     0.07  -0.14   0.12
    28   1    -0.08   0.14  -0.06    -0.04   0.06  -0.04     0.30  -0.12   0.13
    29   1     0.02   0.14  -0.05     0.00   0.06  -0.03     0.34  -0.12   0.13
    30   1     0.08   0.03  -0.29    -0.11  -0.02   0.26    -0.02   0.04   0.02
    31   1    -0.11   0.28  -0.14     0.18  -0.15   0.16    -0.05  -0.00   0.01
                     10                     11                     12
                      A                      A                      A
 Frequencies --    327.1116               363.1141               375.2387
 Red. masses --      3.4448                 4.4354                 3.5285
 Frc consts  --      0.2172                 0.3446                 0.2927
 IR Inten    --     12.6439                 4.6833                 0.2999
  Atom  AN      X      Y      Z        X      Y      Z        X      Y      Z
     1   8     0.01  -0.02   0.09     0.11  -0.09  -0.10    -0.13   0.09   0.03
     2   6    -0.03  -0.01   0.02     0.13  -0.08  -0.05    -0.08   0.11   0.07
     3   6     0.06   0.07   0.00    -0.01  -0.13   0.01    -0.09   0.02  -0.01
     4   6     0.06   0.02  -0.06    -0.01  -0.06   0.04    -0.04  -0.15  -0.06
     5   6    -0.06   0.10   0.01    -0.14  -0.11   0.03    -0.01  -0.00  -0.03
     6   6    -0.00  -0.02   0.02    -0.06   0.00   0.07     0.17  -0.01   0.03
     7   6     0.06  -0.07  -0.11    -0.08  -0.00   0.09     0.08   0.01   0.14
     8   6    -0.10  -0.07  -0.03     0.11   0.02  -0.04     0.01   0.06   0.09
     9   6    -0.10   0.06   0.02     0.06   0.10  -0.08     0.02  -0.05  -0.09
    10   6    -0.01   0.03  -0.07    -0.01   0.15   0.04     0.02  -0.01  -0.06
    11   6     0.01  -0.06   0.03     0.01   0.06  -0.00    -0.01   0.02  -0.01
    12   8     0.17  -0.10   0.11     0.17  -0.01   0.00     0.08  -0.01   0.00
    13   8    -0.04  -0.07   0.08    -0.08  -0.02  -0.04    -0.07  -0.02  -0.02
    14   6    -0.06   0.13  -0.10    -0.11   0.07  -0.05    -0.09   0.04  -0.04
    15   6    -0.01   0.01  -0.03    -0.06   0.12   0.11     0.16  -0.04  -0.01
    16   1     0.11   0.09   0.02    -0.06  -0.04  -0.01    -0.03  -0.05   0.01
    17   1     0.11   0.01  -0.06    -0.09  -0.14   0.23     0.13  -0.27   0.11
    18   1     0.06  -0.00  -0.10     0.05  -0.12  -0.11    -0.15  -0.34  -0.21
    19   1    -0.09   0.24  -0.04    -0.17   0.03  -0.04    -0.01  -0.03  -0.22
    20   1    -0.19   0.03   0.05    -0.26  -0.20   0.02    -0.09   0.04   0.10
    21   1     0.01  -0.06   0.10     0.06   0.02  -0.01     0.13   0.01  -0.01
    22   1     0.08  -0.12  -0.32    -0.10   0.11   0.31     0.10  -0.10   0.23
    23   1     0.27  -0.03  -0.04    -0.26  -0.14   0.03    -0.03   0.07   0.11
    24   1    -0.14  -0.10  -0.04     0.03   0.01   0.03     0.01   0.00  -0.01
    25   1    -0.09   0.23   0.03     0.12  -0.02  -0.07    -0.12  -0.25  -0.15
    26   1    -0.20   0.02   0.15     0.01   0.15  -0.18     0.18   0.00  -0.27
    27   1     0.15   0.20  -0.15    -0.04   0.11  -0.05    -0.03   0.06  -0.04
    28   1    -0.15   0.17  -0.16    -0.19   0.10  -0.07    -0.13   0.05  -0.05
    29   1    -0.20   0.18  -0.16    -0.12   0.11  -0.06    -0.11   0.06  -0.05
    30   1     0.04   0.05  -0.03    -0.04   0.17   0.16     0.19   0.02   0.04
    31   1    -0.06  -0.01  -0.05    -0.06   0.05   0.11     0.16  -0.08  -0.01
                     13                     14                     15
                      A                      A                      A
 Frequencies --    388.8117               428.9809               446.1374
 Red. masses --      3.2019                 2.1764                 1.8207
 Frc consts  --      0.2852                 0.2360                 0.2135
 IR Inten    --      0.5992                 1.5678                 0.8445
  Atom  AN      X      Y      Z        X      Y      Z        X      Y      Z
     1   8     0.01  -0.04   0.01    -0.02   0.04  -0.05    -0.00  -0.01  -0.01
     2   6     0.05   0.02   0.00    -0.02   0.01  -0.02     0.02   0.02   0.00
     3   6     0.08   0.08   0.03     0.04   0.01  -0.03     0.03   0.01  -0.04
     4   6     0.08  -0.03   0.15     0.07  -0.03   0.01     0.01   0.09  -0.04
     5   6     0.01   0.14  -0.10     0.10  -0.01  -0.04    -0.07   0.03  -0.09
     6   6     0.06   0.08  -0.09    -0.03   0.02  -0.07     0.06  -0.05  -0.03
     7   6    -0.12  -0.05  -0.06    -0.10   0.03  -0.01    -0.05  -0.05   0.10
     8   6    -0.07  -0.07  -0.04    -0.06   0.01  -0.01     0.04  -0.02   0.02
     9   6    -0.05  -0.12  -0.05    -0.05  -0.01   0.09     0.03   0.03   0.09
    10   6     0.00   0.03   0.14     0.01  -0.03  -0.00     0.03  -0.03  -0.02
    11   6    -0.02  -0.00   0.06     0.02   0.02  -0.03    -0.01  -0.02  -0.01
    12   8    -0.06  -0.04  -0.02     0.09   0.02   0.01    -0.04   0.00   0.00
    13   8     0.00  -0.05  -0.02    -0.04   0.02  -0.00    -0.02  -0.01   0.01
    14   6    -0.01   0.00   0.01    -0.04   0.02  -0.02    -0.03  -0.00  -0.00
    15   6     0.06   0.11   0.02     0.01  -0.11   0.13     0.06  -0.03  -0.02
    16   1    -0.02   0.01  -0.00     0.04  -0.03  -0.04     0.05  -0.03  -0.04
    17   1     0.18  -0.11   0.26     0.12  -0.07   0.05    -0.11   0.19  -0.20
    18   1     0.02  -0.16   0.05     0.02  -0.10  -0.03     0.07   0.25   0.11
    19   1    -0.02   0.27  -0.18     0.13  -0.14   0.11    -0.14   0.26  -0.26
    20   1    -0.13   0.05  -0.09     0.27   0.05  -0.12    -0.34  -0.08   0.02
    21   1     0.14   0.03  -0.02    -0.05   0.03  -0.09     0.06  -0.05  -0.03
    22   1    -0.10  -0.15   0.13    -0.09   0.01   0.12    -0.05  -0.05   0.39
    23   1    -0.30  -0.01  -0.11    -0.23   0.05  -0.05    -0.34  -0.07   0.01
    24   1    -0.04  -0.03  -0.02    -0.02   0.05   0.01     0.05  -0.04  -0.01
    25   1    -0.02  -0.40  -0.06    -0.01   0.16   0.11     0.07   0.26   0.12
    26   1    -0.06  -0.01  -0.31    -0.10  -0.07   0.23    -0.04  -0.05   0.30
    27   1     0.01   0.02   0.02    -0.03   0.02  -0.02    -0.01   0.00  -0.01
    28   1    -0.06   0.01   0.01    -0.03   0.02  -0.03    -0.03   0.00  -0.01
    29   1     0.02   0.02   0.02    -0.06   0.02  -0.02    -0.04   0.00  -0.01
    30   1     0.01   0.03  -0.04    -0.23  -0.07   0.44     0.07  -0.02  -0.01
    31   1     0.14   0.24   0.04     0.29  -0.37   0.22     0.07  -0.03  -0.02
                     16                     17                     18
                      A                      A                      A
 Frequencies --    456.7408               498.0684               615.7454
 Red. masses --      3.9267                 3.8810                 5.3037
 Frc consts  --      0.4826                 0.5672                 1.1848
 IR Inten    --      9.6097                 2.8702                 0.9076
  Atom  AN      X      Y      Z        X      Y      Z        X      Y      Z
     1   8     0.04  -0.12   0.20     0.01  -0.06   0.16     0.17  -0.11  -0.07
     2   6    -0.00   0.07  -0.14    -0.03   0.04  -0.07     0.04  -0.20  -0.10
     3   6    -0.03   0.07  -0.17    -0.08   0.07  -0.07    -0.11   0.01   0.07
     4   6    -0.04  -0.07  -0.06    -0.06   0.02   0.11    -0.15  -0.05  -0.06
     5   6     0.03   0.01   0.03     0.00   0.04   0.02    -0.01   0.13   0.12
     6   6     0.03  -0.01   0.06    -0.04  -0.03   0.01     0.11   0.25   0.10
     7   6    -0.02  -0.04   0.04    -0.01  -0.03  -0.04    -0.03   0.16   0.02
     8   6    -0.02   0.11  -0.18     0.07   0.00  -0.08    -0.11   0.04  -0.01
     9   6     0.01   0.12  -0.04     0.11  -0.15   0.10    -0.12  -0.08   0.02
    10   6    -0.02   0.04  -0.01     0.05  -0.10   0.10    -0.00  -0.10  -0.05
    11   6    -0.02  -0.05   0.04     0.03   0.09  -0.05    -0.01   0.02   0.02
    12   8    -0.12  -0.03   0.00     0.16   0.06  -0.03     0.03  -0.01  -0.01
    13   8     0.05  -0.04   0.02    -0.08   0.07  -0.06     0.01  -0.00  -0.02
    14   6     0.07  -0.02   0.02    -0.11   0.02  -0.02     0.01  -0.00  -0.00
    15   6     0.02   0.01   0.09    -0.01  -0.05  -0.07     0.18  -0.06  -0.06
    16   1    -0.11   0.22  -0.21    -0.20   0.13  -0.11    -0.16   0.25   0.05
    17   1     0.08  -0.19   0.12    -0.11   0.08   0.00    -0.16   0.03  -0.21
    18   1    -0.15  -0.25  -0.18    -0.16   0.08   0.29    -0.15   0.05   0.08
    19   1     0.06  -0.09   0.07     0.02  -0.05   0.07    -0.01   0.10  -0.09
    20   1     0.12   0.13   0.11     0.08   0.12   0.06    -0.08   0.07   0.11
    21   1     0.06  -0.01   0.04    -0.08  -0.05   0.05    -0.06   0.26   0.15
    22   1    -0.02  -0.04   0.21    -0.03   0.03  -0.03     0.01  -0.01   0.14
    23   1    -0.17  -0.20  -0.01    -0.01  -0.10  -0.04    -0.12   0.10  -0.01
    24   1    -0.01   0.03  -0.31     0.24   0.04  -0.22    -0.14   0.16   0.22
    25   1     0.13   0.23   0.01     0.22  -0.16   0.14    -0.15   0.10   0.02
    26   1    -0.05   0.09   0.08     0.12  -0.16   0.11    -0.11  -0.16   0.19
    27   1     0.07  -0.01   0.02    -0.15   0.01  -0.02    -0.00  -0.00   0.01
    28   1     0.05  -0.01   0.02    -0.10   0.01  -0.02     0.00  -0.00   0.01
    29   1     0.07  -0.02   0.02    -0.09   0.02  -0.01     0.02   0.00   0.01
    30   1    -0.01   0.09   0.23     0.05  -0.18  -0.32     0.11  -0.10  -0.04
    31   1     0.10  -0.12   0.11    -0.16   0.18  -0.12     0.13  -0.11  -0.07
                     19                     20                     21
                      A                      A                      A
 Frequencies --    636.8437               665.8537               716.1621
 Red. masses --      3.5577                 5.2531                 4.0257
 Frc consts  --      0.8501                 1.3722                 1.2165
 IR Inten    --      2.9085                 3.6483                 2.4866
  Atom  AN      X      Y      Z        X      Y      Z        X      Y      Z
     1   8    -0.00  -0.02   0.04     0.04  -0.08  -0.05    -0.07   0.06   0.04
     2   6     0.02  -0.05   0.13     0.20   0.10   0.02    -0.08   0.04   0.03
     3   6    -0.13   0.05   0.16    -0.03   0.07   0.04     0.01  -0.11   0.23
     4   6    -0.14  -0.01  -0.05    -0.10   0.01   0.21     0.07  -0.02   0.15
     5   6     0.03   0.15  -0.01     0.06   0.07  -0.08    -0.02  -0.10   0.09
     6   6    -0.02   0.02  -0.08     0.00  -0.19  -0.09     0.05   0.04   0.01
     7   6    -0.05  -0.09  -0.12     0.09  -0.01   0.09    -0.05   0.01  -0.13
     8   6     0.17  -0.15   0.03    -0.03   0.08   0.03    -0.04   0.11  -0.22
     9   6     0.13   0.07  -0.05    -0.14   0.16  -0.09     0.04   0.10  -0.11
    10   6    -0.01   0.04  -0.07    -0.18  -0.01   0.02     0.00  -0.04  -0.03
    11   6     0.00   0.01   0.02    -0.07   0.02   0.00    -0.01  -0.02  -0.04
    12   8    -0.01   0.00  -0.01     0.09  -0.04   0.03    -0.00   0.00   0.01
    13   8    -0.00   0.00  -0.01     0.03   0.07  -0.05     0.00   0.01   0.01
    14   6     0.00   0.00  -0.00     0.07   0.00   0.01    -0.00  -0.00   0.00
    15   6    -0.01   0.00  -0.02    -0.03  -0.21  -0.10     0.10  -0.09  -0.06
    16   1    -0.06  -0.05   0.19    -0.32  -0.03  -0.06    -0.03  -0.08   0.22
    17   1     0.03  -0.10   0.05    -0.04   0.01   0.21    -0.01   0.08  -0.01
    18   1    -0.19  -0.15  -0.18    -0.09  -0.02   0.16     0.27   0.15   0.19
    19   1     0.09  -0.09   0.05     0.06   0.10  -0.08    -0.06   0.03  -0.09
    20   1     0.23   0.24  -0.08     0.01   0.12   0.04    -0.20  -0.31  -0.01
    21   1     0.01  -0.09   0.15    -0.26  -0.16  -0.05    -0.02   0.04   0.02
    22   1    -0.07   0.01   0.11     0.09   0.00   0.10    -0.04  -0.04   0.10
    23   1    -0.25  -0.11  -0.18     0.03   0.10   0.08    -0.23  -0.22  -0.19
    24   1     0.11  -0.12   0.13    -0.29  -0.09   0.07    -0.06   0.12  -0.19
    25   1     0.18   0.26  -0.03    -0.13   0.09  -0.09     0.24   0.27  -0.03
    26   1    -0.00   0.02   0.12    -0.07   0.15  -0.10     0.00   0.02   0.09
    27   1    -0.01  -0.00   0.00    -0.06  -0.05   0.03    -0.01  -0.01  -0.00
    28   1    -0.00  -0.00   0.00     0.13  -0.03   0.04     0.02  -0.00   0.00
    29   1     0.01  -0.00   0.00     0.15  -0.03   0.04    -0.00  -0.01  -0.00
    30   1    -0.16   0.07   0.23     0.04  -0.14  -0.07     0.10  -0.09  -0.06
    31   1     0.19  -0.22   0.05     0.03  -0.14  -0.08     0.09  -0.09  -0.06
                     22                     23                     24
                      A                      A                      A
 Frequencies --    744.1799               781.0954               793.2895
 Red. masses --      7.0251                 4.1042                 3.9545
 Frc consts  --      2.2922                 1.4753                 1.4663
 IR Inten    --      4.7464                 2.3818                 4.9253
  Atom  AN      X      Y      Z        X      Y      Z        X      Y      Z
     1   8    -0.03   0.01  -0.01    -0.05  -0.02  -0.00    -0.01  -0.06  -0.02
     2   6     0.05   0.07   0.04     0.17   0.19   0.07     0.23   0.19   0.06
     3   6     0.10   0.00  -0.01     0.03  -0.04   0.04    -0.08   0.04   0.00
     4   6    -0.01  -0.02  -0.15    -0.06  -0.06  -0.12    -0.04  -0.02   0.04
     5   6    -0.05  -0.06   0.10    -0.01  -0.04  -0.01    -0.10  -0.09   0.05
     6   6    -0.08  -0.12  -0.04     0.05   0.08   0.03     0.00  -0.04  -0.02
     7   6    -0.09   0.02  -0.08    -0.01  -0.04  -0.02    -0.10  -0.02  -0.07
     8   6    -0.02   0.03   0.00     0.02   0.01  -0.07    -0.04   0.01   0.04
     9   6    -0.00   0.00   0.01    -0.04  -0.14   0.03    -0.06  -0.03  -0.02
    10   6     0.02   0.05   0.07    -0.14  -0.08  -0.01     0.09   0.00  -0.03
    11   6    -0.04   0.33   0.48    -0.13  -0.03   0.01     0.12  -0.03  -0.11
    12   8     0.00  -0.07  -0.13     0.06  -0.12   0.08    -0.04   0.11  -0.05
    13   8     0.01  -0.09  -0.09     0.01   0.14  -0.10    -0.01  -0.12   0.11
    14   6    -0.01  -0.00  -0.00     0.05   0.01  -0.00    -0.03  -0.01   0.01
    15   6     0.14  -0.12  -0.08    -0.03   0.13   0.07     0.10   0.05   0.01
    16   1     0.28   0.07   0.05     0.13  -0.05   0.08    -0.14   0.16  -0.02
    17   1    -0.08   0.01  -0.17    -0.16   0.06  -0.33    -0.16   0.04  -0.04
    18   1     0.08   0.07  -0.13     0.15   0.15  -0.04    -0.03   0.08   0.17
    19   1    -0.06   0.01   0.24     0.02  -0.14  -0.04    -0.03  -0.35   0.14
    20   1    -0.04  -0.04   0.12     0.07  -0.02  -0.06     0.14   0.11   0.11
    21   1    -0.16  -0.11  -0.03     0.23   0.06   0.00     0.17  -0.05  -0.06
    22   1    -0.11   0.10  -0.21     0.01  -0.11  -0.09    -0.09  -0.07  -0.32
    23   1     0.01   0.09  -0.05     0.08  -0.05   0.00     0.12   0.17  -0.00
    24   1     0.02   0.09   0.04     0.10   0.05  -0.10    -0.05   0.07   0.13
    25   1     0.06   0.01   0.03     0.18   0.08   0.11    -0.06   0.18  -0.01
    26   1    -0.06   0.02   0.01    -0.09  -0.23   0.27    -0.16  -0.07   0.13
    27   1     0.02   0.05   0.05    -0.23  -0.10   0.04     0.22   0.08  -0.05
    28   1    -0.15   0.02   0.02     0.18  -0.05   0.07    -0.13   0.05  -0.07
    29   1     0.09   0.04   0.03     0.19  -0.07   0.05    -0.18   0.05  -0.05
    30   1     0.13  -0.12  -0.06    -0.01   0.14   0.07     0.11   0.05   0.01
    31   1     0.17  -0.08  -0.06    -0.02   0.15   0.08     0.11   0.03   0.01
                     25                     26                     27
                      A                      A                      A
 Frequencies --    811.4070               857.2734               891.9619
 Red. masses --      2.9831                 2.6822                 3.5660
 Frc consts  --      1.1572                 1.1614                 1.6716
 IR Inten    --      1.4517                 1.6942                 6.5834
  Atom  AN      X      Y      Z        X      Y      Z        X      Y      Z
     1   8    -0.03   0.00   0.00    -0.00   0.02  -0.04     0.00  -0.01  -0.00
     2   6     0.04   0.07   0.03     0.01  -0.02   0.04     0.01  -0.01  -0.00
     3   6     0.01  -0.10  -0.00     0.06  -0.10  -0.09    -0.07   0.05  -0.07
     4   6    -0.02  -0.05   0.03    -0.07  -0.08  -0.02     0.11   0.02   0.07
     5   6     0.05   0.07  -0.13     0.08   0.13  -0.01    -0.10  -0.04  -0.04
     6   6    -0.03   0.17   0.09     0.01  -0.04   0.09    -0.04   0.10   0.03
     7   6     0.08  -0.05   0.12    -0.11  -0.09  -0.10    -0.06  -0.04   0.05
     8   6    -0.02  -0.05  -0.08    -0.08   0.13   0.06    -0.07  -0.09   0.07
     9   6    -0.02  -0.00  -0.06     0.08   0.09   0.02     0.09   0.10  -0.09
    10   6     0.05  -0.02  -0.01     0.03  -0.02   0.04     0.18  -0.01  -0.01
    11   6     0.06   0.09   0.08     0.02  -0.03  -0.03    -0.02  -0.06   0.08
    12   8    -0.01   0.05  -0.07    -0.00   0.00   0.01    -0.03  -0.11   0.06
    13   8    -0.00  -0.09   0.04     0.00   0.03  -0.01     0.03   0.14  -0.10
    14   6    -0.02  -0.01   0.00    -0.03  -0.00  -0.00    -0.10   0.01  -0.02
    15   6    -0.10  -0.04  -0.01     0.01  -0.01   0.03     0.08  -0.03  -0.02
    16   1    -0.01  -0.27  -0.01     0.12  -0.28  -0.07    -0.14   0.11  -0.10
    17   1    -0.20   0.03  -0.07    -0.31   0.00  -0.09     0.08   0.04   0.06
    18   1     0.09   0.11   0.13    -0.05   0.07   0.16    -0.00   0.02   0.17
    19   1     0.08  -0.02  -0.15     0.06   0.22  -0.02    -0.03  -0.33   0.07
    20   1     0.13   0.02  -0.28    -0.02   0.11   0.07     0.19   0.11  -0.10
    21   1    -0.11   0.18   0.11     0.07  -0.17   0.34     0.02   0.13  -0.05
    22   1     0.10  -0.14   0.03    -0.10  -0.17  -0.23    -0.04  -0.15  -0.25
    23   1     0.20  -0.19   0.15     0.05  -0.10  -0.04     0.22   0.07   0.14
    24   1    -0.07  -0.17  -0.19    -0.15   0.21   0.26    -0.20  -0.15   0.13
    25   1     0.07   0.19  -0.02     0.04  -0.11  -0.00     0.02   0.26  -0.11
    26   1    -0.17  -0.04   0.10     0.30   0.11  -0.12    -0.03   0.07   0.02
    27   1     0.14   0.06  -0.01    -0.05  -0.01  -0.00    -0.35  -0.09   0.03
    28   1    -0.12   0.03  -0.04    -0.00  -0.01   0.00     0.05  -0.06   0.06
    29   1    -0.08   0.04  -0.02    -0.02  -0.01   0.00     0.06  -0.07   0.04
    30   1    -0.23  -0.16  -0.04     0.07  -0.01  -0.03    -0.03  -0.16  -0.09
    31   1    -0.23  -0.14  -0.05    -0.08   0.01  -0.00    -0.01  -0.07  -0.05
                     28                     29                     30
                      A                      A                      A
 Frequencies --    901.6316               904.2541               919.3386
 Red. masses --      1.5856                 1.5764                 2.4455
 Frc consts  --      0.7594                 0.7594                 1.2178
 IR Inten    --      2.2490                 0.5872                 5.3347
  Atom  AN      X      Y      Z        X      Y      Z        X      Y      Z
     1   8    -0.00   0.00  -0.01    -0.00   0.00  -0.00    -0.03   0.02   0.02
     2   6     0.01  -0.03   0.06    -0.00  -0.01   0.02    -0.02   0.03   0.02
     3   6    -0.00   0.01  -0.01     0.01  -0.00  -0.01     0.08  -0.10  -0.09
     4   6     0.02   0.03  -0.05    -0.05   0.10   0.02    -0.06  -0.05   0.03
     5   6    -0.07   0.02  -0.05     0.09  -0.03  -0.03    -0.01   0.08   0.06
     6   6     0.01  -0.02   0.02     0.00  -0.03   0.04    -0.08  -0.01   0.01
     7   6     0.06   0.03  -0.06    -0.09   0.04   0.02     0.00   0.09   0.02
     8   6    -0.00   0.02  -0.02    -0.00   0.00  -0.00     0.09  -0.12  -0.04
     9   6    -0.04   0.01  -0.04     0.04  -0.08  -0.08    -0.08  -0.01  -0.04
    10   6     0.00  -0.02   0.04    -0.01   0.01  -0.02     0.03   0.07   0.03
    11   6     0.01   0.00  -0.01    -0.00   0.00   0.00    -0.01  -0.06  -0.07
    12   8     0.00   0.01  -0.00    -0.00  -0.00  -0.00    -0.01  -0.02   0.03
    13   8     0.00  -0.00   0.00    -0.00  -0.00   0.00     0.00   0.03  -0.00
    14   6    -0.01  -0.00   0.00     0.01   0.00   0.00    -0.00   0.00  -0.00
    15   6     0.01  -0.07   0.13     0.01  -0.02   0.04     0.13  -0.01  -0.02
    16   1     0.11  -0.09   0.03    -0.03  -0.13  -0.03     0.19  -0.24  -0.05
    17   1     0.05  -0.03   0.06     0.18  -0.10   0.32    -0.36  -0.03   0.09
    18   1    -0.03  -0.05  -0.11    -0.18  -0.20  -0.25    -0.00   0.05   0.11
    19   1     0.00  -0.22   0.17     0.02   0.24  -0.17    -0.01   0.15   0.29
    20   1     0.23   0.17  -0.12    -0.19  -0.15   0.06     0.04   0.11   0.06
    21   1     0.00  -0.01   0.01    -0.00  -0.01   0.00    -0.25   0.00   0.05
    22   1     0.06  -0.00   0.29    -0.08   0.03  -0.27    -0.05   0.32   0.01
    23   1    -0.28  -0.04  -0.17     0.20   0.08   0.11    -0.00   0.10   0.02
    24   1    -0.10   0.03   0.11     0.05   0.09   0.07     0.18  -0.16  -0.20
    25   1     0.01   0.10  -0.02     0.15   0.35  -0.02    -0.04   0.07  -0.02
    26   1    -0.03  -0.03   0.06    -0.13  -0.21   0.30    -0.36   0.04  -0.03
    27   1     0.01   0.00  -0.00     0.01   0.00   0.00    -0.05  -0.02  -0.00
    28   1    -0.01   0.00  -0.00     0.00   0.00  -0.00     0.04  -0.01   0.01
    29   1    -0.01   0.00  -0.00     0.00   0.00  -0.00     0.02  -0.02   0.01
    30   1     0.31  -0.17  -0.34     0.09  -0.05  -0.10     0.20   0.05   0.00
    31   1    -0.37   0.35   0.00    -0.09   0.12   0.01     0.18   0.04  -0.01
                     31                     32                     33
                      A                      A                      A
 Frequencies --    952.9279               980.8606               984.0518
 Red. masses --      2.3669                 2.3323                 2.3481
 Frc consts  --      1.2663                 1.3220                 1.3397
 IR Inten    --      1.7325                 7.1096                 1.9165
  Atom  AN      X      Y      Z        X      Y      Z        X      Y      Z
     1   8     0.00  -0.00   0.01     0.02   0.00  -0.00     0.01  -0.02  -0.01
     2   6    -0.01   0.00  -0.03    -0.06  -0.07  -0.02     0.03   0.01   0.01
     3   6    -0.11  -0.06  -0.03    -0.02  -0.00   0.04    -0.00  -0.01   0.05
     4   6     0.15   0.02   0.06     0.06  -0.07   0.01    -0.02   0.09  -0.08
     5   6    -0.02   0.06  -0.07    -0.05   0.10  -0.03    -0.05  -0.01  -0.07
     6   6    -0.01  -0.03   0.12    -0.06  -0.09  -0.07    -0.09   0.07   0.02
     7   6    -0.05  -0.01  -0.05    -0.00   0.02   0.12    -0.03  -0.07   0.06
     8   6     0.10   0.04   0.04    -0.07   0.02  -0.03    -0.05   0.03  -0.05
     9   6    -0.07  -0.06   0.03     0.09  -0.02  -0.08     0.05   0.00   0.11
    10   6    -0.02   0.05  -0.11    -0.08  -0.07  -0.01    -0.05   0.09   0.07
    11   6    -0.07   0.04   0.03    -0.02   0.04  -0.00    -0.03  -0.03  -0.08
    12   8    -0.00  -0.03   0.00     0.02   0.02  -0.02     0.00   0.01   0.01
    13   8    -0.03  -0.02   0.00    -0.03  -0.03   0.01    -0.04  -0.01   0.02
    14   6     0.07   0.01   0.00     0.05  -0.00   0.01     0.06   0.01   0.00
    15   6     0.04   0.00  -0.02     0.06   0.10   0.04     0.13  -0.08  -0.05
    16   1    -0.38  -0.19  -0.12    -0.10  -0.09   0.01     0.11  -0.01   0.09
    17   1     0.13   0.06  -0.00     0.01   0.07  -0.25     0.11  -0.05   0.16
    18   1     0.32   0.08  -0.04     0.20   0.12   0.12    -0.01  -0.09  -0.33
    19   1     0.04  -0.18  -0.10    -0.00  -0.06   0.22    -0.01  -0.16   0.01
    20   1     0.12   0.16  -0.06     0.16   0.24  -0.02     0.13  -0.05  -0.29
    21   1     0.01  -0.13   0.33    -0.07  -0.07  -0.10    -0.37   0.11   0.04
    22   1    -0.08   0.14  -0.07    -0.01   0.02  -0.13    -0.01  -0.16  -0.15
    23   1     0.01  -0.07  -0.03     0.17   0.15   0.18     0.21  -0.23   0.13
    24   1     0.31   0.21   0.04    -0.25  -0.12  -0.05    -0.02   0.02  -0.08
    25   1    -0.22  -0.02  -0.02     0.31   0.18   0.01     0.17  -0.30   0.13
    26   1    -0.05  -0.05   0.01     0.16  -0.16   0.21     0.13   0.09  -0.13
    27   1     0.04   0.00   0.01     0.10   0.02  -0.00     0.06   0.00  -0.00
    28   1     0.06   0.00   0.01     0.00   0.02  -0.01     0.05   0.01   0.00
    29   1     0.07   0.00   0.00     0.01   0.02  -0.01     0.03   0.00  -0.01
    30   1     0.17   0.16   0.07     0.16   0.19   0.07     0.15  -0.04  -0.03
    31   1    -0.09  -0.16  -0.06     0.19   0.23   0.09     0.18   0.02  -0.03
                     34                     35                     36
                      A                      A                      A
 Frequencies --   1008.3669              1026.7999              1048.0043
 Red. masses --      3.5851                 2.4340                 2.2104
 Frc consts  --      2.1478                 1.5120                 1.4303
 IR Inten    --      3.8611                 6.4007                 0.5485
[...]
 127,0.00182508,0.00108772,0.00029241,-0.00075302,-0.00060120,-0.000249
 95,-0.00058828,-0.00026908,0.00006518,0.00004192,-0.00008566,0.0005283
 2,-0.00072487,0.00017208,-0.00005648,-0.00008731,0.00004570,0.00029054
 ,-0.00031177,0.00024074,-0.00001599,0.00017816,0.00064334,0.00000100,0
 .00003853,0.00001587,-0.00006233,0.00003415,-0.00007442,-0.00006040,-0
 .00004062,-0.00001189,-0.00002720,0.00042483,0.00040422,-0.00055248,0.
 00061441,-0.00035341,-0.00059805,0.00042360,0.00095797,-0.00203323,0.0
 0159699,0.05173502,0.00005134,-0.00043878,-0.00029322,0.00146870,-0.00
 004924,0.00040962,0.00000483,-0.00006820,0.00011594,0.00029446,0.00120
 557,0.00007935,-0.00000128,0.00004457,-0.00007345,-0.00028199,-0.00011
 707,0.00047986,-0.00284764,0.00039999,0.00342541,0.01222665,0.00096010
 ,0.01786147,-0.13056620,-0.00127774,-0.12134519,-0.01203394,0.00018271
 ,-0.01553975,-0.00012334,-0.00203847,-0.00316408,0.00095230,0.00133051
 ,0.00148991,0.00026957,0.00080750,0.00039838,-0.00010679,-0.00003974,0
 .00007877,-0.00201852,-0.00395293,0.00138022,0.00004105,0.00001622,-0.
 00002996,0.00062627,-0.00033977,0.00023167,0.00000787,0.00002577,0.000
 28794,0.00007969,-0.00007488,-0.00001819,-0.00001671,0.00006944,-0.000
 00171,0.00011196,0.00009560,-0.00010129,0.00086681,-0.00003817,0.00119
 481,-0.00003861,-0.00017726,0.00002724,0.00088967,-0.00010695,-0.00089
 574,-0.01048905,-0.00017763,-0.01547137,0.14082243,-0.00010815,0.00010
 273,0.00012160,-0.00030659,-0.00014243,-0.00073585,0.00024267,-0.00019
 907,0.00011396,-0.00073546,0.00166110,-0.00113999,-0.00007404,0.000173
 46,0.00001351,-0.00015205,-0.00002161,0.00047026,-0.00006112,0.0005411
 8,0.00067864,0.00070019,-0.00069205,-0.00042942,-0.00011951,-0.0512923
 1,-0.00226630,-0.01589880,-0.00175221,-0.02297988,0.00012996,0.0003574
 5,-0.00106628,-0.00000037,0.00013447,0.00047128,0.00014992,-0.00013139
 ,0.00001315,0.00003641,0.00000841,0.00001692,-0.00255147,-0.00459693,0
 .00130508,0.00005203,-0.00000869,-0.00003963,0.00037117,-0.00049560,0.
 00046246,0.00004542,0.00031106,0.00033106,0.00007634,-0.00006765,0.000
 03647,-0.00000008,0.00004641,0.00004007,0.00012169,0.00005837,-0.00003
 143,-0.00001786,0.00042431,0.00028013,-0.00038539,0.00020216,-0.000431
 06,0.00029253,0.00008157,0.00027512,0.01535404,0.00096962,0.02291016,0
 .00414103,0.05401064,0.00133613,-0.00010751,0.00043662,-0.00242192,0.0
 0100472,-0.00062091,0.00019748,-0.00023057,-0.00036714,0.00004763,0.00
 040198,-0.00000779,-0.00020110,0.00007721,-0.00002592,0.00032097,0.000
 42540,0.00028999,0.00484607,-0.00021369,-0.00325856,-0.01283446,-0.001
 23268,-0.02071532,-0.12294293,-0.00278221,-0.22809211,-0.00037233,-0.0
 0054556,0.00093179,0.00081715,-0.00065148,-0.00023557,0.00090756,0.000
 78217,0.00007300,-0.00018838,0.00005950,0.00018702,-0.00000893,-0.0000
 1713,-0.00004596,0.00054366,-0.00006926,0.00090814,-0.00001847,-0.0000
 8690,0.00000828,0.00026150,-0.00049118,0.00033721,0.00016033,-0.000027
 49,0.00023941,0.00001647,0.00003946,0.00005777,0.00004834,-0.00010060,
 0.00001925,-0.00007847,-0.00007027,0.00002390,-0.00107845,-0.00023325,
 -0.00135092,0.00017017,0.00004964,0.00037294,-0.00006653,0.00045547,0.
 00087595,-0.00004955,0.00037891,0.00034004,0.13052225,0.00300985,0.249
 48958,-0.00007358,0.00003599,-0.00000831,0.00010115,-0.00008304,0.0000
 0251,-0.00001071,0.00006787,-0.00002433,0.00004413,-0.00018665,0.00002
 146,-0.00001272,-0.00003722,-0.00001275,0.00007311,-0.00000972,0.00001
 533,-0.00001281,0.00002132,-0.00001722,-0.00007289,-0.00010712,-0.0000
 5758,-0.00016489,0.00018500,0.00037765,-0.00033599,-0.00102151,-0.0002
 5435,-0.00051532,0.00314755,0.00382884,0.00101896,-0.00043766,-0.00071
 749,-0.01825592,-0.02197321,0.00565685,-0.11398918,-0.11006233,-0.0193
 0564,-0.00015190,0.00000531,-0.00006722,-0.00003174,0.00000773,0.00003
 012,-0.00000684,0.00000560,-0.00000945,0.00001006,0.00003178,0.0000224
 8,-0.00000590,0.00000679,0.00000943,0.00001232,0.00001232,0.00000298,-
 0.00001383,0.00000296,0.00003771,-0.00000326,-0.00000239,0.00001680,0.
 00000610,0.00000153,-0.00000305,-0.00004137,0.00000270,0.00005754,0.00
 001316,0.00000427,-0.00000436,0.00000440,0.00000083,-0.00001558,0.1256
 4059,-0.00006608,0.00001021,-0.00000734,0.00007644,-0.00002251,0.00002
 160,-0.00002011,0.00002103,-0.00002054,0.00000777,-0.00006004,0.000075
 41,-0.00001499,-0.00002254,-0.00000858,0.00004560,0.00000506,0.0000031
 5,-0.00001155,0.00001048,-0.00000481,-0.00000827,-0.00000817,-0.000024
 31,-0.00001883,0.00005718,0.00008941,-0.00004389,0.00002687,-0.0000504
 3,0.00116317,0.00061126,-0.00123852,-0.00112000,0.00030114,0.00109532,
 -0.00093416,0.00139039,0.00221176,-0.11625364,-0.26321139,-0.02730867,
 -0.00010867,-0.00002403,-0.00001009,-0.00001891,0.00000489,0.00002193,
 0.00000255,-0.00000418,-0.00000313,0.00000440,-0.00002102,-0.00001474,
 -0.00000448,0.00000368,0.00001234,0.00000751,0.00000890,-0.00000298,-0
 .00000849,-0.00000129,0.00003591,-0.00000346,-0.00000022,0.00001488,0.
 00000442,0.00000112,-0.00000530,-0.00001551,-0.00000185,0.00002162,0.0
 0000374,0.00001503,-0.00001697,0.00002598,0.00000689,-0.00000056,0.128
 15957,0.27687379,0.00004129,-0.00001998,0.00000848,-0.00006708,0.00005
 170,-0.00000086,0.00002181,-0.00004509,0.00001483,-0.00007981,0.000146
 82,-0.00000230,0.00001162,0.00002599,0.00001808,-0.00005384,-0.0000156
 8,-0.00002127,0.00000327,-0.00000713,0.00003483,0.00008805,0.00014584,
 0.00005610,0.00018910,-0.00018835,-0.00045161,0.00063868,0.00127279,0.
 00045144,0.00205295,-0.00392251,-0.00607632,-0.00132270,0.00016807,0.0
 0272157,0.02444974,0.03080363,-0.00536210,-0.02483141,-0.03571675,-0.0
 5398645,0.00011514,0.00005182,0.00012449,0.00001474,-0.00000408,-0.000
 01908,0.00001111,-0.00002694,0.00000132,0.00000864,-0.00004234,0.00000
 966,-0.00000084,-0.00000367,-0.00000491,-0.00000595,-0.00001327,-0.000
 00357,0.00000874,0.00000023,-0.00003065,-0.00000379,-0.00000342,-0.000
 00968,-0.00000497,0.00000185,-0.00000072,0.00004025,-0.00000255,-0.000
 06176,-0.00001216,0.00002091,-0.00000436,0.00001192,-0.00000600,0.0000
 1386,0.01031914,0.02944243,0.06126077,-0.00003725,-0.00000165,-0.00000
 635,0.00005457,0.00000761,0.00000657,-0.00004937,0.00008332,-0.0000268
 5,-0.00002549,-0.00010393,0.00021672,0.00000100,-0.00001387,-0.0000189
 1,0.00001442,-0.00005142,-0.00002769,-0.00001910,0.00001261,0.00000991
 ,-0.00000929,-0.00002066,-0.00000938,-0.00002853,0.00010646,0.00000411
 ,-0.00068743,0.00054892,-0.00035191,0.00270147,0.00257458,0.00193241,-
 0.00053231,-0.00142543,-0.00026840,0.01095257,-0.00288185,0.02929664,-
 0.13751194,-0.00061784,-0.13077931,-0.00008814,0.00004640,-0.00008999,
 -0.00002622,0.00000169,0.00003465,-0.00004460,-0.00001808,-0.00000579,
 0.00003895,-0.00002114,0.00000085,-0.00000356,0.00000111,0.00000597,0.
 00000469,0.00000318,-0.00000315,-0.00000399,-0.00000071,0.00002353,-0.
 00000728,-0.00000749,0.00000610,0.00000329,-0.00000269,-0.00000148,-0.
 00001138,-0.00000254,0.00001409,-0.00000011,-0.00001693,-0.00000661,-0
 .00000662,-0.00002290,0.00000216,-0.00689096,0.00191503,-0.01153192,0.
 14186285,0.00001899,-0.00002507,0.00000156,-0.00002031,0.00005654,-0.0
 0000530,0.00000620,-0.00001073,0.00001382,-0.00005465,0.00000804,0.000
 02602,-0.00001023,0.00000116,0.00000708,-0.00003648,0.00001812,-0.0000
 2329,0.00000765,-0.00000682,-0.00000204,-0.00000138,-0.00002481,-0.000
 00262,-0.00001023,0.00000574,0.00001115,-0.00027774,0.00004937,-0.0002
 5398,0.00044441,0.00263716,0.00289025,0.00061750,-0.00057448,-0.001628
 05,0.00017674,-0.00019066,0.00215929,-0.00207942,-0.05292544,-0.003928
 47,0.00007411,-0.00006118,-0.00004799,0.00000541,-0.00000386,-0.000004
 64,0.00002856,0.00001767,0.00001082,-0.00001279,-0.00001590,-0.0000267
 7,0.00000441,0.00000047,0.00000158,-0.00000244,-0.00000138,-0.00000038
 ,0.00000760,-0.00000435,-0.00001434,-0.00000037,0.00000016,-0.00000735
 ,0.00000006,-0.00000101,0.00000290,0.00000306,-0.00000111,-0.00000366,
 0.00000386,-0.00003269,0.00002349,-0.00002946,0.00000232,0.00000289,-0
 .01529779,0.00240454,-0.02429300,0.00175783,0.04750608,0.00012270,-0.0
 0000687,0.00001649,-0.00015058,0.00001009,-0.00001935,0.00004894,-0.00
 002149,0.00004522,-0.00012005,0.00011693,-0.00011541,-0.00001774,0.000
 03115,0.00000309,-0.00005729,0.00010050,0.00007617,0.00002566,-0.00004
 115,-0.00003860,0.00003556,0.00004341,0.00001886,0.00007198,-0.0001278
 2,-0.00009448,0.00022123,0.00005581,0.00004309,-0.00446052,-0.00815833
 ,-0.00158773,-0.00015853,0.00243289,0.00290754,0.00229855,0.00449299,-
 0.03397686,-0.12328822,-0.00160447,-0.23399136,0.00012863,-0.00014788,
 -0.00003524,0.00003498,-0.00000977,-0.00003079,0.00009290,0.00002204,0
 .00002747,-0.00007865,0.00008409,-0.00000113,0.00002429,-0.00000831,-0
 .00001083,-0.00000890,0.00000452,0.00001114,0.00001732,-0.00000240,-0.
 00004330,0.00002835,0.00002039,-0.00001337,-0.00000606,-0.00000126,0.0
 0000832,0.00003136,0.00000585,-0.00002785,-0.00000219,0.00000314,0.000
 00116,0.00003204,0.00003369,0.00001493,-0.00194600,-0.00040881,0.00055
 104,0.12885303,0.00308464,0.26416835,-0.00007278,-0.00004022,-0.000011
 85,0.00006958,0.00009683,0.00003629,-0.00002153,-0.00009172,-0.0000361
 1,0.00006071,-0.00000433,0.00004536,-0.00001212,-0.00000752,-0.0000169
 3,0.00006347,-0.00001175,0.00000737,-0.00000745,0.00002253,-0.00000977
 ,-0.00001689,-0.00006233,-0.00003175,0.00000318,0.00003258,0.00012828,
 0.00016546,-0.00033144,0.00017188,0.00285531,0.00831031,0.00253501,0.0
 0097474,-0.00248393,-0.00293474,-0.02195084,0.00983012,0.01151550,-0.1
 5328601,0.12743979,-0.00715331,-0.00016037,0.00005014,0.00000323,-0.00
 001442,0.00000155,0.00001675,0.00000654,0.00000242,-0.00000844,0.00003
 617,-0.00018104,-0.00007742,-0.00000133,-0.00000234,0.00001853,0.00000
 507,-0.00000361,-0.00000884,-0.00001006,-0.00000342,0.00003360,-0.0000
 0843,-0.00000516,0.00000566,0.00000661,-0.00000922,0.00000065,-0.00001
 764,-0.00000651,0.00002021,-0.00000854,-0.00004682,0.00001523,-0.00002
 444,0.00000014,-0.00000785,0.01362617,-0.01275282,-0.00006399,-0.00960
 867,0.01467325,-0.00185885,0.16737388,0.00003853,0.00001561,0.00000406
 ,-0.00004012,-0.00003578,-0.00001887,0.00002822,0.00000378,0.00002252,
 0.00001842,-0.00005149,-0.00011220,0.00000722,-0.00000937,0.00001332,0
 .00002416,0.00001328,0.00003184,0.00001349,0.00000192,0.00000651,0.000
 00221,0.00000642,0.00000463,0.00003892,-0.00000982,-0.00002703,0.00056
 858,-0.00027470,0.00042587,-0.00213627,0.00048852,0.00066371,-0.000322
 99,0.00006057,0.00018743,-0.00301240,0.00778223,-0.00446521,0.13349740
 ,-0.21938568,0.00689625,-0.00008600,-0.00001954,0.00013021,0.00000596,
 -0.00000019,-0.00001637,-0.00001706,0.00000887,-0.00001351,-0.00000283
 ,0.00002648,0.00003005,-0.00000263,0.00000580,-0.00001012,-0.00000090,
 0.00000098,0.00000457,-0.00001023,0.00000094,-0.00000217,-0.00000107,-
 0.00000243,-0.00000793,-0.00000378,0.00000476,0.00000114,0.00000606,0.
 00000430,-0.00001027,-0.00000566,0.00000304,0.00001045,-0.00002641,-0.
 00000816,-0.00001152,0.01752079,-0.01838084,0.00221289,-0.00176085,0.0
 0116849,-0.00014827,-0.14435702,0.22856201,0.00010098,0.00001604,0.000
 02121,-0.00009947,-0.00004390,-0.00005461,0.00006238,0.00005964,0.0000
 6365,-0.00011736,0.00006137,-0.00015787,0.00000179,0.00001229,0.000036
 74,-0.00011387,0.00001138,-0.00005663,0.00001210,-0.00002460,0.0000183
 0,0.00001414,0.00003376,0.00003516,-0.00005606,-0.00003584,-0.00012233
 ,-0.00038673,0.00018058,-0.00047768,-0.00226467,-0.00532008,0.00040418
 ,0.00069846,0.00183459,0.00076941,0.02972995,-0.02011952,-0.00902192,-
 0.01049098,0.01079799,-0.05159940,0.00026477,-0.00006015,-0.00000005,0
 .00002699,-0.00000666,-0.00003459,0.00003183,0.00001645,0.00003191,-0.
 00004774,0.00018073,0.00006131,0.00000225,0.00000379,-0.00001744,-0.00
 000878,-0.00000231,0.00000784,0.00002210,0.00000145,-0.00005935,0.0000
 0423,0.00000156,-0.00001370,-0.00000607,0.00000756,0.00000267,0.000019
 98,0.00000581,-0.00002728,0.00001764,0.00002250,0.00001708,-0.00001406
 ,0.00000700,0.00000786,0.00203448,-0.00389926,0.00081538,-0.01719265,0
 .02201504,0.00188505,-0.00228574,-0.00580486,0.05744487,-0.00000240,0.
 00035974,-0.00000676,0.00019937,-0.00092593,0.00001712,-0.00015445,0.0
 0049962,-0.00001507,0.00041448,-0.00140911,0.00074248,0.00029289,-0.00
 137462,-0.00078167,-0.01197621,-0.01521570,0.00005538,-0.00113829,0.00
 156003,0.00373772,0.00043940,0.00039783,-0.00002393,-0.00107084,0.0015
 3575,-0.00354756,-0.01168544,-0.01483378,-0.00126371,-0.00091717,-0.00
 080166,0.00062954,0.00040539,0.00018524,-0.00001717,0.00017056,0.00045
 418,0.00115629,0.00036156,0.00017943,-0.00001419,-0.13922062,-0.121401
 31,-0.00099086,-0.00005604,0.00003503,0.00001179,0.00036550,0.00019004
 ,0.00000994,-0.00014169,0.00086552,-0.00027837,0.00043180,0.00018613,0
 .00001554,-0.00006297,0.00094220,0.00023338,0.00085755,0.00034097,-0.0
 0004972,-0.00053784,-0.00104773,-0.00006688,0.00011119,-0.00024987,-0.
 00001990,0.00000583,0.00002138,0.00001820,0.00007588,-0.00024256,0.000
 02808,-0.00053512,-0.00104136,0.00008150,0.00002568,-0.00001107,-0.000
 02896,-0.00006092,-0.00000640,0.00009038,-0.00003699,0.00002197,0.0000
 3733,0.15058795,-0.00016723,0.00013529,-0.00000300,0.00022816,-0.00033
 630,0.00000322,-0.00012641,0.00000901,0.00000547,0.00066681,0.00064866
 ,0.00021133,0.00064520,0.00069653,-0.00031671,0.00118123,0.00012385,0.
 00051725,0.00049628,0.00094983,0.00044775,0.00008829,0.00006682,-0.000
 02850,0.00023349,0.00099371,-0.00052556,0.00070486,-0.00074150,-0.0007
 6698,-0.00199892,-0.00180071,0.00014599,0.00035697,0.00059543,-0.00003
 487,0.00095765,0.00080092,0.00149298,0.00034927,0.00012149,-0.00013303
 ,-0.12241254,-0.22309180,-0.00153960,0.00000500,0.00001574,0.00000138,
 0.00001870,0.00013365,-0.00007708,-0.00006515,0.00041276,0.00011113,0.
 00004469,0.00017535,0.00010200,-0.00019783,0.00048164,-0.00008276,-0.0
 0004196,0.00010819,0.00051365,-0.00028362,0.00017672,-0.00010545,0.000
 11597,0.00041018,-0.00012160,-0.00003593,-0.00003428,0.00001675,0.0001
 2247,0.00040031,0.00015274,-0.00033131,0.00015712,0.00010063,-0.000000
 68,0.00000980,-0.00003573,-0.00003981,-0.00001305,0.00012213,-0.000007
 87,-0.00001381,-0.00004357,0.13480108,0.23939569,-0.00003983,-0.000014
 09,-0.00001983,0.00005619,0.00004890,-0.00006576,-0.00005655,0.0000098
 0,-0.00027495,0.00081074,-0.00101140,0.00115846,-0.00062457,0.00098257
 ,0.00102604,0.01671890,0.02314837,0.00025687,0.00323240,-0.00137484,-0
 .00487562,0.00008452,0.00006786,-0.00042804,-0.00286107,0.00121926,-0.
 00537305,-0.01642501,-0.02300440,-0.00136422,-0.00205440,-0.00290310,0
 .00139037,0.00041684,0.00074083,-0.00010966,0.00066314,0.00087670,-0.0
 0085921,0.00063442,0.00029647,-0.00031169,0.00050890,0.00084629,-0.047
 07666,-0.00001905,-0.00000030,0.00009771,0.00034308,0.00001689,-0.0000
 8305,-0.00008092,0.00068476,0.00010508,-0.00042613,0.00003247,-0.00007
 740,-0.00005820,-0.00071401,0.00005928,-0.00081174,0.00019614,0.000920
 69,0.00136243,0.00139758,0.00010870,-0.00024296,-0.00030037,-0.0000212
 1,0.00001462,-0.00000575,0.00027971,0.00020941,0.00024022,0.00004341,-
 0.00142584,-0.00143882,0.00013173,-0.00000115,-0.00000889,-0.00003199,
 -0.00009750,-0.00001293,0.00020681,-0.00007542,0.00001339,0.00005431,0
 .00004976,0.00001236,0.05534894,-0.00000364,-0.00037285,-0.00000135,0.
 00019489,0.00095686,0.00000874,0.00050181,-0.00048992,0.00003456,-0.00
 108757,-0.00124719,-0.00363446,-0.00124080,-0.00160787,0.00393068,-0.0
 1223284,0.01574846,0.00004336,0.00034401,0.00144453,-0.00079803,-0.000
 12632,-0.00051705,-0.00000817,0.00027665,0.00138444,0.00071769,-0.0109
 3991,0.01415233,-0.00150130,-0.00041392,0.00054136,0.00137044,0.000217
 19,-0.00063761,-0.00052363,0.00026098,0.00009169,-0.00022242,-0.000082
 23,0.00008722,0.00000179,-0.13714411,0.11805952,-0.00076279,0.00002693
 ,-0.00001115,-0.00001966,-0.00052101,0.00100909,0.00006082,0.00004533,
 0.00020567,0.00003568,-0.00060470,0.00109364,-0.00007684,0.00012042,0.
 00023030,-0.00002820,0.00087414,-0.00032720,-0.00005413,0.00042193,-0.
 00019300,0.00001650,-0.00010100,-0.00097052,0.00022808,-0.00005900,-0.
 00003545,0.00000246,-0.00010263,-0.00088828,-0.00026896,0.00037225,-0.
 00023922,0.00000557,0.00001398,-0.00000124,-0.00001877,0.00001938,0.00
 001004,-0.00000429,0.00001161,-0.00000569,0.00000279,0.01285193,-0.015
 30685,0.00019503,0.14810625,0.00018491,0.00014892,-0.00000283,-0.00026
 804,-0.00037183,0.00000895,-0.00013060,0.00011693,-0.00001039,-0.00032
 090,0.00087982,0.00045809,-0.00039831,0.00103358,-0.00066035,-0.000863
 48,-0.00042304,-0.00032879,-0.00066098,0.00061911,0.00030705,0.0001158
 5,0.00003122,-0.00002758,-0.00064452,0.00056941,-0.00020967,-0.0011433
 0,-0.00031715,0.00073916,0.00116290,-0.00014474,-0.00049137,-0.0004082
 9,0.00044778,0.00062289,-0.00063055,-0.00002807,0.00025963,0.00017670,
 -0.00006175,0.00001282,0.11942525,-0.21800889,0.00145831,0.00003279,-0
 .00004071,0.00000520,0.00028775,0.00017412,-0.00006683,-0.00011465,0.0
 0037792,-0.00014486,0.00034660,0.00011864,0.00011006,-0.00012684,0.000
 42171,0.00012691,0.00002587,0.00010528,-0.00052349,-0.00003458,0.00020
 161,-0.00010213,0.00017275,0.00050998,0.00007565,0.00000313,0.00001888
 ,0.00000438,0.00011072,0.00048443,-0.00010025,-0.00002097,0.00015883,0
 .00008405,-0.00000059,-0.00000417,0.00000149,-0.00004897,0.00001668,0.
 00002257,-0.00005056,0.00003379,0.00009122,0.01598498,-0.02098724,-0.0
 0004198,-0.13216409,0.23391896,-0.00000729,0.00002098,-0.00002136,0.00
 000939,-0.00006513,-0.00005016,0.00008165,-0.00006208,-0.00044537,-0.0
 0314280,-0.00113902,-0.00535190,0.00329565,0.00142102,-0.00501933,0.01
 698166,-0.02334540,0.00039593,-0.00067257,-0.00102487,0.00101319,-0.00
 001836,0.00001239,-0.00026375,0.00077651,0.00106089,0.00102046,-0.0163
 4568,0.02305707,-0.00172864,-0.00148660,0.00202168,0.00161133,0.000344
 91,-0.00073620,-0.00011341,0.00038959,-0.00019651,-0.00008979,-0.00002
 613,0.00010101,-0.00007820,-0.00073413,0.00079800,-0.04824315,0.000022
 26,0.00000034,0.00029399,-0.00142794,0.00150411,0.00020765,0.00019942,
 -0.00024995,0.00000157,0.00142026,-0.00144074,0.00011164,-0.00025108,0
 .00031168,-0.00001531,-0.00082685,-0.00019508,0.00092743,-0.00040187,-
 0.00002920,-0.00007513,-0.00006186,0.00071279,0.00006524,-0.00000806,0
 .00000306,0.00009777,0.00003395,-0.00067679,0.00006713,0.00034706,-0.0
 0002576,-0.00003906,0.00001115,-0.00001181,-0.00001424,0.00001116,0.00
 000428,0.00000157,0.00002747,-0.00001050,-0.00003408,0.00019034,-0.000
 14235,-0.00021578,0.00126879,-0.00167791,0.05598374\\0.00004649,0.0000
 0799,0.00003088,-0.00003728,-0.00001335,-0.00003142,-0.00001181,0.0000
 0105,-0.00001311,0.00005278,-0.00003989,-0.00001495,0.00003952,-0.0000
 2980,0.00000056,-0.00006057,0.00005428,0.00002767,0.00000760,0.0000024
 7,-0.00002318,-0.00002536,0.00001970,-0.00001291,0.00000647,-0.0000055
 3,0.00002200,-0.00002495,0.00002285,-0.00005861,0.00009662,0.00002581,
 -0.00000090,-0.00009289,-0.00003260,0.00003667,-0.00006865,0.00000204,
 0.00001188,0.00003983,-0.00002973,0.00002872,0.00000767,-0.00001856,-0
 .00000458,-0.00000328,-0.00000201,-0.00000030,-0.00000074,0.00000555,0
 .00000626,-0.00000779,0.00000543,-0.00001408,0.00000214,0.00000140,0.0
 0000374,0.00000301,0.00001162,0.00001528,0.00000012,-0.00000386,0.0000
 0122,-0.00000311,0.00000174,0.00000127,0.00000854,-0.00001028,0.000004
 03,-0.00000179,-0.00000201,-0.00000676,0.00000738,-0.00000413,-0.00000
 668,0.00000539,-0.00000179,-0.00000802,-0.00000112,0.00001154,0.000005
 56,-0.00000434,0.00000328,0.00000164,0.00001057,0.00000819,-0.00000564
 ,0.00001337,0.00001634,0.00000325,-0.00000381,-0.00000773,0.00000053\\
 \@


 This summer one third of the nation will be ill-housed
 ill-nourished and ill-clad. Only they call it a vacation.
 -- Jonas Salk
 Job cpu time:       0 days  0 hours  4 minutes 17.7 seconds.
 Elapsed time:       0 days  0 hours  4 minutes 24.6 seconds.
 File lengths (MBytes):  RWF=    244 Int=      0 D2E=      0 Chk=     16 Scr=      1
 Normal termination of Gaussian 16 at Sat Feb 24 00:50:45 2024.
