 Entering Gaussian System, Link 0=g16
 Input=/Volumes/SSD-PMU3/b3lyp_6-31gd_freq/DUPFRYAOGHZOCO-IILKTSJVSA-N_calculating/gaussianinput1.gjf
 Output=/Volumes/SSD-PMU3/b3lyp_6-31gd_freq/DUPFRYAOGHZOCO-IILKTSJVSA-N_calculating/gaussianinput1.log
 Initial command:
 /Applications/g16/l1.exe "/Users/macmini_m1_2022/PycharmProjects/sphere_model/sphere_model_lib/Gau-82425.inp" -scrdir="/Users/macmini_m1_2022/PycharmProjects/sphere_model/sphere_model_lib/"
 Entering Link 1 = /Applications/g16/l1.exe PID=     82426.
  
 Copyright (c) 1988,1990,1992,1993,1995,1998,2003,2009,2016,
            Gaussian, Inc.  All Rights Reserved.
  
 This is part of the Gaussian(R) 16 program.  It is based on
 the Gaussian(R) 09 system (copyright 2009, Gaussian, Inc.),
 the Gaussian(R) 03 system (copyright 2003, Gaussian, Inc.),
 the Gaussian(R) 98 system (copyright 1998, Gaussian, Inc.),
 the Gaussian(R) 94 system (copyright 1995, Gaussian, Inc.),
 the Gaussian 92(TM) system (copyright 1992, Gaussian, Inc.),
 the Gaussian 90(TM) system (copyright 1990, Gaussian, Inc.),
 the Gaussian 88(TM) system (copyright 1988, Gaussian, Inc.),
 the Gaussian 86(TM) system (copyright 1986, Carnegie Mellon
 University), and the Gaussian 82(TM) system (copyright 1983,
 Carnegie Mellon University). Gaussian is a federally registered
 trademark of Gaussian, Inc.
  
 This software contains proprietary and confidential information,
 including trade secrets, belonging to Gaussian, Inc.
  
 This software is provided under written license and may be
 used, copied, transmitted, or stored only in accord with that
 written license.
  
 The following legend is applicable only to US Government
 contracts under FAR:
  
                    RESTRICTED RIGHTS LEGEND
  
 Use, reproduction and disclosure by the US Government is
 subject to restrictions as set forth in subparagraphs (a)
 and (c) of the Commercial Computer Software - Restricted
 Rights clause in FAR 52.227-19.
  
 Gaussian, Inc.
 340 Quinnipiac St., Bldg. 40, Wallingford CT 06492
  
  
 ---------------------------------------------------------------
 Warning -- This program may not be used in any manner that
 competes with the business of Gaussian, Inc. or will provide
 assistance to any competitor of Gaussian, Inc.  The licensee
 of this program is prohibited from giving any competitor of
 Gaussian, Inc. access to this program.  By using this program,
 the user acknowledges that Gaussian, Inc. is engaged in the
 business of creating and licensing software in the field of
 computational chemistry and represents and warrants to the
 licensee that it is not a competitor of Gaussian, Inc. and that
 it will not use this program in any manner prohibited above.
 ---------------------------------------------------------------
  

 Cite this work as:
 Gaussian 16, Revision A.03,
 M. J. Frisch, G. W. Trucks, H. B. Schlegel, G. E. Scuseria, 
 M. A. Robb, J. R. Cheeseman, G. Scalmani, V. Barone, 
 G. A. Petersson, H. Nakatsuji, X. Li, M. Caricato, A. V. Marenich, 
 J. Bloino, B. G. Janesko, R. Gomperts, B. Mennucci, H. P. Hratchian, 
 J. V. Ortiz, A. F. Izmaylov, J. L. Sonnenberg, D. Williams-Young, 
 F. Ding, F. Lipparini, F. Egidi, J. Goings, B. Peng, A. Petrone, 
 T. Henderson, D. Ranasinghe, V. G. Zakrzewski, J. Gao, N. Rega, 
 G. Zheng, W. Liang, M. Hada, M. Ehara, K. Toyota, R. Fukuda, 
 J. Hasegawa, M. Ishida, T. Nakajima, Y. Honda, O. Kitao, H. Nakai, 
 T. Vreven, K. Throssell, J. A. Montgomery, Jr., J. E. Peralta, 
 F. Ogliaro, M. J. Bearpark, J. J. Heyd, E. N. Brothers, K. N. Kudin, 
 V. N. Staroverov, T. A. Keith, R. Kobayashi, J. Normand, 
 K. Raghavachari, A. P. Rendell, J. C. Burant, S. S. Iyengar, 
 J. Tomasi, M. Cossi, J. M. Millam, M. Klene, C. Adamo, R. Cammi, 
 J. W. Ochterski, R. L. Martin, K. Morokuma, O. Farkas, 
 J. B. Foresman, and D. J. Fox, Gaussian, Inc., Wallingford CT, 2016.
 
 ******************************************
 Gaussian 16:  EM64M-G16RevA.03 25-Dec-2016
                24-Feb-2024 
 ******************************************
 %nprocshared=10
 Will use up to   10 processors via shared memory.
 %mem=12GB
 %chk= 1.chk
 ---------------------
 # freq b3lyp/6-31g(d)
 ---------------------
 1/10=4,30=1,38=1/1,3;
 2/12=2,17=6,18=5,40=1/2;
 3/5=1,6=6,7=1,11=2,25=1,30=1,71=2,74=-5,140=1/1,2,3;
 4//1;
 5/5=2,38=5,98=1/2;
 8/6=4,10=90,11=11/1;
 11/6=1,8=1,9=11,15=111,16=1/1,2,10;
 10/6=1/2;
 6/7=2,8=2,9=2,10=2,28=1/1;
 7/8=1,10=1,25=1/1,2,3,16;
 1/10=4,30=1/3;
 99//99;
 ---------
 good luck
 ---------
 Symbolic Z-matrix:
 Charge =  0 Multiplicity = 1
 O                     1.21586   0.        0. 
 C                     0.        0.        0. 
 C                    -0.84932  -1.26819  -0.00605 
 C                    -1.75433  -1.26047   1.2505 
 C                    -1.72868  -1.25816  -1.28155 
 C                    -2.61984   0.       -1.28484 
 C                    -1.72868   1.25816  -1.28155 
 C                    -0.84932   1.26819  -0.00605 
 C                    -1.75433   1.26047   1.2505 
 C                    -2.66271   0.        1.24386 
 C                    -3.5663    0.        2.47432 
 O                    -4.77876  -0.0001    2.45682 
 O                    -2.84728  -0.00017   3.6219 
 C                    -3.6188   -0.00033   4.83439 
 C                    -3.52507   0.       -0.03758 
 H                    -0.18024  -2.1345    0.00775 
 H                    -1.14508  -1.27726   2.16048 
 H                    -2.37333  -2.16785   1.25731 
 H                    -2.34653  -2.16596  -1.30417 
 H                    -1.09296  -1.27996  -2.17619 
 H                    -3.24678   0.       -2.18548 
 H                    -1.09296   1.27996  -2.17619 
 H                    -2.34653   2.16596  -1.30417 
 H                    -0.18024   2.1345    0.00775 
 H                    -2.37333   2.16785   1.25731 
 H                    -1.14508   1.27726   2.16048 
 H                    -4.25243   0.88901   4.88635 
 H                    -4.25248  -0.88966   4.88608 
 H                    -2.88959  -0.00048   5.64503 
 H                    -4.18194   0.8778   -0.0388 
 H                    -4.18194  -0.8778   -0.0388 
 

 GradGradGradGradGradGradGradGradGradGradGradGradGradGradGradGradGradGrad
 Berny optimization.
 Initialization pass.
 Trust Radius=3.00D-01 FncErr=1.00D-07 GrdErr=1.00D-07 EigMax=2.50D+02 EigMin=1.00D-04
 Number of steps in this run=      2 maximum allowed number of steps=      2.
 GradGradGradGradGradGradGradGradGradGradGradGradGradGradGradGradGradGrad

                          Input orientation:                          
 ---------------------------------------------------------------------
 Center     Atomic      Atomic             Coordinates (Angstroms)
 Number     Number       Type             X           Y           Z
 ---------------------------------------------------------------------
      1          8           0        1.215859    0.000000    0.000000
      2          6           0        0.000000    0.000000    0.000000
      3          6           0       -0.849320   -1.268186   -0.006052
      4          6           0       -1.754331   -1.260470    1.250498
      5          6           0       -1.728678   -1.258159   -1.281548
      6          6           0       -2.619842    0.000000   -1.284841
      7          6           0       -1.728678    1.258159   -1.281548
      8          6           0       -0.849321    1.268186   -0.006052
      9          6           0       -1.754331    1.260470    1.250498
     10          6           0       -2.662706    0.000000    1.243861
     11          6           0       -3.566301    0.000001    2.474319
     12          8           0       -4.778762   -0.000095    2.456818
     13          8           0       -2.847282   -0.000174    3.621903
     14          6           0       -3.618801   -0.000334    4.834388
     15          6           0       -3.525066    0.000000   -0.037579
     16          1           0       -0.180244   -2.134502    0.007753
     17          1           0       -1.145082   -1.277255    2.160482
     18          1           0       -2.373330   -2.167849    1.257313
     19          1           0       -2.346525   -2.165958   -1.304166
     20          1           0       -1.092957   -1.279964   -2.176187
     21          1           0       -3.246780    0.000000   -2.185480
     22          1           0       -1.092957    1.279964   -2.176187
     23          1           0       -2.346526    2.165957   -1.304167
     24          1           0       -0.180244    2.134502    0.007752
     25          1           0       -2.373330    2.167849    1.257313
     26          1           0       -1.145082    1.277256    2.160482
     27          1           0       -4.252428    0.889010    4.886353
     28          1           0       -4.252483   -0.889655    4.886083
     29          1           0       -2.889592   -0.000480    5.645025
     30          1           0       -4.181943    0.877802   -0.038804
     31          1           0       -4.181943   -0.877803   -0.038804
 ---------------------------------------------------------------------
                    Distance matrix (angstroms):
                    1          2          3          4          5
     1  O    0.000000
     2  C    1.215859   0.000000
     3  C    2.423489   1.526328   0.000000
     4  C    3.460428   2.496038   1.548555   0.000000
     5  C    3.449004   2.492721   1.549278   2.532177   0.000000
     6  C    4.045172   2.917943   2.525539   2.960716   1.541800
     7  C    3.449004   2.492721   2.963542   3.571471   2.516318
     8  C    2.423489   1.526328   2.536372   2.965141   2.963541
     9  C    3.460428   2.496038   2.965141   2.520940   3.571471
    10  C    4.073138   2.938910   2.541446   1.553697   2.972047
    11  C    5.384358   4.340594   3.891340   2.523838   4.366505
    12  O    6.478537   5.373316   4.807733   3.491552   4.986092
    13  O    5.443096   4.607081   4.331485   2.899388   5.184364
    14  C    6.837049   6.038794   5.719033   4.231839   6.523754
    15  C    4.741074   3.525266   2.961234   2.526545   2.521395
    16  H    2.550542   2.142113   1.094695   2.187715   2.197253
    17  H    3.445737   2.758673   2.186647   1.095234   3.491206
    18  H    4.377520   3.451536   2.174417   1.098427   2.772892
    19  H    4.368387   3.449406   2.175481   2.774331   1.098338
    20  H    3.421217   2.751118   2.183800   3.489981   1.097723
    21  H    4.969051   3.913809   3.479370   3.952484   2.169030
    22  H    3.421217   2.751118   3.355877   4.316641   2.765247
    23  H    4.368387   3.449407   3.964854   4.314790   3.479485
    24  H    2.550542   2.142113   3.467872   3.943096   3.945895
    25  H    4.377520   3.451536   3.965480   3.483759   4.312647
    26  H    3.445738   2.758673   3.355685   2.763930   4.314682
    27  H    7.387080   6.538343   6.338002   4.907157   7.001618
    28  H    7.387020   6.538265   5.971414   4.426708   6.674208
    29  H    6.980046   6.341613   6.140396   4.710442   7.134907
    30  H    5.468849   4.273253   3.963926   3.482500   3.482133
    31  H    5.468849   4.273253   3.355570   2.775254   2.776255
                    6          7          8          9         10
     6  C    0.000000
     7  C    1.541800   0.000000
     8  C    2.525538   1.549277   0.000000
     9  C    2.960716   2.532177   1.548554   0.000000
    10  C    2.529065   2.972047   2.541445   1.553697   0.000000
    11  C    3.876476   4.366504   3.891338   2.523837   1.526601
    12  O    4.319832   4.986140   4.807782   3.491621   2.439049
    13  O    4.912012   5.184449   4.331587   2.899539   2.385194
    14  C    6.200232   6.523882   5.719180   4.232038   3.715643
    15  C    1.541134   2.521395   2.961233   2.526545   1.544588
    16  H    3.489776   3.945896   3.467873   3.943095   3.499526
    17  H    3.959362   4.314682   3.355684   2.763929   2.185122
    18  H    3.350057   4.312647   3.965480   3.483759   2.187119
    19  H    2.183220   3.479486   3.964854   4.314790   3.359135
    20  H    2.182701   2.765247   3.355877   4.316641   3.974814
    21  H    1.097361   2.169030   3.479369   3.952484   3.478724
    22  H    2.182701   1.097723   2.183800   3.489981   3.974814
    23  H    2.183219   1.098337   2.175481   2.774331   3.359135
    24  H    3.489776   2.197253   1.094695   2.187716   3.499526
    25  H    3.350057   2.772892   2.174417   1.098427   2.187119
    26  H    3.959362   3.491206   2.186647   1.095234   2.185122
    27  H    6.445100   6.674473   5.971645   4.426953   4.072506
    28  H    6.444944   7.001598   6.338042   4.907268   4.072427
    29  H    6.935114   7.135076   6.140594   4.710698   4.407008
    30  H    2.182500   2.776255   3.355569   2.775254   2.173441
    31  H    2.182500   3.482134   3.963926   3.482501   2.173442
                   11         12         13         14         15
    11  C    0.000000
    12  O    1.212587   0.000000
    13  O    1.354229   2.255668   0.000000
    14  C    2.360653   2.645439   1.437137   0.000000
    15  C    2.512236   2.791732   3.721720   4.872869   0.000000
    16  H    4.701642   5.630274   4.972980   6.298790   3.968121
    17  H    2.755391   3.862976   2.581506   3.859998   3.482410
    18  H    2.757509   3.453125   3.242643   4.364033   2.775394
    19  H    4.522851   4.975112   5.404399   6.632530   2.772107
    20  H    5.420604   6.057059   6.191395   7.560787   3.482399
    21  H    4.670741   4.888548   5.821108   7.029719   2.165854
    22  H    5.420603   6.057099   6.191466   7.560900   3.482399
    23  H    4.522850   4.975195   5.404539   6.632749   2.772106
    24  H    4.701641   5.630346   4.973130   6.299017   3.968121
    25  H    2.757508   3.453244   3.242875   4.364365   2.775394
    26  H    2.755390   3.863039   2.581678   3.860220   3.482410
    27  H    2.660642   2.640109   2.088999   1.093214   5.056135
    28  H    2.660628   2.640003   2.088999   1.093214   5.055993
    29  H    3.242115   3.705891   2.023564   1.090357   5.718026
    30  H    2.732277   2.712015   3.994113   4.983598   1.096369
    31  H    2.732278   2.711954   3.994037   4.983481   1.096370
                   16         17         18         19         20
    16  H    0.000000
    17  H    2.509985   0.000000
    18  H    2.524309   1.765634   0.000000
    19  H    2.532764   3.773201   2.561620   0.000000
    20  H    2.516520   4.336983   3.770493   1.765457   0.000000
    21  H    4.332437   4.993586   4.161167   2.505703   2.505464
    22  H    4.154662   5.034758   5.031470   3.769116   2.559928
    23  H    4.990777   5.030206   5.034260   4.331915   3.769115
    24  H    4.269004   4.147921   4.988111   4.990777   4.154662
    25  H    4.988111   3.767366   4.335698   5.034260   5.031470
    26  H    4.147921   2.554511   3.767367   5.030206   5.034758
    27  H    7.037403   4.666763   5.103462   7.161552   8.035308
    28  H    6.475406   4.151515   4.281701   6.601576   7.746651
    29  H    6.608589   4.100672   4.920979   7.299005   8.126274
    30  H    5.008966   4.324772   3.771868   3.772847   4.331997
    31  H    4.194646   3.770802   2.572007   2.574732   3.777827
                   21         22         23         24         25
    21  H    0.000000
    22  H    2.505464   0.000000
    23  H    2.505701   1.765457   0.000000
    24  H    4.332437   2.516519   2.532765   0.000000
    25  H    4.161167   3.770493   2.561621   2.524310   0.000000
    26  H    4.993586   4.336983   3.773202   2.509986   1.765634
    27  H    7.198089   7.746907   6.601939   6.475699   4.282099
    28  H    7.197911   8.035267   7.161608   7.037526   5.103677
    29  H    7.838647   8.126425   7.299290   6.608900   4.921402
    30  H    2.500657   3.777827   2.574732   4.194646   2.572007
    31  H    2.500657   4.331997   3.772847   5.008966   3.771869
                   26         27         28         29         30
    26  H    0.000000
    27  H    4.151711   0.000000
    28  H    4.666942   1.778665   0.000000
    29  H    4.100971   1.795577   1.795577   0.000000
    30  H    3.770802   4.925674   5.232914   5.894698   0.000000
    31  H    4.324773   5.232950   4.925406   5.894555   1.755605
                   31
    31  H    0.000000
 Stoichiometry    C12H16O3
 Framework group  C1[X(C12H16O3)]
 Deg. of freedom    87
 Full point group                 C1      NOp   1
 Largest Abelian subgroup         C1      NOp   1
 Largest concise Abelian subgroup C1      NOp   1
                         Standard orientation:                         
 ---------------------------------------------------------------------
 Center     Atomic      Atomic             Coordinates (Angstroms)
 Number     Number       Type             X           Y           Z
 ---------------------------------------------------------------------
      1          8           0       -2.644912   -2.224700   -0.000036
      2          6           0       -1.960571   -1.219718   -0.000018
      3          6           0       -1.487479   -0.514357    1.268181
      4          6           0        0.060518   -0.473554    1.260397
      5          6           0       -2.046813    0.930395    1.258249
      6          6           0       -1.548004    1.668911    0.000104
      7          6           0       -2.046926    0.930517   -1.258069
      8          6           0       -1.487593   -0.514233   -1.268191
      9          6           0        0.060405   -0.473431   -1.260543
     10          6           0        0.566251    0.281071   -0.000059
     11          6           0        2.091885    0.335390   -0.000126
     12          8           0        2.759848    1.347414   -0.000011
     13          8           0        2.635737   -0.904837   -0.000036
     14          6           0        4.072177   -0.949571    0.000057
     15          6           0       -0.007563    1.715118    0.000037
     16          1           0       -1.852617   -1.075202    2.134486
     17          1           0        0.469764   -1.489317    1.277114
     18          1           0        0.414593    0.034207    2.167785
     19          1           0       -1.717715    1.453770    2.166059
     20          1           0       -3.144100    0.908475    1.280103
     21          1           0       -1.939568    2.694035    0.000171
     22          1           0       -3.144215    0.908599   -1.279825
     23          1           0       -1.717910    1.453982   -2.165856
     24          1           0       -1.852809   -1.074994   -2.134518
     25          1           0        0.414398    0.034418   -2.167913
     26          1           0        0.469649   -1.489193   -1.277397
     27          1           0        4.471724   -0.455044   -0.889280
     28          1           0        4.471612   -0.454933    0.889385
     29          1           0        4.331787   -2.008571    0.000140
     30          1           0        0.361106    2.258800   -0.877756
     31          1           0        0.361185    2.258715    0.877849
 ---------------------------------------------------------------------
 Rotational constants (GHZ):           1.1488885           0.4683057           0.4163242
 Standard basis: 6-31G(d) (6D, 7F)
 There are   257 symmetry adapted cartesian basis functions of A   symmetry.
 There are   257 symmetry adapted basis functions of A   symmetry.
   257 basis functions,   484 primitive gaussians,   257 cartesian basis functions
    56 alpha electrons       56 beta electrons
       nuclear repulsion energy      1088.6950189146 Hartrees.
 NAtoms=   31 NActive=   31 NUniq=   31 SFac= 1.00D+00 NAtFMM=   60 NAOKFM=F Big=F
 Integral buffers will be    131072 words long.
 Raffenetti 2 integral format.
 Two-electron integral symmetry is turned on.
 One-electron integrals computed using PRISM.
 NBasis=   257 RedAO= T EigKep=  1.99D-03  NBF=   257
 NBsUse=   257 1.00D-06 EigRej= -1.00D+00 NBFU=   257
 ExpMin= 1.61D-01 ExpMax= 5.48D+03 ExpMxC= 8.25D+02 IAcc=3 IRadAn=         5 AccDes= 0.00D+00
 Harris functional with IExCor=  402 and IRadAn=       5 diagonalized for initial guess.
 HarFok:  IExCor=  402 AccDes= 0.00D+00 IRadAn=         5 IDoV= 1 UseB2=F ITyADJ=14
 ICtDFT=  3500011 ScaDFX=  1.000000  1.000000  1.000000  1.000000
 FoFCou: FMM=F IPFlag=           0 FMFlag=      100000 FMFlg1=           0
         NFxFlg=           0 DoJE=T BraDBF=F KetDBF=T FulRan=T
         wScrn=  0.000000 ICntrl=       500 IOpCl=  0 I1Cent=   200000004 NGrid=           0
         NMat0=    1 NMatS0=      1 NMatT0=    0 NMatD0=    1 NMtDS0=    0 NMtDT0=    0
 Petite list used in FoFCou.
 Requested convergence on RMS density matrix=1.00D-08 within 128 cycles.
 Requested convergence on MAX density matrix=1.00D-06.
 Requested convergence on             energy=1.00D-06.
 No special actions if energy rises.
 Integral accuracy reduced to 1.0D-05 until final iterations.
 Initial convergence to 1.0D-05 achieved.  Increase integral accuracy.
 SCF Done:  E(RB3LYP) =  -692.609116533     A.U. after   14 cycles
            NFock= 14  Conv=0.50D-08     -V/T= 2.0093
 DoSCS=F DFT=T ScalE2(SS,OS)=  1.000000  1.000000
 Range of M.O.s used for correlation:     1   257
 NBasis=   257 NAE=    56 NBE=    56 NFC=     0 NFV=     0
 NROrb=    257 NOA=    56 NOB=    56 NVA=   201 NVB=   201
 Symmetrizing basis deriv contribution to polar:
 IMax=3 JMax=2 DiffMx= 0.00D+00
 G2DrvN: will do    32 centers at a time, making    1 passes.
 Calling FoFCou, ICntrl=  3107 FMM=F I1Cent=   0 AccDes= 0.00D+00.
 End of G2Drv F.D. properties file   721 does not exist.
 End of G2Drv F.D. properties file   722 does not exist.
 End of G2Drv F.D. properties file   788 does not exist.
          IDoAtm=1111111111111111111111111111111
          Differentiating once with respect to electric field.
                with respect to dipole field.
          Differentiating once with respect to nuclear coordinates.
 Keep R1 ints in memory in canonical form, NReq=560459111.
          There are    96 degrees of freedom in the 1st order CPHF.  IDoFFX=6 NUNeed=     3.
     93 vectors produced by pass  0 Test12= 1.17D-14 1.04D-09 XBig12= 9.40D+01 2.53D+00.
 AX will form    93 AO Fock derivatives at one time.
     93 vectors produced by pass  1 Test12= 1.17D-14 1.04D-09 XBig12= 1.58D+01 8.49D-01.
     93 vectors produced by pass  2 Test12= 1.17D-14 1.04D-09 XBig12= 1.07D-01 4.47D-02.
     93 vectors produced by pass  3 Test12= 1.17D-14 1.04D-09 XBig12= 3.49D-04 3.09D-03.
     93 vectors produced by pass  4 Test12= 1.17D-14 1.04D-09 XBig12= 4.79D-07 6.65D-05.
     58 vectors produced by pass  5 Test12= 1.17D-14 1.04D-09 XBig12= 4.59D-10 2.73D-06.
      7 vectors produced by pass  6 Test12= 1.17D-14 1.04D-09 XBig12= 3.41D-13 8.45D-08.
      2 vectors produced by pass  7 Test12= 1.17D-14 1.04D-09 XBig12= 2.32D-16 1.88D-09.
 InvSVY:  IOpt=1 It=  1 EMax= 8.88D-15
 Solved reduced A of dimension   532 with    96 vectors.
 Isotropic polarizability for W=    0.000000      121.36 Bohr**3.
 End of Minotr F.D. properties file   721 does not exist.
 End of Minotr F.D. properties file   722 does not exist.
 End of Minotr F.D. properties file   788 does not exist.

 **********************************************************************

            Population analysis using the SCF density.

 **********************************************************************

 Orbital symmetries:
       Occupied  (A) (A) (A) (A) (A) (A) (A) (A) (A) (A) (A) (A)
                 (A) (A) (A) (A) (A) (A) (A) (A) (A) (A) (A) (A)
                 (A) (A) (A) (A) (A) (A) (A) (A) (A) (A) (A) (A)
                 (A) (A) (A) (A) (A) (A) (A) (A) (A) (A) (A) (A)
                 (A) (A) (A) (A) (A) (A) (A) (A)
       Virtual   (A) (A) (A) (A) (A) (A) (A) (A) (A) (A) (A) (A)
                 (A) (A) (A) (A) (A) (A) (A) (A) (A) (A) (A) (A)
                 (A) (A) (A) (A) (A) (A) (A) (A) (A) (A) (A) (A)
                 (A) (A) (A) (A) (A) (A) (A) (A) (A) (A) (A) (A)
                 (A) (A) (A) (A) (A) (A) (A) (A) (A) (A) (A) (A)
                 (A) (A) (A) (A) (A) (A) (A) (A) (A) (A) (A) (A)
                 (A) (A) (A) (A) (A) (A) (A) (A) (A) (A) (A) (A)
                 (A) (A) (A) (A) (A) (A) (A) (A) (A) (A) (A) (A)
                 (A) (A) (A) (A) (A) (A) (A) (A) (A) (A) (A) (A)
                 (A) (A) (A) (A) (A) (A) (A) (A) (A) (A) (A) (A)
                 (A) (A) (A) (A) (A) (A) (A) (A) (A) (A) (A) (A)
                 (A) (A) (A) (A) (A) (A) (A) (A) (A) (A) (A) (A)
                 (A) (A) (A) (A) (A) (A) (A) (A) (A) (A) (A) (A)
                 (A) (A) (A) (A) (A) (A) (A) (A) (A) (A) (A) (A)
                 (A) (A) (A) (A) (A) (A) (A) (A) (A) (A) (A) (A)
                 (A) (A) (A) (A) (A) (A) (A) (A) (A) (A) (A) (A)
                 (A) (A) (A) (A) (A) (A) (A) (A) (A)
 The electronic state is 1-A.
 Alpha  occ. eigenvalues --  -19.19688 -19.13993 -19.13469 -10.31473 -10.26591
 Alpha  occ. eigenvalues --  -10.24467 -10.21587 -10.19886 -10.19885 -10.19750
 Alpha  occ. eigenvalues --  -10.19748 -10.19703 -10.19338 -10.19337 -10.18572
 Alpha  occ. eigenvalues --   -1.10515  -1.03301  -1.01660  -0.88089  -0.79584
 Alpha  occ. eigenvalues --   -0.78438  -0.76576  -0.72859  -0.68230  -0.65076
 Alpha  occ. eigenvalues --   -0.61948  -0.60778  -0.58052  -0.55878  -0.52489
 Alpha  occ. eigenvalues --   -0.48892  -0.48519  -0.47389  -0.46357  -0.45976
 Alpha  occ. eigenvalues --   -0.44726  -0.44399  -0.44240  -0.42438  -0.41377
 Alpha  occ. eigenvalues --   -0.40845  -0.40619  -0.40108  -0.38808  -0.36654
 Alpha  occ. eigenvalues --   -0.36578  -0.36188  -0.34522  -0.34171  -0.33952
 Alpha  occ. eigenvalues --   -0.31506  -0.30856  -0.30394  -0.29969  -0.26984
 Alpha  occ. eigenvalues --   -0.23231
 Alpha virt. eigenvalues --   -0.01184   0.00601   0.06591   0.10684   0.11343
 Alpha virt. eigenvalues --    0.11630   0.12155   0.12964   0.13466   0.13477
 Alpha virt. eigenvalues --    0.14380   0.15159   0.15931   0.16171   0.16808
 Alpha virt. eigenvalues --    0.18114   0.18705   0.18878   0.19140   0.19748
 Alpha virt. eigenvalues --    0.20405   0.21714   0.22116   0.22926   0.24312
 Alpha virt. eigenvalues --    0.24485   0.25939   0.26382   0.27641   0.28701
 Alpha virt. eigenvalues --    0.30192   0.33730   0.35460   0.36958   0.38857
 Alpha virt. eigenvalues --    0.50424   0.50704   0.50824   0.51181   0.52954
 Alpha virt. eigenvalues --    0.53730   0.53956   0.56313   0.57042   0.59644
 Alpha virt. eigenvalues --    0.59849   0.61844   0.62411   0.63817   0.64779
 Alpha virt. eigenvalues --    0.65178   0.66210   0.66788   0.67902   0.69513
 Alpha virt. eigenvalues --    0.70594   0.72425   0.73918   0.74547   0.75849
 Alpha virt. eigenvalues --    0.76655   0.78128   0.78147   0.80219   0.80376
 Alpha virt. eigenvalues --    0.81920   0.83667   0.85400   0.85445   0.85808
 Alpha virt. eigenvalues --    0.86032   0.86214   0.87829   0.88024   0.90410
 Alpha virt. eigenvalues --    0.91055   0.91316   0.92321   0.92883   0.93121
 Alpha virt. eigenvalues --    0.94860   0.95878   0.97421   0.97994   0.99070
 Alpha virt. eigenvalues --    1.02144   1.04209   1.06584   1.08770   1.09269
 Alpha virt. eigenvalues --    1.11656   1.13328   1.16593   1.19482   1.20414
 Alpha virt. eigenvalues --    1.22871   1.23130   1.26748   1.28020   1.28412
 Alpha virt. eigenvalues --    1.34788   1.36682   1.36859   1.42952   1.45563
 Alpha virt. eigenvalues --    1.48179   1.51359   1.51805   1.54872   1.60206
 Alpha virt. eigenvalues --    1.60521   1.62732   1.65105   1.65637   1.68207
 Alpha virt. eigenvalues --    1.68508   1.73260   1.74141   1.74895   1.75598
 Alpha virt. eigenvalues --    1.76638   1.78193   1.79511   1.80656   1.81876
 Alpha virt. eigenvalues --    1.84024   1.85187   1.85656   1.87560   1.89290
 Alpha virt. eigenvalues --    1.90320   1.90538   1.93817   1.96661   2.00678
 Alpha virt. eigenvalues --    2.01230   2.02739   2.04220   2.04988   2.07611
 Alpha virt. eigenvalues --    2.08091   2.08472   2.10908   2.11037   2.13018
 Alpha virt. eigenvalues --    2.14487   2.15767   2.19937   2.21640   2.23460
 Alpha virt. eigenvalues --    2.26563   2.26900   2.29776   2.29824   2.31822
 Alpha virt. eigenvalues --    2.34822   2.35304   2.35609   2.38731   2.39908
 Alpha virt. eigenvalues --    2.42158   2.43994   2.45095   2.47758   2.48903
 Alpha virt. eigenvalues --    2.49961   2.56078   2.61457   2.62338   2.64885
 Alpha virt. eigenvalues --    2.67614   2.68586   2.69571   2.71276   2.73464
 Alpha virt. eigenvalues --    2.75186   2.75276   2.77275   2.79908   2.80453
 Alpha virt. eigenvalues --    2.89073   2.94948   3.01046   3.03171   3.05354
 Alpha virt. eigenvalues --    3.19187   4.00523   4.08464   4.13202   4.21633
 Alpha virt. eigenvalues --    4.25278   4.27894   4.30610   4.33427   4.48799
 Alpha virt. eigenvalues --    4.51436   4.56889   4.71887   4.80768   4.82332
 Alpha virt. eigenvalues --    4.86614
          Condensed to atoms (all electrons):
               1          2          3          4          5          6
     1  O    8.010483   0.579331  -0.073785   0.001050   0.000918   0.000028
     2  C    0.579331   4.514382   0.332016  -0.028582  -0.030317  -0.020719
     3  C   -0.073785   0.332016   5.229155   0.325210   0.339064  -0.028663
     4  C    0.001050  -0.028582   0.325210   5.146498  -0.038763  -0.014349
     5  C    0.000918  -0.030317   0.339064  -0.038763   5.099303   0.371089
     6  C    0.000028  -0.020719  -0.028663  -0.014349   0.371089   4.959537
     7  C    0.000918  -0.030317  -0.008053  -0.002620  -0.049495   0.371088
     8  C   -0.073785   0.332017  -0.124496  -0.008863  -0.008053  -0.028663
     9  C    0.001050  -0.028583  -0.008864  -0.047059  -0.002620  -0.014349
    10  C    0.000087  -0.020411  -0.022324   0.355992  -0.017383  -0.020022
    11  C    0.000000   0.000068   0.002872  -0.035695  -0.000136   0.004491
    12  O    0.000000  -0.000002  -0.000053  -0.000164  -0.000012   0.000656
    13  O    0.000000  -0.000015   0.000194   0.001041  -0.000007  -0.000020
    14  C   -0.000000   0.000001   0.000004  -0.000111   0.000000   0.000001
    15  C   -0.000029  -0.002463  -0.012603  -0.051677  -0.043310   0.349842
    16  H    0.004268  -0.031113   0.345762  -0.031673  -0.030973   0.004226
    17  H    0.000695  -0.001107  -0.035745   0.365331   0.004812  -0.000027
    18  H   -0.000082   0.003425  -0.030190   0.359068  -0.006048  -0.000695
    19  H   -0.000081   0.003534  -0.031032  -0.005916   0.360936  -0.033235
    20  H    0.000750  -0.000768  -0.039618   0.005169   0.367764  -0.034882
    21  H   -0.000001   0.000284   0.004640   0.000084  -0.037880   0.371033
    22  H    0.000750  -0.000768  -0.000098   0.000039  -0.004239  -0.034882
    23  H   -0.000081   0.003534  -0.000287   0.000112   0.005229  -0.033235
    24  H    0.004268  -0.031113   0.007006  -0.000015  -0.000072   0.004226
    25  H   -0.000082   0.003425  -0.000322   0.005488   0.000109  -0.000695
    26  H    0.000695  -0.001107   0.000425  -0.005220  -0.000010  -0.000027
    27  H    0.000000   0.000000   0.000000   0.000024  -0.000000  -0.000000
    28  H    0.000000   0.000000  -0.000001  -0.000107   0.000000  -0.000000
    29  H   -0.000000   0.000000  -0.000000  -0.000016   0.000000  -0.000000
    30  H    0.000000   0.000130  -0.000016   0.005295   0.004940  -0.034734
    31  H    0.000000   0.000130  -0.001303  -0.004276  -0.003669  -0.034733
               7          8          9         10         11         12
     1  O    0.000918  -0.073785   0.001050   0.000087   0.000000   0.000000
     2  C   -0.030317   0.332017  -0.028583  -0.020411   0.000068  -0.000002
     3  C   -0.008053  -0.124496  -0.008864  -0.022324   0.002872  -0.000053
     4  C   -0.002620  -0.008863  -0.047059   0.355992  -0.035695  -0.000164
     5  C   -0.049495  -0.008053  -0.002620  -0.017383  -0.000136  -0.000012
     6  C    0.371088  -0.028663  -0.014349  -0.020022   0.004491   0.000656
     7  C    5.099302   0.339065  -0.038764  -0.017382  -0.000136  -0.000012
     8  C    0.339065   5.229149   0.325212  -0.022324   0.002872  -0.000053
     9  C   -0.038764   0.325212   5.146507   0.355972  -0.035684  -0.000162
    10  C   -0.017382  -0.022324   0.355972   5.084670   0.346024  -0.075395
    11  C   -0.000136   0.002872  -0.035684   0.346024   4.383243   0.550575
    12  O   -0.000012  -0.000053  -0.000162  -0.075395   0.550575   8.064145
    13  O   -0.000007   0.000194   0.001041  -0.102182   0.246476  -0.082761
    14  C    0.000000   0.000004  -0.000111   0.007892  -0.018398   0.003721
    15  C   -0.043309  -0.012604  -0.051676   0.366964  -0.044571   0.002980
    16  H   -0.000072   0.007006  -0.000015   0.003831  -0.000090   0.000000
    17  H   -0.000010   0.000425  -0.005220  -0.033030  -0.007154   0.000026
    18  H    0.000109  -0.000322   0.005488  -0.036440  -0.002281   0.000608
    19  H    0.005229  -0.000287   0.000112  -0.001268  -0.000092  -0.000000
    20  H   -0.004239  -0.000098   0.000039   0.000240   0.000015   0.000000
    21  H   -0.037879   0.004640   0.000085   0.004326  -0.000095  -0.000000
    22  H    0.367765  -0.039618   0.005169   0.000240   0.000015   0.000000
    23  H    0.360936  -0.031032  -0.005916  -0.001268  -0.000092  -0.000000
    24  H   -0.030973   0.345762  -0.031673   0.003831  -0.000090   0.000000
    25  H   -0.006048  -0.030189   0.359069  -0.036438  -0.002283   0.000607
    26  H    0.004812  -0.035745   0.365331  -0.033032  -0.007153   0.000026
    27  H    0.000000  -0.000001  -0.000107   0.000019  -0.005435   0.005917
    28  H   -0.000000   0.000000   0.000024   0.000019  -0.005435   0.005921
    29  H    0.000000  -0.000000  -0.000016  -0.000001   0.004808   0.000752
    30  H   -0.003669  -0.001303  -0.004276  -0.034089  -0.004935   0.004247
    31  H    0.004940  -0.000016   0.005295  -0.034089  -0.004937   0.004249
              13         14         15         16         17         18
     1  O    0.000000  -0.000000  -0.000029   0.004268   0.000695  -0.000082
     2  C   -0.000015   0.000001  -0.002463  -0.031113  -0.001107   0.003425
     3  C    0.000194   0.000004  -0.012603   0.345762  -0.035745  -0.030190
     4  C    0.001041  -0.000111  -0.051677  -0.031673   0.365331   0.359068
     5  C   -0.000007   0.000000  -0.043310  -0.030973   0.004812  -0.006048
     6  C   -0.000020   0.000001   0.349842   0.004226  -0.000027  -0.000695
     7  C   -0.000007   0.000000  -0.043309  -0.000072  -0.000010   0.000109
     8  C    0.000194   0.000004  -0.012604   0.007006   0.000425  -0.000322
     9  C    0.001041  -0.000111  -0.051676  -0.000015  -0.005220   0.005488
    10  C   -0.102182   0.007892   0.366964   0.003831  -0.033030  -0.036440
    11  C    0.246476  -0.018398  -0.044571  -0.000090  -0.007154  -0.002281
    12  O   -0.082761   0.003721   0.002980   0.000000   0.000026   0.000608
    13  O    8.264908   0.209470   0.003252  -0.000001   0.007406  -0.000045
    14  C    0.209470   4.891478  -0.000202  -0.000000  -0.000247  -0.000061
    15  C    0.003252  -0.000202   5.106334   0.000078   0.005202  -0.004134
    16  H   -0.000001  -0.000000   0.000078   0.596296  -0.002616  -0.003878
    17  H    0.007406  -0.000247   0.005202  -0.002616   0.565593  -0.033314
    18  H   -0.000045  -0.000061  -0.004134  -0.003878  -0.033314   0.593200
    19  H    0.000000  -0.000000  -0.003283  -0.003939  -0.000058   0.005674
    20  H   -0.000000   0.000000   0.004810  -0.002517  -0.000147  -0.000057
    21  H    0.000000  -0.000000  -0.038759  -0.000140   0.000017  -0.000089
    22  H   -0.000000   0.000000   0.004810  -0.000085  -0.000005   0.000001
    23  H    0.000000  -0.000000  -0.003283   0.000023   0.000001  -0.000005
    24  H   -0.000001  -0.000000   0.000078  -0.000174  -0.000075   0.000023
    25  H   -0.000044  -0.000061  -0.004134   0.000023  -0.000009  -0.000194
    26  H    0.007404  -0.000247   0.005202  -0.000075   0.004123  -0.000009
    27  H   -0.031153   0.373860   0.000006  -0.000000   0.000016  -0.000000
    28  H   -0.031155   0.373859   0.000006   0.000000   0.000022   0.000016
    29  H   -0.032736   0.377612   0.000001  -0.000000  -0.000001  -0.000002
    30  H    0.000063  -0.000009   0.365749   0.000017  -0.000162  -0.000070
    31  H    0.000063  -0.000009   0.365748  -0.000061  -0.000052   0.004855
              19         20         21         22         23         24
     1  O   -0.000081   0.000750  -0.000001   0.000750  -0.000081   0.004268
     2  C    0.003534  -0.000768   0.000284  -0.000768   0.003534  -0.031113
     3  C   -0.031032  -0.039618   0.004640  -0.000098  -0.000287   0.007006
     4  C   -0.005916   0.005169   0.000084   0.000039   0.000112  -0.000015
     5  C    0.360936   0.367764  -0.037880  -0.004239   0.005229  -0.000072
     6  C   -0.033235  -0.034882   0.371033  -0.034882  -0.033235   0.004226
     7  C    0.005229  -0.004239  -0.037879   0.367765   0.360936  -0.030973
     8  C   -0.000287  -0.000098   0.004640  -0.039618  -0.031032   0.345762
     9  C    0.000112   0.000039   0.000085   0.005169  -0.005916  -0.031673
    10  C   -0.001268   0.000240   0.004326   0.000240  -0.001268   0.003831
    11  C   -0.000092   0.000015  -0.000095   0.000015  -0.000092  -0.000090
    12  O   -0.000000   0.000000  -0.000000   0.000000  -0.000000   0.000000
    13  O    0.000000  -0.000000   0.000000  -0.000000   0.000000  -0.000001
    14  C   -0.000000   0.000000  -0.000000   0.000000  -0.000000  -0.000000
    15  C   -0.003283   0.004810  -0.038759   0.004810  -0.003283   0.000078
    16  H   -0.003939  -0.002517  -0.000140  -0.000085   0.000023  -0.000174
    17  H   -0.000058  -0.000147   0.000017  -0.000005   0.000001  -0.000075
    18  H    0.005674  -0.000057  -0.000089   0.000001  -0.000005   0.000023
    19  H    0.597201  -0.034811  -0.003212   0.000007  -0.000199   0.000023
    20  H   -0.034811   0.591871  -0.003372   0.004261   0.000007  -0.000085
    21  H   -0.003212  -0.003372   0.620204  -0.003372  -0.003212  -0.000140
    22  H    0.000007   0.004261  -0.003372   0.591871  -0.034811  -0.002517
    23  H   -0.000199   0.000007  -0.003212  -0.034811   0.597201  -0.003939
    24  H    0.000023  -0.000085  -0.000140  -0.002517  -0.003939   0.596298
    25  H   -0.000005   0.000001  -0.000089  -0.000057   0.005674  -0.003878
    26  H    0.000001  -0.000005   0.000017  -0.000147  -0.000058  -0.002616
    27  H    0.000000   0.000000  -0.000000  -0.000000  -0.000000   0.000000
    28  H   -0.000000  -0.000000  -0.000000   0.000000   0.000000  -0.000000
    29  H   -0.000000  -0.000000   0.000000  -0.000000  -0.000000  -0.000000
    30  H   -0.000055  -0.000153  -0.003526  -0.000037   0.004484  -0.000061
    31  H    0.004484  -0.000037  -0.003525  -0.000153  -0.000055   0.000017
              25         26         27         28         29         30
     1  O   -0.000082   0.000695   0.000000   0.000000  -0.000000   0.000000
     2  C    0.003425  -0.001107   0.000000   0.000000   0.000000   0.000130
     3  C   -0.000322   0.000425   0.000000  -0.000001  -0.000000  -0.000016
     4  C    0.005488  -0.005220   0.000024  -0.000107  -0.000016   0.005295
     5  C    0.000109  -0.000010  -0.000000   0.000000   0.000000   0.004940
     6  C   -0.000695  -0.000027  -0.000000  -0.000000  -0.000000  -0.034734
     7  C   -0.006048   0.004812   0.000000  -0.000000   0.000000  -0.003669
     8  C   -0.030189  -0.035745  -0.000001   0.000000  -0.000000  -0.001303
     9  C    0.359069   0.365331  -0.000107   0.000024  -0.000016  -0.004276
    10  C   -0.036438  -0.033032   0.000019   0.000019  -0.000001  -0.034089
    11  C   -0.002283  -0.007153  -0.005435  -0.005435   0.004808  -0.004935
    12  O    0.000607   0.000026   0.005917   0.005921   0.000752   0.004247
    13  O   -0.000044   0.007404  -0.031153  -0.031155  -0.032736   0.000063
    14  C   -0.000061  -0.000247   0.373860   0.373859   0.377612  -0.000009
    15  C   -0.004134   0.005202   0.000006   0.000006   0.000001   0.365749
    16  H    0.000023  -0.000075  -0.000000   0.000000  -0.000000   0.000017
    17  H   -0.000009   0.004123   0.000016   0.000022  -0.000001  -0.000162
    18  H   -0.000194  -0.000009  -0.000000   0.000016  -0.000002  -0.000070
    19  H   -0.000005   0.000001   0.000000  -0.000000  -0.000000  -0.000055
    20  H    0.000001  -0.000005   0.000000  -0.000000  -0.000000  -0.000153
    21  H   -0.000089   0.000017  -0.000000  -0.000000   0.000000  -0.003526
    22  H   -0.000057  -0.000147  -0.000000   0.000000  -0.000000  -0.000037
    23  H    0.005674  -0.000058  -0.000000   0.000000  -0.000000   0.004484
    24  H   -0.003878  -0.002616   0.000000  -0.000000  -0.000000  -0.000061
    25  H    0.593201  -0.033315   0.000016  -0.000000  -0.000002   0.004855
    26  H   -0.033315   0.565600   0.000021   0.000016  -0.000001  -0.000052
    27  H    0.000016   0.000021   0.554357  -0.037381  -0.031364   0.000000
    28  H   -0.000000   0.000016  -0.037381   0.554354  -0.031364  -0.000001
    29  H   -0.000002  -0.000001  -0.031364  -0.031364   0.546053  -0.000000
    30  H    0.004855  -0.000052   0.000000  -0.000001  -0.000000   0.583387
    31  H   -0.000070  -0.000162  -0.000001   0.000000  -0.000000  -0.031793
              31
     1  O    0.000000
     2  C    0.000130
     3  C   -0.001303
     4  C   -0.004276
     5  C   -0.003669
     6  C   -0.034733
     7  C    0.004940
     8  C   -0.000016
     9  C    0.005295
    10  C   -0.034089
    11  C   -0.004937
    12  O    0.004249
    13  O    0.000063
    14  C   -0.000009
    15  C    0.365748
    16  H   -0.000061
    17  H   -0.000052
    18  H    0.004855
    19  H    0.004484
    20  H   -0.000037
    21  H   -0.003525
    22  H   -0.000153
    23  H   -0.000055
    24  H    0.000017
    25  H   -0.000070
    26  H   -0.000162
    27  H   -0.000001
    28  H    0.000000
    29  H   -0.000000
    30  H   -0.031793
    31  H    0.583383
 Mulliken charges:
               1
     1  O   -0.457367
     2  C    0.455107
     3  C   -0.168897
     4  C   -0.295294
     5  C   -0.281179
     6  C   -0.102286
     7  C   -0.281179
     8  C   -0.168895
     9  C   -0.295299
    10  C   -0.023026
    11  C    0.633232
    12  O   -0.485817
    13  O   -0.461385
    14  C   -0.218447
    15  C   -0.265022
    16  H    0.145892
    17  H    0.165310
    18  H    0.145447
    19  H    0.140273
    20  H    0.145860
    21  H    0.129959
    22  H    0.145860
    23  H    0.140273
    24  H    0.145891
    25  H    0.145447
    26  H    0.165306
    27  H    0.171205
    28  H    0.171208
    29  H    0.166278
    30  H    0.145771
    31  H    0.145773
 Sum of Mulliken charges =  -0.00000
 Mulliken charges with hydrogens summed into heavy atoms:
               1
     1  O   -0.457367
     2  C    0.455107
     3  C   -0.023006
     4  C    0.015463
     5  C    0.004955
     6  C    0.027673
     7  C    0.004955
     8  C   -0.023005
     9  C    0.015453
    10  C   -0.023026
    11  C    0.633232
    12  O   -0.485817
    13  O   -0.461385
    14  C    0.290245
    15  C    0.026523
 APT charges:
               1
     1  O   -0.637904
     2  C    0.693652
     3  C   -0.044972
     4  C    0.102557
     5  C    0.116389
     6  C    0.103655
     7  C    0.116390
     8  C   -0.044974
     9  C    0.102571
    10  C   -0.051848
    11  C    1.057251
    12  O   -0.678939
    13  O   -0.846641
    14  C    0.509481
    15  C    0.071686
    16  H   -0.051207
    17  H   -0.014196
    18  H   -0.038304
    19  H   -0.044718
    20  H   -0.041679
    21  H   -0.068992
    22  H   -0.041678
    23  H   -0.044718
    24  H   -0.051208
    25  H   -0.038305
    26  H   -0.014203
    27  H   -0.027312
    28  H   -0.027308
    29  H   -0.011124
    30  H   -0.026702
    31  H   -0.026701
 Sum of APT charges =   0.00000
 APT charges with hydrogens summed into heavy atoms:
               1
     1  O   -0.637904
     2  C    0.693652
     3  C   -0.096179
     4  C    0.050057
     5  C    0.029993
     6  C    0.034663
     7  C    0.029993
     8  C   -0.096182
     9  C    0.050063
    10  C   -0.051848
    11  C    1.057251
    12  O   -0.678939
    13  O   -0.846641
    14  C    0.443738
    15  C    0.018283
 Electronic spatial extent (au):  <R**2>=           2939.7951
 Charge=             -0.0000 electrons
 Dipole moment (field-independent basis, Debye):
    X=              1.3925    Y=              0.9397    Z=              0.0000  Tot=              1.6799
 Quadrupole moment (field-independent basis, Debye-Ang):
   XX=            -89.6807   YY=            -97.0975   ZZ=            -84.2933
   XY=            -16.1336   XZ=             -0.0001   YZ=             -0.0003
 Traceless Quadrupole moment (field-independent basis, Debye-Ang):
   XX=              0.6764   YY=             -6.7403   ZZ=              6.0639
   XY=            -16.1336   XZ=             -0.0001   YZ=             -0.0003
 Octapole moment (field-independent basis, Debye-Ang**2):
  XXX=             65.4907  YYY=              5.5324  ZZZ=             -0.0002  XYY=             18.3843
  XXY=             -5.8288  XXZ=              0.0012  XZZ=              5.2327  YZZ=             -1.5909
  YYZ=              0.0007  XYZ=             -0.0001
 Hexadecapole moment (field-independent basis, Debye-Ang**3):
 XXXX=          -2251.2457 YYYY=           -853.4329 ZZZZ=           -529.2680 XXXY=           -159.4229
 XXXZ=              0.0015 YYYX=            -59.2501 YYYZ=             -0.0011 ZZZX=              0.0008
 ZZZY=             -0.0001 XXYY=           -610.3378 XXZZ=           -477.8119 YYZZ=           -222.1322
 XXYZ=             -0.0026 YYXZ=              0.0005 ZZXY=             12.2080
 N-N= 1.088695018915D+03 E-N=-3.789675827852D+03  KE= 6.862423362790D+02
  Exact polarizability: 136.462   1.122 119.895   0.001  -0.000 107.723
 Approx polarizability: 178.044  14.469 192.794   0.001   0.001 160.707
 Calling FoFJK, ICntrl=    100127 FMM=F ISym2X=0 I1Cent= 0 IOpClX= 0 NMat=1 NMatS=1 NMatT=0.
 Full mass-weighted force constant matrix:
 Low frequencies ---   -9.1720   -3.9251   -0.0003    0.0003    0.0006   10.5362
 Low frequencies ---   34.1098   82.2378  100.3690
 Diagonal vibrational polarizability:
       24.2473191      12.3557619      53.2094367
 Harmonic frequencies (cm**-1), IR intensities (KM/Mole), Raman scattering
 activities (A**4/AMU), depolarization ratios for plane and unpolarized
 incident light, reduced masses (AMU), force constants (mDyne/A),
 and normal coordinates:
                      1                      2                      3
                      A                      A                      A
 Frequencies --     34.0663                82.2378               100.3687
 Red. masses --      6.1615                 8.8108                 2.8457
 Frc consts  --      0.0042                 0.0351                 0.0169
 IR Inten    --      1.9119                 3.6318                 0.3646
  Atom  AN      X      Y      Z        X      Y      Z        X      Y      Z
     1   8     0.00  -0.00   0.09     0.53  -0.30  -0.00     0.00  -0.00   0.04
     2   6     0.00  -0.00   0.05     0.11  -0.01  -0.00     0.00   0.00   0.01
     3   6    -0.01   0.06   0.02    -0.05   0.09   0.00     0.07  -0.01  -0.01
     4   6    -0.01   0.06   0.02    -0.05   0.10   0.01     0.06  -0.02  -0.10
     5   6    -0.01   0.06  -0.06    -0.05   0.08  -0.01     0.08  -0.01   0.05
     6   6    -0.00   0.00  -0.09    -0.03   0.09   0.00     0.00   0.00   0.02
     7   6     0.01  -0.06  -0.06    -0.05   0.08   0.01    -0.08   0.01   0.05
     8   6     0.01  -0.06   0.02    -0.05   0.09  -0.00    -0.07   0.01  -0.01
     9   6     0.01  -0.06   0.02    -0.05   0.10  -0.01    -0.06   0.02  -0.10
    10   6    -0.00   0.00  -0.01    -0.04   0.07   0.00    -0.00  -0.00  -0.11
    11   6    -0.00   0.00   0.07    -0.04  -0.01  -0.00     0.00  -0.00  -0.08
    12   8    -0.00  -0.00   0.45     0.04  -0.07  -0.00    -0.00  -0.00   0.05
    13   8    -0.00  -0.00  -0.28    -0.15  -0.06   0.00    -0.00  -0.00  -0.09
    14   6    -0.00  -0.00  -0.17    -0.16  -0.22  -0.00    -0.00   0.00   0.27
    15   6    -0.00   0.00  -0.08    -0.02   0.08   0.00     0.00  -0.00  -0.07
    16   1    -0.02   0.10   0.04    -0.04   0.08   0.00     0.11  -0.02   0.01
    17   1    -0.01   0.06   0.07    -0.05   0.10   0.04     0.06  -0.02  -0.14
    18   1    -0.01   0.10   0.00    -0.05   0.12   0.00     0.12  -0.04  -0.11
    19   1    -0.01   0.10  -0.08    -0.07   0.08  -0.00     0.15  -0.02   0.03
    20   1    -0.01   0.06  -0.06    -0.05   0.09  -0.04     0.08   0.00   0.12
    21   1    -0.00   0.00  -0.14    -0.02   0.09   0.00     0.00   0.00   0.06
    22   1     0.01  -0.06  -0.06    -0.05   0.09   0.04    -0.08  -0.00   0.12
    23   1     0.01  -0.10  -0.08    -0.07   0.08   0.00    -0.15   0.02   0.03
    24   1     0.02  -0.10   0.04    -0.04   0.08  -0.00    -0.11   0.02   0.01
    25   1     0.01  -0.10   0.00    -0.05   0.12  -0.00    -0.12   0.04  -0.11
    26   1     0.01  -0.06   0.07    -0.05   0.10  -0.04    -0.06   0.02  -0.14
    27   1     0.08   0.31   0.03    -0.10  -0.26  -0.00     0.24   0.13   0.45
    28   1    -0.08  -0.31   0.03    -0.10  -0.26   0.00    -0.24  -0.13   0.45
    29   1    -0.00  -0.00  -0.52    -0.27  -0.24   0.00    -0.00   0.00   0.18
    30   1     0.00  -0.04  -0.10    -0.02   0.08  -0.00    -0.05   0.00  -0.09
    31   1    -0.00   0.04  -0.10    -0.02   0.08   0.00     0.05  -0.00  -0.09
                      4                      5                      6
                      A                      A                      A
 Frequencies --    135.1269               153.2161               211.0782
 Red. masses --      1.1153                 3.9303                 3.5487
 Frc consts  --      0.0120                 0.0544                 0.0932
 IR Inten    --      0.0336                 1.4547                 5.0108
  Atom  AN      X      Y      Z        X      Y      Z        X      Y      Z
     1   8    -0.00   0.00   0.01     0.11  -0.09  -0.00    -0.00   0.00   0.01
     2   6     0.00  -0.00   0.00    -0.08   0.04   0.00     0.00  -0.00  -0.01
     3   6     0.01  -0.00  -0.00    -0.10   0.06  -0.00     0.03   0.00  -0.02
     4   6     0.01  -0.00  -0.01    -0.09  -0.09  -0.00     0.02  -0.05  -0.10
     5   6     0.01   0.00   0.00     0.03   0.10  -0.00     0.12   0.03   0.04
     6   6    -0.00  -0.00  -0.00     0.09   0.06  -0.00    -0.00  -0.00  -0.03
     7   6    -0.01  -0.00   0.00     0.03   0.10   0.00    -0.12  -0.03   0.04
     8   6    -0.01   0.00  -0.00    -0.10   0.06   0.00    -0.03  -0.00  -0.02
     9   6    -0.01   0.00  -0.01    -0.09  -0.09   0.00    -0.02   0.05  -0.10
    10   6     0.00   0.00  -0.02    -0.03  -0.13  -0.00    -0.00   0.00  -0.08
    11   6     0.00   0.00   0.00    -0.03  -0.10   0.00     0.00   0.00   0.09
    12   8     0.00   0.00   0.07    -0.11  -0.04   0.00     0.00   0.00   0.12
    13   8    -0.00   0.00  -0.04     0.11  -0.03  -0.00    -0.00   0.00   0.28
    14   6    -0.00  -0.00   0.00     0.13   0.21  -0.00     0.00  -0.00  -0.12
    15   6    -0.00   0.00  -0.01     0.08  -0.08  -0.00    -0.00   0.00  -0.13
    16   1     0.01  -0.00   0.00    -0.14   0.09  -0.00     0.05   0.00  -0.01
    17   1     0.01  -0.00  -0.02    -0.19  -0.14  -0.01    -0.01  -0.06  -0.18
    18   1     0.02  -0.01  -0.02    -0.04  -0.14   0.00     0.08  -0.12  -0.09
    19   1     0.02  -0.00   0.00     0.08   0.08  -0.00     0.28   0.01  -0.01
    20   1     0.01   0.00   0.02     0.03   0.20   0.01     0.12   0.11   0.19
    21   1    -0.00  -0.00   0.00     0.18   0.10  -0.00    -0.00  -0.00  -0.02
    22   1    -0.01  -0.00   0.02     0.03   0.20  -0.01    -0.12  -0.11   0.19
    23   1    -0.02   0.00   0.00     0.08   0.08   0.00    -0.28  -0.01  -0.01
    24   1    -0.01   0.00   0.00    -0.14   0.09   0.00    -0.05  -0.00  -0.01
    25   1    -0.02   0.01  -0.02    -0.04  -0.14  -0.00    -0.08   0.12  -0.09
    26   1    -0.01   0.00  -0.02    -0.19  -0.14   0.01     0.01   0.06  -0.18
    27   1     0.00  -0.50  -0.28     0.03   0.29   0.00    -0.26   0.07  -0.19
    28   1    -0.00   0.50  -0.28     0.03   0.29  -0.00     0.26  -0.07  -0.19
    29   1    -0.00  -0.00   0.58     0.31   0.26   0.00     0.00  -0.00  -0.28
    30   1    -0.01  -0.00  -0.02     0.13  -0.12   0.00    -0.05  -0.07  -0.20
    31   1     0.01   0.00  -0.02     0.13  -0.12  -0.00     0.05   0.07  -0.20
                      7                      8                      9
                      A                      A                      A
 Frequencies --    275.2694               282.3348               304.6196
 Red. masses --      2.3484                 4.0070                 2.5650
 Frc consts  --      0.1048                 0.1882                 0.1402
 IR Inten    --      1.2798                 5.0214                 2.2494
  Atom  AN      X      Y      Z        X      Y      Z        X      Y      Z
     1   8     0.00  -0.00   0.15    -0.02   0.01   0.00     0.00  -0.00   0.08
     2   6     0.00  -0.00   0.05    -0.00  -0.00   0.00    -0.00  -0.00   0.02
     3   6    -0.00   0.04   0.00    -0.04   0.02  -0.00     0.10  -0.05  -0.01
     4   6    -0.00  -0.12  -0.09    -0.03   0.12   0.04     0.09   0.08  -0.03
     5   6    -0.05   0.02  -0.07    -0.16  -0.02  -0.04    -0.07  -0.13  -0.06
     6   6     0.00   0.00  -0.05    -0.09  -0.01  -0.00    -0.00  -0.00   0.04
     7   6     0.05  -0.02  -0.07    -0.16  -0.02   0.04     0.07   0.13  -0.06
     8   6     0.00  -0.04   0.00    -0.04   0.02   0.00    -0.10   0.05  -0.01
     9   6     0.00   0.12  -0.09    -0.03   0.12  -0.04    -0.09  -0.08  -0.03
    10   6    -0.00  -0.00  -0.02     0.03   0.03   0.00     0.00   0.00  -0.09
    11   6    -0.00   0.00  -0.00     0.10  -0.10  -0.00     0.00   0.00  -0.02
    12   8    -0.00   0.00   0.00     0.18  -0.15  -0.00     0.00   0.00   0.06
    13   8    -0.00   0.00   0.01     0.13  -0.11  -0.00     0.00   0.00   0.09
    14   6    -0.00  -0.00  -0.00     0.16   0.07   0.00     0.00  -0.00  -0.02
    15   6     0.00  -0.00   0.15    -0.05   0.02   0.00    -0.00  -0.00   0.00
    16   1    -0.00   0.07   0.02    -0.01   0.01  -0.00     0.16  -0.08  -0.00
    17   1    -0.14  -0.18  -0.28     0.01   0.14   0.18     0.18   0.12   0.09
    18   1     0.14  -0.31  -0.04    -0.10   0.25  -0.01     0.05   0.22  -0.09
    19   1    -0.14   0.07  -0.06    -0.31  -0.00   0.01    -0.31  -0.10   0.02
    20   1    -0.05  -0.05  -0.13    -0.16  -0.12  -0.17    -0.08  -0.29  -0.24
    21   1     0.00   0.00  -0.09    -0.08  -0.00  -0.00     0.00  -0.00   0.13
    22   1     0.05   0.05  -0.13    -0.16  -0.12   0.17     0.08   0.29  -0.24
    23   1     0.14  -0.07  -0.06    -0.31  -0.00  -0.01     0.31   0.10   0.02
    24   1     0.00  -0.07   0.02    -0.01   0.01   0.00    -0.16   0.08  -0.00
    25   1    -0.14   0.31  -0.04    -0.10   0.25   0.01    -0.05  -0.22  -0.09
    26   1     0.14   0.18  -0.28     0.01   0.14  -0.18    -0.18  -0.12   0.09
    27   1    -0.01   0.00  -0.01     0.10   0.13   0.00    -0.08   0.01  -0.05
    28   1     0.01  -0.00  -0.01     0.10   0.13  -0.00     0.08  -0.01  -0.05
    29   1    -0.00  -0.00  -0.01     0.29   0.10   0.00     0.00  -0.00  -0.06
    30   1     0.14   0.16   0.31    -0.09   0.05  -0.00    -0.05   0.07   0.03
    31   1    -0.14  -0.16   0.31    -0.09   0.05   0.00     0.05  -0.07   0.03
                     10                     11                     12
                      A                      A                      A
 Frequencies --    315.6215               355.7054               385.9160
 Red. masses --      4.2453                 5.9486                 2.7801
 Frc consts  --      0.2492                 0.4435                 0.2439
 IR Inten    --      4.7005                 4.9137                 4.9789
  Atom  AN      X      Y      Z        X      Y      Z        X      Y      Z
     1   8     0.03   0.09   0.00    -0.13  -0.22   0.00     0.07   0.06   0.00
     2   6     0.12   0.03  -0.00    -0.17  -0.17   0.00    -0.00   0.10   0.00
     3   6     0.10  -0.01   0.03    -0.08  -0.08  -0.07     0.01   0.04   0.02
     4   6     0.06   0.05   0.04    -0.05   0.01  -0.10     0.02  -0.12  -0.07
     5   6     0.06  -0.03   0.02     0.10  -0.00  -0.03    -0.03   0.02   0.07
     6   6     0.01  -0.02   0.00     0.10   0.06   0.00    -0.16  -0.02   0.00
     7   6     0.06  -0.03  -0.02     0.10  -0.00   0.03    -0.03   0.02  -0.07
     8   6     0.10  -0.01  -0.03    -0.08  -0.08   0.07     0.01   0.04  -0.02
     9   6     0.06   0.05  -0.04    -0.05   0.01   0.10     0.02  -0.12   0.07
    10   6    -0.04   0.01  -0.00     0.01   0.16  -0.00    -0.00   0.02   0.00
    11   6    -0.13  -0.12   0.00     0.04   0.06   0.00     0.04   0.03   0.00
    12   8    -0.05  -0.17   0.00     0.26  -0.08   0.00     0.15  -0.05   0.00
    13   8    -0.17  -0.13   0.00    -0.09   0.02   0.00    -0.01   0.00  -0.00
    14   6    -0.16   0.24  -0.00    -0.09   0.14  -0.00    -0.01   0.04  -0.00
    15   6     0.00   0.02   0.00     0.09   0.18  -0.00    -0.14  -0.01   0.00
    16   1     0.07  -0.04  -0.00    -0.00   0.01   0.02     0.02  -0.01  -0.01
    17   1     0.12   0.07   0.09     0.02   0.04  -0.23    -0.13  -0.18  -0.32
    18   1     0.06   0.13  -0.01    -0.13  -0.12   0.00     0.17  -0.37   0.01
    19   1     0.06  -0.00   0.00     0.22  -0.11  -0.01     0.07   0.08   0.00
    20   1     0.06  -0.07   0.05     0.09   0.17   0.03    -0.03  -0.03   0.22
    21   1    -0.03  -0.04   0.00    -0.00   0.02   0.00    -0.15  -0.02   0.00
    22   1     0.06  -0.06  -0.05     0.09   0.17  -0.03    -0.03  -0.03  -0.22
    23   1     0.06  -0.00  -0.00     0.22  -0.11   0.01     0.07   0.08  -0.00
    24   1     0.07  -0.04   0.00    -0.00   0.01  -0.02     0.02  -0.01   0.01
    25   1     0.06   0.13   0.01    -0.13  -0.12  -0.00     0.17  -0.37  -0.01
    26   1     0.12   0.07  -0.09     0.02   0.04   0.23    -0.13  -0.18   0.32
    27   1    -0.31   0.37   0.01    -0.15   0.20   0.01    -0.03   0.06   0.00
    28   1    -0.31   0.37  -0.01    -0.15   0.20  -0.01    -0.03   0.06  -0.00
    29   1     0.15   0.32   0.00     0.02   0.17   0.00     0.03   0.05   0.00
    30   1     0.00   0.01  -0.00     0.08   0.18  -0.01    -0.17   0.01   0.00
    31   1     0.00   0.01   0.00     0.08   0.18   0.01    -0.17   0.01  -0.00
                     13                     14                     15
                      A                      A                      A
 Frequencies --    396.3777               434.1980               435.3718
 Red. masses --      4.9501                 1.7927                 1.9216
 Frc consts  --      0.4582                 0.1991                 0.2146
 IR Inten    --      0.1640                 1.0040                 0.0983
  Atom  AN      X      Y      Z        X      Y      Z        X      Y      Z
     1   8    -0.00  -0.00   0.00     0.00   0.00  -0.03    -0.01  -0.02  -0.00
     2   6     0.00  -0.00  -0.00     0.00   0.00  -0.05    -0.03  -0.00  -0.00
     3   6     0.14  -0.10  -0.00     0.03   0.03  -0.05    -0.02  -0.02   0.02
     4   6     0.12  -0.12   0.16     0.04   0.08  -0.00    -0.03   0.06   0.03
     5   6     0.16  -0.07  -0.16     0.06   0.05   0.00     0.08   0.00   0.11
     6   6    -0.00   0.00  -0.19     0.00   0.00  -0.04    -0.08  -0.04  -0.00
     7   6    -0.16   0.07  -0.16    -0.06  -0.05   0.00     0.08   0.00  -0.11
     8   6    -0.14   0.10  -0.00    -0.03  -0.03  -0.05    -0.02  -0.02  -0.02
     9   6    -0.12   0.12   0.16    -0.04  -0.08  -0.00    -0.03   0.06  -0.03
    10   6    -0.00  -0.00   0.19     0.00  -0.00  -0.04    -0.03   0.03  -0.00
    11   6    -0.00  -0.00   0.05     0.00   0.00  -0.03    -0.00  -0.03  -0.00
    12   8    -0.00   0.00  -0.02     0.00   0.00   0.02    -0.04  -0.02   0.00
    13   8    -0.00  -0.00  -0.02    -0.00   0.00   0.02     0.06  -0.03   0.00
    14   6    -0.00  -0.00   0.01    -0.00   0.00  -0.00     0.07  -0.03   0.00
    15   6     0.00   0.00  -0.01     0.00  -0.00   0.16    -0.07   0.04   0.00
    16   1     0.01  -0.01  -0.00     0.04   0.03  -0.05     0.00  -0.05   0.01
    17   1     0.17  -0.10   0.06     0.09   0.10   0.14     0.06   0.10   0.12
    18   1     0.06  -0.19   0.22    -0.03   0.22  -0.05    -0.09   0.17  -0.01
    19   1     0.21   0.01  -0.22     0.21   0.04  -0.05     0.40   0.00  -0.01
    20   1     0.16  -0.12  -0.05     0.07   0.10   0.15     0.08   0.14   0.41
    21   1    -0.00  -0.00  -0.05     0.00   0.00  -0.08    -0.13  -0.06  -0.00
    22   1    -0.16   0.12  -0.05    -0.07  -0.10   0.15     0.08   0.14  -0.41
    23   1    -0.21  -0.01  -0.22    -0.21  -0.04  -0.05     0.40   0.00   0.01
    24   1    -0.01   0.01  -0.00    -0.04  -0.03  -0.05     0.00  -0.05  -0.01
    25   1    -0.06   0.19   0.22     0.03  -0.22  -0.05    -0.09   0.17   0.01
    26   1    -0.17   0.10   0.06    -0.09  -0.10   0.14     0.06   0.10  -0.12
    27   1     0.03  -0.00   0.02    -0.02   0.00  -0.01     0.08  -0.04  -0.00
    28   1    -0.03   0.00   0.02     0.02  -0.00  -0.01     0.08  -0.04   0.00
    29   1    -0.00  -0.00   0.02    -0.00   0.00  -0.01     0.06  -0.04  -0.00
    30   1     0.18  -0.13  -0.01     0.19   0.27   0.41    -0.10   0.05  -0.00
    31   1    -0.18   0.13  -0.01    -0.19  -0.27   0.41    -0.10   0.05   0.00
                     16                     17                     18
                      A                      A                      A
 Frequencies --    466.7876               485.3404               616.3690
 Red. masses --      4.3994                 3.8476                 5.3413
 Frc consts  --      0.5648                 0.5340                 1.1956
 IR Inten    --      8.7973                 4.3418                 0.1984
  Atom  AN      X      Y      Z        X      Y      Z        X      Y      Z
     1   8     0.00  -0.00   0.32     0.02   0.01   0.00    -0.14  -0.17  -0.00
     2   6    -0.00   0.00  -0.18    -0.02   0.04   0.00     0.00  -0.23  -0.00
     3   6    -0.04  -0.03  -0.22    -0.06   0.00   0.05     0.10   0.06  -0.04
     4   6    -0.08   0.01   0.02    -0.03  -0.00   0.13     0.15  -0.03   0.04
     5   6     0.03  -0.06   0.02    -0.00   0.01   0.05    -0.02   0.16  -0.05
     6   6     0.00  -0.00   0.06     0.04  -0.10  -0.00    -0.17   0.24   0.00
     7   6    -0.03   0.06   0.02    -0.00   0.01  -0.05    -0.02   0.16   0.05
     8   6     0.04   0.03  -0.22    -0.06   0.00  -0.05     0.10   0.06   0.04
     9   6     0.08  -0.01   0.02    -0.03  -0.00  -0.13     0.15  -0.03  -0.04
    10   6     0.00  -0.00   0.07     0.02  -0.14  -0.00     0.03  -0.11  -0.00
    11   6    -0.00  -0.00   0.04     0.06   0.11   0.00     0.00  -0.00   0.00
    12   8    -0.00   0.00  -0.02     0.21   0.03   0.00    -0.00  -0.00  -0.00
    13   8     0.00  -0.00  -0.03    -0.07   0.11   0.00    -0.01  -0.02   0.00
    14   6    -0.00   0.00   0.00    -0.12   0.05  -0.00    -0.02   0.00  -0.00
    15   6     0.00  -0.00  -0.00     0.02  -0.23  -0.00    -0.16  -0.11   0.00
    16   1    -0.14  -0.17  -0.36    -0.11  -0.03   0.01     0.11   0.27   0.10
    17   1    -0.03   0.03   0.11    -0.01   0.01   0.41     0.14  -0.03   0.20
    18   1    -0.26   0.05   0.06    -0.12   0.24   0.03     0.14   0.12  -0.04
    19   1     0.16  -0.20   0.06     0.09   0.04  -0.00     0.08   0.12  -0.06
    20   1     0.03   0.03   0.11    -0.00   0.10   0.10    -0.01   0.05   0.14
    21   1     0.00  -0.00   0.10     0.17  -0.05  -0.00    -0.01   0.30   0.00
    22   1    -0.03  -0.03   0.11    -0.00   0.10  -0.10    -0.01   0.05  -0.14
    23   1    -0.16   0.20   0.06     0.09   0.04   0.00     0.08   0.12   0.06
    24   1     0.14   0.17  -0.36    -0.11  -0.03  -0.01     0.11   0.27  -0.10
    25   1     0.26  -0.05   0.06    -0.12   0.24  -0.03     0.14   0.12   0.04
    26   1     0.03  -0.03   0.11    -0.01   0.01  -0.41     0.14  -0.03  -0.20
    27   1     0.02  -0.00   0.01    -0.10   0.04   0.00    -0.03   0.01   0.00
    28   1    -0.02   0.00   0.01    -0.10   0.04  -0.00    -0.03   0.01  -0.00
    29   1    -0.00   0.00   0.01    -0.15   0.05  -0.00     0.01   0.01   0.00
    30   1    -0.05  -0.08  -0.07     0.04  -0.23   0.01    -0.09  -0.14   0.01
    31   1     0.05   0.08  -0.07     0.04  -0.23  -0.01    -0.09  -0.14  -0.01
                     19                     20                     21
                      A                      A                      A
 Frequencies --    634.4763               667.1418               715.8956
 Red. masses --      3.5319                 5.2286                 3.9885
 Frc consts  --      0.8377                 1.3711                 1.2044
 IR Inten    --      2.6092                 3.6133                 2.1636
  Atom  AN      X      Y      Z        X      Y      Z        X      Y      Z
     1   8    -0.00   0.00  -0.04     0.02   0.10   0.00     0.06   0.09   0.00
     2   6    -0.00   0.00  -0.15     0.22  -0.06  -0.00     0.07   0.06   0.00
     3   6     0.11   0.15  -0.11    -0.01  -0.08   0.01     0.01   0.00  -0.25
     4   6     0.14  -0.01   0.07    -0.09  -0.13   0.18    -0.07   0.03  -0.14
     5   6    -0.07   0.12   0.07     0.08  -0.01  -0.10     0.05  -0.04  -0.13
     6   6     0.00  -0.00   0.08    -0.03   0.20   0.00    -0.05   0.02   0.00
     7   6     0.07  -0.12   0.07     0.08  -0.01   0.10     0.05  -0.04   0.13
     8   6    -0.11  -0.15  -0.11    -0.01  -0.08  -0.01     0.01   0.00   0.25
     9   6    -0.14   0.01   0.07    -0.09  -0.13  -0.18    -0.07   0.03   0.14
    10   6    -0.00  -0.00   0.08    -0.17  -0.03   0.00     0.00  -0.05  -0.00
    11   6     0.00   0.00  -0.04    -0.06   0.03   0.00     0.01   0.00  -0.00
    12   8     0.00  -0.00   0.02     0.09  -0.06  -0.00     0.01   0.00   0.00
    13   8    -0.00   0.00   0.02     0.04   0.08  -0.00    -0.00   0.00   0.00
    14   6    -0.00   0.00   0.00     0.06  -0.01   0.00    -0.01   0.00  -0.00
    15   6    -0.00  -0.00   0.02    -0.08   0.19   0.00    -0.09  -0.14  -0.00
    16   1     0.06   0.06  -0.19    -0.33  -0.01  -0.07     0.02   0.04  -0.23
    17   1    -0.01  -0.08  -0.09    -0.03  -0.11   0.18    -0.01   0.06   0.07
    18   1     0.22  -0.18   0.13    -0.10  -0.08   0.15    -0.30   0.17  -0.12
    19   1    -0.27   0.12   0.14     0.04  -0.11  -0.03     0.27  -0.22  -0.11
    20   1    -0.07  -0.07  -0.09     0.08  -0.02  -0.11     0.06   0.01   0.08
    21   1    -0.00   0.00  -0.18    -0.26   0.11   0.00     0.02   0.05   0.00
    22   1     0.07   0.07  -0.09     0.08  -0.02   0.11     0.06   0.01  -0.08
    23   1     0.27  -0.12   0.14     0.04  -0.11   0.03     0.27  -0.22   0.11
    24   1    -0.06  -0.06  -0.19    -0.33  -0.01   0.07     0.02   0.04   0.23
    25   1    -0.22   0.18   0.13    -0.10  -0.08  -0.15    -0.30   0.17   0.12
    26   1     0.01   0.08  -0.09    -0.03  -0.11  -0.18    -0.01   0.06  -0.07
    27   1    -0.01   0.00  -0.00     0.13  -0.07  -0.00    -0.01   0.00  -0.00
    28   1     0.01  -0.00  -0.00     0.13  -0.07   0.00    -0.01   0.00   0.00
    29   1    -0.00  -0.00  -0.01    -0.08  -0.05   0.00    -0.01   0.00  -0.00
    30   1    -0.14  -0.21  -0.17    -0.00   0.13  -0.00    -0.07  -0.14   0.00
    31   1     0.14   0.21  -0.17    -0.00   0.13   0.00    -0.07  -0.14  -0.00
                     22                     23                     24
                      A                      A                      A
 Frequencies --    750.5367               783.5490               791.2066
 Red. masses --      7.5700                 4.1705                 3.8135
 Frc consts  --      2.5124                 1.5086                 1.4066
 IR Inten    --      5.5521                 3.6063                 5.0827
  Atom  AN      X      Y      Z        X      Y      Z        X      Y      Z
     1   8     0.00   0.00  -0.04    -0.05   0.01   0.00    -0.03   0.06   0.00
     2   6    -0.00   0.00   0.03     0.20  -0.16  -0.00     0.26  -0.14  -0.00
     3   6     0.12   0.06  -0.02     0.03   0.02   0.06    -0.04  -0.05  -0.04
     4   6    -0.02   0.10  -0.14    -0.07   0.10  -0.10    -0.05   0.01   0.00
     5   6     0.03   0.00   0.01    -0.02   0.04   0.02    -0.13   0.03   0.10
     6   6     0.00  -0.00   0.01     0.07  -0.06  -0.00    -0.03   0.09   0.00
     7   6    -0.03  -0.00   0.01    -0.02   0.04  -0.02    -0.13   0.03  -0.10
     8   6    -0.12  -0.06  -0.02     0.03   0.02  -0.06    -0.04  -0.05   0.04
     9   6     0.02  -0.10  -0.14    -0.07   0.10   0.10    -0.05   0.01  -0.00
    10   6     0.00   0.00   0.09    -0.15   0.02   0.00     0.10   0.01  -0.00
    11   6    -0.00  -0.00   0.65    -0.14  -0.02   0.00     0.11   0.01   0.00
    12   8     0.00   0.00  -0.16     0.03  -0.16  -0.00    -0.01   0.11   0.00
    13   8     0.00  -0.00  -0.14     0.03   0.18  -0.00    -0.02  -0.11   0.00
    14   6     0.00  -0.00  -0.01     0.05   0.01   0.00    -0.04  -0.00  -0.00
    15   6    -0.00  -0.00   0.02     0.01  -0.14  -0.00     0.15   0.01  -0.00
    16   1     0.29   0.09   0.06     0.13   0.02   0.10    -0.02  -0.18  -0.11
    17   1    -0.01   0.10  -0.17    -0.13   0.07  -0.32    -0.14  -0.03  -0.08
    18   1     0.01   0.05  -0.12     0.18  -0.07  -0.10    -0.03  -0.13   0.06
    19   1    -0.09   0.03   0.04     0.05   0.06  -0.02     0.14  -0.15   0.11
    20   1     0.03  -0.14  -0.05    -0.02   0.13   0.04    -0.13   0.16   0.32
    21   1     0.00  -0.00  -0.00     0.23   0.00  -0.00     0.11   0.15  -0.00
    22   1    -0.03   0.14  -0.05    -0.02   0.13  -0.04    -0.13   0.16  -0.32
    23   1     0.09  -0.03   0.04     0.05   0.06   0.02     0.14  -0.15  -0.11
    24   1    -0.29  -0.09   0.06     0.13   0.02  -0.10    -0.02  -0.18   0.11
    25   1    -0.01  -0.05  -0.12     0.18  -0.07   0.10    -0.03  -0.13  -0.06
    26   1     0.01  -0.10  -0.17    -0.13   0.07   0.32    -0.14  -0.03   0.08
    27   1     0.13  -0.01   0.04     0.19  -0.12  -0.01    -0.13   0.08   0.01
    28   1    -0.13   0.01   0.04     0.19  -0.12   0.01    -0.13   0.08  -0.01
    29   1     0.00   0.00   0.07    -0.27  -0.07  -0.00     0.16   0.05   0.00
    30   1     0.03  -0.05   0.00     0.05  -0.17   0.00     0.18  -0.00   0.00
    31   1    -0.03   0.05   0.00     0.05  -0.17  -0.00     0.18  -0.00  -0.00
                     25                     26                     27
                      A                      A                      A
 Frequencies --    807.0221               861.3146               893.7410
 Red. masses --      2.9791                 2.6966                 3.7297
 Frc consts  --      1.1432                 1.1787                 1.7553
 IR Inten    --      0.4896                 0.1891                 3.5089
  Atom  AN      X      Y      Z        X      Y      Z        X      Y      Z
     1   8     0.03  -0.00  -0.00    -0.00   0.00  -0.04    -0.01  -0.01   0.00
     2   6    -0.11   0.09   0.00     0.00  -0.00   0.04     0.00  -0.01  -0.00
     3   6     0.03  -0.07  -0.04     0.03   0.15  -0.02    -0.03   0.07  -0.09
     4   6     0.04  -0.03  -0.05    -0.09   0.06   0.01     0.07  -0.02   0.09
     5   6    -0.05  -0.02   0.13     0.12  -0.09  -0.06    -0.07  -0.02  -0.05
     6   6    -0.03   0.20   0.00     0.00  -0.00   0.11    -0.07  -0.13  -0.00
     7   6    -0.05  -0.02  -0.13    -0.12   0.09  -0.06    -0.07  -0.02   0.05
     8   6     0.03  -0.07   0.04    -0.03  -0.15  -0.02    -0.03   0.07   0.09
     9   6     0.04  -0.03   0.05     0.09  -0.06   0.01     0.07  -0.02  -0.09
    10   6    -0.04  -0.06   0.00     0.00  -0.00   0.03     0.19  -0.00  -0.00
    11   6    -0.07  -0.02   0.00     0.00  -0.00  -0.09    -0.03  -0.10   0.00
    12   8     0.01  -0.09  -0.00    -0.00  -0.00   0.02    -0.06  -0.13  -0.00
    13   8     0.02   0.12  -0.00     0.00   0.00   0.01     0.06   0.17  -0.00
    14   6    -0.00   0.01  -0.00    -0.00   0.00   0.00    -0.09   0.04  -0.00
    15   6     0.10   0.03  -0.00     0.00   0.00   0.04     0.12   0.11  -0.00
    16   1     0.11  -0.19  -0.09     0.04   0.33   0.10    -0.08   0.11  -0.09
    17   1     0.18   0.03   0.13    -0.31  -0.03  -0.08    -0.12  -0.09   0.07
    18   1    -0.11   0.17  -0.10    -0.03  -0.12   0.08     0.06  -0.13   0.16
    19   1    -0.16  -0.13   0.23    -0.00  -0.13   0.00     0.24  -0.05  -0.15
    20   1    -0.05  -0.17   0.09     0.12  -0.19  -0.13    -0.07   0.12   0.23
    21   1    -0.02   0.20   0.00     0.00  -0.00   0.40    -0.13  -0.16  -0.00
    22   1    -0.05  -0.17  -0.09    -0.12   0.19  -0.13    -0.07   0.12  -0.23
    23   1    -0.16  -0.13  -0.23     0.00   0.13   0.00     0.24  -0.05   0.15
    24   1     0.11  -0.19   0.09    -0.04  -0.33   0.10    -0.08   0.11   0.09
    25   1    -0.11   0.17   0.10     0.03   0.12   0.08     0.06  -0.13  -0.16
    26   1     0.18   0.03  -0.13     0.31   0.03  -0.08    -0.12  -0.09  -0.07
    27   1     0.08  -0.07  -0.01    -0.01   0.00  -0.00     0.05  -0.09  -0.01
    28   1     0.08  -0.07   0.01     0.01  -0.00  -0.00     0.05  -0.09   0.01
    29   1    -0.20  -0.04  -0.00    -0.00  -0.00  -0.01    -0.37  -0.03  -0.00
    30   1     0.25  -0.06   0.01    -0.10  -0.03  -0.02     0.01   0.17  -0.00
    31   1     0.25  -0.06  -0.01     0.10   0.03  -0.02     0.01   0.17   0.00
                     28                     29                     30
                      A                      A                      A
 Frequencies --    895.8148               905.9271               912.6885
 Red. masses --      1.6060                 1.5673                 2.3618
 Frc consts  --      0.7593                 0.7579                 1.1591
 IR Inten    --      1.9618                 0.4415                 8.6482
  Atom  AN      X      Y      Z        X      Y      Z        X      Y      Z
     1   8    -0.00   0.00  -0.01    -0.00  -0.00  -0.00    -0.03  -0.03  -0.00
     2   6     0.00  -0.00   0.06    -0.00  -0.00   0.02    -0.00  -0.04  -0.00
     3   6    -0.00  -0.00  -0.02     0.01  -0.00  -0.01     0.08   0.12   0.02
     4   6     0.03   0.00  -0.05    -0.02  -0.11  -0.03    -0.12   0.02  -0.00
     5   6    -0.06  -0.01  -0.06     0.07   0.06  -0.00     0.06  -0.09   0.03
     6   6    -0.00  -0.00   0.02     0.00   0.00   0.05    -0.08   0.03   0.00
     7   6     0.06   0.01  -0.06    -0.07  -0.06  -0.00     0.06  -0.09  -0.03
     8   6     0.00   0.00  -0.02    -0.01   0.00  -0.01     0.08   0.12  -0.02
     9   6    -0.03  -0.00  -0.05     0.02   0.11  -0.03    -0.12   0.02   0.00
    10   6     0.00  -0.00   0.05    -0.00  -0.00  -0.03     0.00  -0.08  -0.00
    11   6     0.00  -0.00  -0.02     0.00   0.00   0.00     0.04  -0.01   0.00
    12   8    -0.00  -0.00   0.01     0.00   0.00  -0.00     0.01   0.03   0.00
    13   8     0.00   0.00   0.00    -0.00  -0.00  -0.00     0.01   0.00  -0.00
    14   6    -0.00   0.00   0.00     0.00  -0.00  -0.00    -0.03   0.00  -0.00
    15   6     0.00  -0.00   0.15     0.00  -0.00   0.05     0.07   0.04  -0.00
    16   1     0.09   0.08   0.07    -0.07   0.10   0.03     0.18   0.25   0.15
    17   1     0.05   0.01   0.06     0.16  -0.03   0.35    -0.34  -0.07   0.07
    18   1    -0.03   0.08  -0.07    -0.22   0.27  -0.16    -0.04  -0.02  -0.01
    19   1     0.27  -0.04  -0.16    -0.22   0.08   0.09    -0.05  -0.05   0.05
    20   1    -0.06   0.12   0.26     0.07  -0.09  -0.25     0.06  -0.34   0.07
    21   1    -0.00  -0.00   0.00    -0.00   0.00  -0.01    -0.26  -0.04   0.00
    22   1     0.06  -0.12   0.26    -0.07   0.09  -0.25     0.06  -0.34  -0.07
    23   1    -0.27   0.04  -0.16     0.22  -0.08   0.09    -0.05  -0.05  -0.05
    24   1    -0.09  -0.08   0.07     0.07  -0.10   0.03     0.18   0.25  -0.15
    25   1     0.03  -0.08  -0.07     0.22  -0.27  -0.16    -0.04  -0.02   0.01
    26   1    -0.05  -0.01   0.06    -0.16   0.03   0.35    -0.34  -0.07  -0.07
    27   1    -0.00   0.00  -0.00     0.00  -0.00   0.00    -0.04   0.01   0.00
    28   1     0.00  -0.00  -0.00    -0.00   0.00   0.00    -0.04   0.01  -0.00
    29   1    -0.00  -0.00  -0.00     0.00   0.00   0.00    -0.00   0.01  -0.00
    30   1    -0.28  -0.37  -0.20    -0.08  -0.12  -0.06     0.16  -0.02  -0.00
    31   1     0.28   0.37  -0.20     0.08   0.12  -0.06     0.16  -0.02   0.00
                     31                     32                     33
                      A                      A                      A
 Frequencies --    958.4105               975.1331               986.6480
 Red. masses --      2.3002                 2.5132                 2.3037
 Frc consts  --      1.2449                 1.4080                 1.3213
 IR Inten    --      0.0140                 3.0025                 2.8651
  Atom  AN      X      Y      Z        X      Y      Z        X      Y      Z
     1   8     0.00  -0.00   0.01     0.00  -0.02  -0.00    -0.02  -0.03  -0.00
     2   6    -0.00   0.00  -0.03    -0.07   0.04   0.00     0.01  -0.03  -0.00
     3   6    -0.11   0.03   0.01    -0.01   0.03  -0.04     0.05   0.04  -0.11
     4   6     0.12  -0.02   0.05     0.05   0.06   0.11    -0.04  -0.01   0.07
     5   6     0.02  -0.01  -0.07    -0.01  -0.08  -0.02     0.02   0.03   0.12
     6   6     0.00  -0.00   0.12    -0.02   0.08  -0.00     0.12  -0.03  -0.00
     7   6    -0.02   0.01  -0.07    -0.01  -0.08   0.02     0.02   0.03  -0.12
     8   6     0.11  -0.03   0.01    -0.01   0.03   0.04     0.05   0.04   0.11
     9   6    -0.12   0.02   0.05     0.05   0.06  -0.11    -0.04  -0.01  -0.07
    10   6    -0.00   0.00  -0.12    -0.06   0.09   0.00     0.06   0.07   0.00
    11   6    -0.00   0.00   0.11    -0.07   0.06  -0.00    -0.03  -0.00  -0.00
    12   8     0.00   0.00  -0.02     0.01   0.00   0.00    -0.01  -0.03  -0.00
    13   8    -0.00  -0.00  -0.02    -0.08  -0.03  -0.00    -0.01   0.01  -0.00
    14   6     0.00  -0.00  -0.00     0.13  -0.01   0.00     0.02   0.00   0.00
    15   6     0.00  -0.00  -0.01     0.06  -0.12  -0.00    -0.12  -0.02   0.00
    16   1    -0.39   0.13  -0.05    -0.15   0.10  -0.05     0.09  -0.05  -0.15
    17   1     0.13  -0.01  -0.02    -0.04   0.03  -0.25    -0.13  -0.05   0.03
    18   1     0.30   0.03  -0.04     0.21  -0.22   0.20    -0.18  -0.15   0.21
    19   1     0.08  -0.07  -0.06     0.13  -0.26   0.03    -0.21  -0.06   0.25
    20   1     0.02   0.17  -0.08    -0.01  -0.09   0.17     0.02  -0.10  -0.14
    21   1     0.00  -0.00   0.36     0.09   0.12  -0.00     0.37   0.06  -0.00
    22   1    -0.02  -0.17  -0.08    -0.01  -0.09  -0.17     0.02  -0.10   0.14
    23   1    -0.08   0.07  -0.06     0.13  -0.26  -0.03    -0.21  -0.06  -0.25
    24   1     0.39  -0.13  -0.05    -0.15   0.10   0.05     0.09  -0.05   0.15
    25   1    -0.30  -0.03  -0.04     0.21  -0.22  -0.20    -0.18  -0.15  -0.21
    26   1    -0.13   0.01  -0.02    -0.03   0.03   0.25    -0.13  -0.05  -0.03
    27   1     0.01  -0.00   0.00     0.09   0.00  -0.01     0.04  -0.02  -0.00
    28   1    -0.01   0.00   0.00     0.09   0.00   0.01     0.04  -0.02   0.00
    29   1    -0.00  -0.00   0.01     0.13  -0.01   0.00    -0.03  -0.01  -0.00
    30   1    -0.17   0.14   0.01     0.16  -0.17   0.01    -0.27   0.09   0.00
    31   1     0.17  -0.14   0.01     0.16  -0.17  -0.01    -0.27   0.09  -0.00
                     34                     35                     36
                      A                      A                      A
 Frequencies --   1017.2050              1018.6746              1053.7004
 Red. masses --      4.0367                 2.0814                 2.3707
 Frc consts  --      2.4609                 1.2726                 1.5508
 IR Inten    --      7.5945                 4.0360                 0.4770
[...]
 01722119,-0.02472107,-0.00387740,-0.00303539,0.00065133,-0.04975055,-0
 .00067590,0.00021275,-0.00115063,-0.00051364,0.00096594,0.00051119,0.0
 0013623,-0.00019505,-0.00011725,0.00009670,-0.00029429,-0.00020072,0.0
 0001437,0.00005114,0.00001368,0.00049478,-0.00080369,0.00009204,-0.000
 08006,-0.00009716,0.00008064,0.00028953,-0.00030553,0.00019493,-0.0000
 5562,0.00014094,0.00064098,-0.00006689,0.00002782,-0.00007756,-0.00000
 170,0.00004098,0.00001331,-0.00006571,-0.00005059,-0.00001414,-0.00002
 835,0.00040694,0.00038825,-0.00061191,0.00062250,-0.00033408,-0.000600
 69,0.00044574,0.00096252,-0.00094647,-0.00134329,0.05266196,0.00001761
 ,-0.00041676,-0.00031685,0.00149233,-0.00010613,0.00044770,0.00000641,
 -0.00005969,0.00010973,0.00042921,0.00132013,0.00019062,-0.00000183,0.
 00004640,-0.00006972,-0.00034931,-0.00014720,0.00040973,-0.00289368,0.
 00040318,0.00338237,0.01228486,0.00085323,0.01789562,-0.13239624,0.000
 80174,-0.12212727,-0.01238412,-0.00019640,-0.01549723,-0.00153062,0.00
 015056,-0.00418810,0.00062357,-0.00011448,0.00090369,0.00108412,0.0004
 4607,0.00116529,-0.00002641,0.00019217,0.00082854,-0.00181201,-0.00405
 401,0.00141337,0.00004764,0.00001636,-0.00003675,0.00063036,-0.0003707
 5,0.00019453,-0.00002174,0.00005163,0.00028953,-0.00001766,0.00007389,
 0.00000011,0.00008203,-0.00007577,-0.00002239,0.00012985,0.00010505,-0
 .00012191,0.00087326,-0.00002969,0.00120498,-0.00004268,-0.00017440,0.
 00001828,0.00086609,-0.00009482,-0.00088664,-0.01043079,-0.00020681,-0
 .01516657,0.14331213,-0.00006385,0.00007607,0.00013789,-0.00037937,-0.
 00006271,-0.00075641,0.00023899,-0.00022282,0.00010422,-0.00068896,0.0
 0174460,-0.00108670,-0.00007337,0.00018366,0.00002059,-0.00014887,0.00
 001328,0.00046506,0.00007234,0.00053570,0.00054469,0.00032019,-0.00062
 831,-0.00067271,0.00224652,-0.05160443,-0.00101952,-0.01572903,-0.0016
 2956,-0.02249237,-0.00002783,0.00062774,-0.00158181,0.00013777,0.00010
 012,0.00035797,0.00000184,-0.00040651,0.00037795,0.00007559,0.00012258
 ,0.00045570,-0.00257271,-0.00471477,0.00136689,0.00005506,-0.00001755,
 -0.00004029,0.00037076,-0.00057046,0.00040729,0.00005369,0.00028818,0.
 00030553,-0.00000037,0.00004190,0.00004241,0.00007602,-0.00006501,0.00
 003508,0.00011984,0.00005775,-0.00003513,-0.00005253,0.00041099,0.0002
 2057,-0.00038540,0.00020470,-0.00042381,0.00029344,0.00010128,0.000285
 54,0.01523270,0.00101090,0.02306363,0.00193329,0.05407834,0.00128683,-
 0.00005582,0.00040679,-0.00238098,0.00086156,-0.00055659,0.00019350,-0
 .00021507,-0.00036738,0.00004459,0.00032788,0.00000153,-0.00019405,0.0
 0007722,-0.00003973,0.00031958,0.00041062,0.00029625,0.00484250,-0.000
 21746,-0.00326050,-0.01288741,-0.00117122,-0.02073848,-0.12417799,-0.0
 0239957,-0.22864420,-0.00027944,-0.00038907,0.00064689,-0.00019101,-0.
 00054910,-0.00031327,0.00005732,0.00016227,0.00018078,0.00167300,0.001
 09979,-0.00075844,0.00008719,0.00011188,0.00007883,0.00056052,-0.00002
 296,0.00105723,-0.00001510,-0.00008062,0.00000408,0.00019454,-0.000407
 30,0.00034243,0.00015504,-0.00000060,0.00019493,0.00004705,-0.00009565
 ,0.00002111,0.00001476,0.00003547,0.00005516,-0.00006944,-0.00006614,0
 .00002865,-0.00107612,-0.00021748,-0.00132816,0.00016151,0.00006029,0.
 00035917,-0.00005841,0.00045603,0.00088742,0.00037143,0.00049823,0.001
 09808,0.13128390,0.00158772,0.25028073,-0.00009001,-0.00004165,-0.0000
 0510,0.00011728,0.00009906,-0.00000517,0.00005013,0.00003144,0.0000072
 8,-0.00014024,-0.00015465,0.00003793,-0.00003783,-0.00002426,0.0000181
 2,0.00005163,0.00001060,-0.00000032,-0.00000631,0.00002844,-0.00000193
 ,0.00000340,-0.00006782,-0.00003048,0.00001940,0.00016301,0.00000756,-
 0.00006208,0.00010542,0.00008112,-0.00205674,-0.00023437,-0.00449130,0
 .00155541,-0.00008233,0.00051465,-0.01396376,0.01269474,0.01396718,-0.
 13624589,0.12379626,0.00148765,-0.00010879,-0.00004400,0.00003255,-0.0
 0002814,-0.00000004,0.00003081,0.00015783,-0.00007278,0.00001546,0.000
 01980,0.00000807,0.00001704,0.00000575,-0.00000287,-0.00000683,-0.0000
 0043,0.00000187,0.00002859,-0.00001072,-0.00000503,0.00003425,-0.00001
 112,-0.00000529,0.00001018,0.00000958,-0.00000708,-0.00000050,-0.00002
 833,-0.00000900,0.00002768,0.00003914,-0.00006081,0.00006352,0.0000156
 5,0.00008067,-0.00001172,0.14822434,0.00001412,0.00002175,-0.00000118,
 -0.00001023,-0.00004933,-0.00001020,-0.00001960,0.00002187,0.00000278,
 0.00005106,-0.00004279,0.00000558,0.00001177,-0.00000357,0.00000328,-0
 .00001338,-0.00000176,-0.00001902,0.00000477,-0.00000225,0.00000086,-0
 .00003984,-0.00002539,-0.00000098,-0.00003678,0.00001244,0.00007974,-0
 .00022126,-0.00041419,-0.00008794,0.00318385,0.00085087,0.00194417,-0.
 00187300,0.00031751,0.00127761,-0.00134996,0.00724149,-0.00547000,0.12
 529167,-0.23777037,-0.00419556,0.00003355,-0.00001600,-0.00004240,-0.0
 0000139,0.00000246,-0.00000211,-0.00006132,0.00000676,-0.00000223,0.00
 001665,0.00002400,0.00001471,0.00000005,0.00000185,0.00000285,-0.00000
 459,0.00000408,-0.00000904,0.00000004,0.00000203,-0.00000844,-0.000001
 63,-0.00000141,-0.00000362,-0.00000267,0.00000500,-0.00000073,-0.00000
 492,0.00000371,0.00000839,0.00000256,0.00001174,0.00000375,-0.00003623
 ,-0.00001813,-0.00000617,-0.13835522,0.24801720,0.00008087,0.00000915,
 0.00001332,-0.00010779,-0.00003005,-0.00000301,-0.00008576,0.00000168,
 -0.00001106,0.00000774,0.00013629,0.00001385,0.00003366,0.00001595,-0.
 00001573,-0.00005421,-0.00000746,-0.00002367,0.00001090,-0.00002154,0.
 00001843,0.00003536,0.00009431,0.00004337,0.00008559,-0.00018224,-0.00
 018626,0.00003252,0.00092352,-0.00011187,0.00749783,-0.00161833,0.0049
 6083,-0.00350053,0.00010595,-0.00006374,0.02329814,-0.02686524,-0.0164
 6415,-0.00288818,0.00227170,-0.05030133,0.00013363,0.00008427,-0.00000
 489,0.00001766,-0.00000568,-0.00002132,-0.00019711,0.00010544,-0.00002
 823,-0.00001763,-0.00003184,-0.00000897,-0.00000524,-0.00000174,0.0000
 0417,-0.00000618,0.00000165,-0.00002493,0.00000894,0.00000133,-0.00003
 131,0.,0.00000042,-0.00001221,-0.00000660,0.00000722,-0.00000049,0.000
 03096,0.00000377,-0.00004093,-0.00002029,0.00004588,-0.00004685,-0.000
 05283,-0.00006800,0.00001585,-0.01065323,0.00507579,0.05714331,-0.0000
 8999,0.00004165,-0.00000509,0.00011726,-0.00009907,-0.00000518,0.00000
 343,0.00006783,-0.00003047,0.00001937,-0.00016303,0.00000749,-0.000006
 32,-0.00002844,-0.00000193,0.00005164,-0.00001060,-0.00000031,-0.00003
 782,0.00002426,0.00001811,0.00005012,-0.00003144,0.00000728,-0.0001402
 2,0.00015462,0.00003791,-0.00006196,-0.00010558,0.00008110,-0.00205738
 ,0.00023546,-0.00449152,0.00155560,0.00008281,0.00051401,-0.01396485,-
 0.01269790,0.01396408,-0.13626115,-0.12380257,0.00145080,-0.00010881,0
 .00004400,0.00003257,-0.00002833,0.00000900,0.00002767,0.00001568,-0.0
 0008069,-0.00001173,0.00003916,0.00006083,0.00006355,0.00000958,0.0000
 0708,-0.00000050,-0.00001112,0.00000529,0.00001018,-0.00001072,0.00000
 503,0.00003425,-0.00000043,-0.00000187,0.00002859,0.00000575,0.0000028
 7,-0.00000683,-0.00002814,0.00000004,0.00003081,0.00001979,-0.00000807
 ,0.00001705,0.00015781,0.00007279,0.00001545,0.01256431,0.01576896,-0.
 00160524,0.14824190,-0.00001412,0.00002174,0.00000118,0.00001024,-0.00
 004931,0.00001020,0.00003984,-0.00002539,0.00000098,0.00003675,0.00001
 244,-0.00007970,-0.00000477,-0.00000225,-0.00000086,0.00001338,-0.0000
 0176,0.00001903,-0.00001178,-0.00000357,-0.00000328,0.00001963,0.00002
 187,-0.00000277,-0.00005107,-0.00004276,-0.00000561,0.00022131,-0.0004
 1398,0.00008801,-0.00318603,0.00085078,-0.00194532,0.00187403,0.000318
 00,-0.00127763,0.00134368,0.00723230,0.00547651,-0.12529614,-0.2377553
 1,0.00413864,-0.00003358,-0.00001597,0.00004241,0.00000491,0.00000371,
 -0.00000838,0.00003626,-0.00001815,0.00000617,-0.00000256,0.00001173,-
 0.00000374,0.00000267,0.00000500,0.00000073,0.00000163,-0.00000142,0.0
 0000363,-0.00000005,0.00000203,0.00000845,0.00000460,0.00000408,0.0000
 0904,-0.00000005,0.00000184,-0.00000285,0.00000139,0.00000246,0.000002
 11,-0.00001664,0.00002398,-0.00001470,0.00006137,0.00000679,0.00000224
 ,-0.01577047,-0.02086210,-0.00064814,0.13836411,0.24800311,0.00008085,
 -0.00000914,0.00001332,-0.00010777,0.00003002,-0.00000300,0.00003537,-
 0.00009433,0.00004337,0.00008564,0.00018228,-0.00018626,0.00001090,0.0
 0002154,0.00001843,-0.00005423,0.00000745,-0.00002367,0.00003365,-0.00
 001596,-0.00001572,-0.00008574,-0.00000169,-0.00001105,0.00000764,-0.0
 0013629,0.00001396,0.00003236,-0.00092375,-0.00011183,0.00749750,0.001
 61760,0.00496068,-0.00350047,-0.00010635,-0.00006450,0.02329965,0.0268
 7088,-0.01645428,-0.00292570,-0.00232826,-0.05030056,0.00013366,-0.000
 08427,-0.00000488,0.00003096,-0.00000377,-0.00004094,-0.00005284,0.000
 06800,0.00001586,-0.00002030,-0.00004589,-0.00004686,-0.00000660,-0.00
 000722,-0.00000049,0.,-0.00000042,-0.00001221,0.00000895,-0.00000133,-
 0.00003131,-0.00000618,-0.00000165,-0.00002493,-0.00000524,0.00000174,
 0.00000417,0.00001765,0.00000568,-0.00002131,-0.00001763,0.00003187,-0
 .00000898,-0.00019706,-0.00010542,-0.00002820,-0.00161002,0.00064129,0
 .00173910,-0.01061150,-0.00501724,0.05714001,0.00001920,0.,-0.00000234
 ,-0.00001254,0.,-0.00000319,-0.00001340,0.00000878,-0.00000572,0.00007
 804,-0.00004234,-0.00002243,0.00001616,-0.00000721,-0.00001127,0.00009
 325,0.,0.00007737,0.00001615,0.00000721,-0.00001127,-0.00001339,-0.000
 00878,-0.00000571,0.00007802,0.00004234,-0.00002243,0.00085798,-0.0000
 0009,0.00064038,-0.00545700,-0.00000038,0.00294806,0.00219487,0.000000
 46,-0.00235905,0.01437738,-0.00000453,0.02513428,-0.18591620,0.0000265
 6,-0.14785524,-0.00026113,0.,0.00017323,0.00000122,-0.00000061,-0.0000
 0111,-0.00003362,0.00002668,-0.00001559,-0.00001473,0.00001731,-0.0000
 0379,-0.00000125,0.00000301,0.00000270,0.00000001,0.00000101,-0.000006
 65,-0.00002303,0.,0.00002874,0.00000001,-0.00000101,-0.00000665,-0.000
 00125,-0.00000301,0.00000270,0.00000122,0.00000061,-0.00000111,-0.0000
 1472,-0.00001731,-0.00000379,-0.00003360,-0.00002668,-0.00001559,-0.01
 007047,-0.00234899,-0.01203015,-0.01007136,0.00235343,-0.01203066,0.19
 418859,-0.00000003,-0.00002029,0.,0.00000003,0.00003889,0.,0.00000722,
 -0.00000034,0.00001156,-0.00004068,-0.00000850,-0.00001544,-0.00000732
 ,-0.00000179,0.00000247,0.00000004,0.00000089,0.00000001,0.00000732,-0
 .00000178,-0.00000247,-0.00000723,-0.00000035,-0.00001156,0.00004071,-
 0.00000845,0.00001546,0.00000020,0.00015824,0.00000017,-0.00000128,0.0
 0023036,-0.00000011,0.00000031,0.00077521,-0.00000028,0.00000187,0.000
 35413,0.00000505,0.00002469,-0.05583727,0.00002505,-0.00000009,-0.0000
 1552,0.00000005,0.00000302,-0.00000398,-0.00000363,0.00002654,0.000013
 65,-0.00000265,-0.00000804,0.00000233,-0.00000033,-0.00000126,-0.00000
 094,-0.00000072,0.00000234,0.00000007,0.00000335,0.,-0.00000285,0.0000
 0001,-0.00000235,0.00000007,-0.00000335,0.00000126,-0.00000095,0.00000
 071,-0.00000303,-0.00000398,0.00000363,0.00000802,0.00000233,0.0000003
 2,-0.00002653,0.00001363,0.00000265,0.01793440,0.00264965,0.02060454,-
 0.01793368,0.00265724,-0.02060399,-0.00002647,0.04901261,0.00015057,0.
 ,0.00003357,-0.00019358,0.00000002,-0.00002640,0.00005227,-0.00004891,
 0.00003886,-0.00011658,0.00019887,-0.00009341,-0.00001084,0.00004285,0
 .00000442,-0.00022500,0.,-0.00007236,-0.00001084,-0.00004285,0.0000044
 2,0.00005227,0.00004890,0.00003885,-0.00011656,-0.00019887,-0.00009339
 ,-0.00122885,0.00000013,-0.00087191,0.00671392,0.00000004,-0.00074026,
 -0.00108826,-0.00000008,0.00106143,-0.01504210,0.00000632,-0.03697848,
 -0.13596318,0.00002441,-0.18973490,0.00057621,-0.00000001,-0.00032215,
 0.00003916,-0.00000943,-0.00004122,0.00001774,-0.00001277,0.00001719,0
 .00000470,-0.00001816,0.00000382,-0.00000575,-0.00000244,0.00000666,0.
 00001914,-0.00001110,-0.00001187,0.00005430,0.,-0.00008835,0.00001914,
 0.00001110,-0.00001187,-0.00000575,0.00000244,0.00000666,0.00003916,0.
 00000943,-0.00004121,0.00000470,0.00001816,0.00000383,0.00001773,0.000
 01278,0.00001721,0.00044701,0.00082173,0.00350244,0.00044139,-0.000822
 02,0.00349582,0.14537798,-0.00003051,0.22085034,0.00001148,-0.00036165
 ,-0.00000356,0.00018569,0.00092860,0.00001061,0.00042872,-0.00039432,-
 0.00003353,-0.00114472,-0.00145495,-0.00343404,-0.00106276,-0.00153515
 ,0.00362005,-0.01189124,0.01487176,0.00014648,0.00026352,0.00134954,-0
 .00074847,-0.00013377,-0.00049764,-0.00000320,0.00038959,0.00143610,0.
 00075088,-0.01199098,0.01493461,-0.00143893,-0.00081054,-0.00007679,0.
 00081334,0.00069468,-0.00039210,0.00067470,0.00007106,-0.00006823,-0.0
 0013403,-0.00002728,-0.00000700,0.00002655,-0.13989208,0.12254695,-0.0
 0142663,0.00000150,-0.00001772,0.00001590,-0.00051077,0.00102363,0.000
 06323,0.00008086,0.00023341,0.00000630,0.00010513,0.00023973,-0.000019
 07,-0.00051913,0.00101363,-0.00006189,0.00083632,-0.00033566,-0.000052
 90,0.00042921,-0.00019376,0.00001717,-0.00012008,-0.00097739,0.0002104
 6,-0.00005165,-0.00003406,0.00000717,-0.00005373,-0.00087885,-0.000214
 36,0.00039853,-0.00020887,-0.00001466,0.00002837,-0.00000600,-0.000025
 49,-0.00000117,-0.00000795,-0.00001733,0.00000779,0.00000631,-0.000010
 05,0.15197566,0.00017732,0.00014423,-0.00000074,-0.00024557,-0.0003624
 0,-0.00000183,-0.00014547,0.00011460,0.00000723,-0.00017451,0.00085972
 ,0.00061620,-0.00046272,0.00099601,-0.00052814,-0.00128190,-0.00004720
 ,-0.00044468,-0.00059656,0.00062146,0.00025856,0.00012767,0.00001277,-
 0.00002584,-0.00066465,0.00056841,-0.00019420,-0.00109831,-0.00049895,
 0.00057323,0.00273182,0.00015355,-0.00013131,-0.00149719,0.00064226,-0
 .00108167,-0.00076350,-0.00009700,-0.00016479,0.00001519,-0.00004196,0
 .00009733,0.12296131,-0.21954445,0.00090420,0.00003414,-0.00003961,0.0
 0000558,0.00035087,0.00014321,-0.00011334,-0.00012875,0.00041919,-0.00
 014527,-0.00012239,0.00042786,0.00012736,0.00032605,0.00015087,0.00011
 055,0.00004167,0.00011313,-0.00052597,-0.00001841,0.00020771,-0.000095
 15,0.00016802,0.00050928,0.00006869,-0.00000487,0.00001821,0.00000937,
 0.00013760,0.00049613,-0.00010407,0.00000549,0.00017886,0.00008706,0.0
 0000404,0.00002360,0.00001321,0.00002036,-0.00001073,0.00002181,-0.000
 02448,-0.00000117,0.00000737,-0.13550427,0.23532502,-0.00002188,0.0000
 1376,-0.00002069,0.00002871,-0.00004578,-0.00005641,0.00012513,-0.0001
 2540,-0.00042895,-0.00272075,-0.00107780,-0.00542256,0.00328898,0.0013
 5156,-0.00493033,0.01680655,-0.02323089,0.00029951,-0.00064378,-0.0009
 9474,0.00103606,-0.00002949,-0.00001421,-0.00027461,0.00064518,0.00108
 031,0.00107571,-0.01662318,0.02326858,-0.00079673,-0.00257850,0.001227
 11,0.00048087,0.00135065,-0.00051829,-0.00018845,0.00050299,-0.0001262
 0,0.00042656,0.00005559,-0.00001699,-0.00008998,-0.00047607,-0.0010465
 3,-0.04776381,0.00002231,-0.00000062,0.00026279,-0.00141216,0.00148057
 ,0.00012448,0.00019017,-0.00022316,-0.00000063,-0.00024496,0.00030128,
 -0.00001836,0.00138831,-0.00141538,0.00010646,-0.00082902,-0.00021588,
 0.00093304,-0.00041979,-0.00002638,-0.00008013,-0.00006049,0.00069279,
 0.00009105,-0.00001278,0.00000163,0.00009410,0.00005104,-0.00063945,0.
 00009003,0.00033977,-0.00002878,-0.00006266,0.00000727,-0.00001502,-0.
 00003910,-0.00001923,0.00000789,-0.00001461,0.00001414,0.00000324,0.00
 002113,0.00096789,0.00049102,0.05519992,0.00001148,0.00036165,-0.00000
 355,0.00018569,-0.00092860,0.00001060,-0.00013376,0.00049763,-0.000003
 18,0.00038961,-0.00143610,0.00075084,0.00026351,-0.00134953,-0.0007484
 6,-0.01189121,-0.01487168,0.00014656,-0.00106274,0.00153514,0.00362002
 ,0.00042869,0.00039430,-0.00003355,-0.00114475,0.00145498,-0.00343401,
 -0.01199100,-0.01493472,-0.00143919,-0.00081080,0.00007666,0.00081356,
 0.00069474,0.00039235,0.00067497,0.00007109,0.00006825,-0.00013404,-0.
 00002728,0.00000699,0.00002652,-0.13989160,-0.12254611,-0.00142674,-0.
 00005165,0.00003406,0.00000717,0.00039852,0.00020887,-0.00001465,-0.00
 005375,0.00087883,-0.00021435,-0.00012008,0.00097738,0.00021048,0.0004
 2922,0.00019376,0.00001716,0.00083631,0.00033565,-0.00005289,-0.000519
 12,-0.00101362,-0.00006189,0.00010513,-0.00023973,-0.00001907,0.000001
 50,0.00001772,0.00001591,0.00008086,-0.00023341,0.00000630,-0.00051078
 ,-0.00102364,0.00006323,-0.00000117,0.00000796,-0.00001732,0.00002837,
 0.00000600,-0.00002549,0.00000780,-0.00000631,-0.00001005,0.01230179,0
 .01563198,0.00030740,0.15197539,-0.00017732,0.00014424,0.00000074,0.00
 024557,-0.00036240,0.00000183,-0.00012767,0.00001277,0.00002584,0.0006
 6468,0.00056841,0.00019415,0.00059657,0.00062147,-0.00025857,0.0012819
 0,-0.00004716,0.00044471,0.00046274,0.00099601,0.00052811,0.00014545,0
 .00011457,-0.00000725,0.00017451,0.00085981,-0.00061618,0.00109813,-0.
 00049910,-0.00057325,-0.00273187,0.00015345,0.00013142,0.00149721,0.00
 064248,0.00108174,0.00076355,-0.00009714,0.00016480,-0.00001519,-0.000
 04193,-0.00009738,-0.12296032,-0.21954395,-0.00090419,0.00000487,0.000
 01821,-0.00000937,-0.00000550,0.00017885,-0.00008705,-0.00013755,0.000
 49610,0.00010407,-0.00016802,0.00050929,-0.00006868,0.00001841,0.00020
 771,0.00009515,-0.00004167,0.00011313,0.00052597,-0.00032604,0.0001508
 8,-0.00011055,0.00012238,0.00042786,-0.00012736,-0.00003414,-0.0000396
 1,-0.00000557,0.00012875,0.00041918,0.00014527,-0.00035088,0.00014320,
 0.00011334,-0.00002037,-0.00001072,-0.00002181,-0.00000403,0.00002360,
 -0.00001320,0.00002448,-0.00000116,-0.00000737,-0.01563193,-0.02148263
 ,-0.00015822,0.13550329,0.23532459,-0.00002188,-0.00001375,-0.00002069
 ,0.00002870,0.00004577,-0.00005641,-0.00002948,0.00001420,-0.00027460,
 0.00064518,-0.00108028,0.00107568,-0.00064378,0.00099475,0.00103606,0.
 01680649,0.02323082,0.00029944,0.00328894,-0.00135156,-0.00493031,0.00
 012516,0.00012543,-0.00042892,-0.00272074,0.00107772,-0.00542255,-0.01
 662266,-0.02326844,-0.00079702,-0.00257891,-0.00122706,0.00048125,0.00
 135076,0.00051843,-0.00018858,0.00050298,0.00012599,0.00042645,0.00005
 559,0.00001701,-0.00009001,-0.00047607,0.00104663,-0.04776388,-0.00001
 278,-0.00000163,0.00009410,0.00033975,0.00002878,-0.00006264,0.0000510
 5,0.00063941,0.00009005,-0.00006051,-0.00069275,0.00009110,-0.00041979
 ,0.00002638,-0.00008012,-0.00082901,0.00021588,0.00093303,0.00138830,0
 .00141538,0.00010646,-0.00024496,-0.00030128,-0.00001836,0.00002232,0.
 00000062,0.00026278,0.00019016,0.00022316,-0.00000063,-0.00141215,-0.0
 0148056,0.00012449,-0.00001924,-0.00000788,-0.00001461,0.00000727,0.00
 001503,-0.00003910,0.00001415,-0.00000324,0.00002112,0.00030744,0.0001
 5821,-0.00005372,0.00096772,-0.00049115,0.05520014\\-0.00000723,-0.000
 00007,-0.00001369,-0.00005818,0.,0.00006409,-0.00002031,-0.00001227,-0
 .00007430,-0.00001148,-0.00001020,0.00005776,0.00000510,-0.00002087,0.
 00001478,0.00000110,0.,-0.00003315,0.00000539,0.00002117,0.00001471,-0
 .00002224,0.00001095,-0.00007483,-0.00001182,0.00001084,0.00006014,0.0
 0004555,-0.00000925,0.00001702,-0.00002778,0.00003235,-0.00008445,0.00
 004611,-0.00001190,0.00005303,0.00001621,-0.00001020,0.00012022,0.0000
 1541,0.00000019,-0.00003553,0.00002343,0.00000023,-0.00000814,-0.00000
 620,0.00000486,0.00000690,0.00000139,0.00000192,-0.00001145,0.00000569
 ,0.00001623,0.00000049,0.00000268,-0.00000123,-0.00001086,-0.00000041,
 0.00000147,0.00000002,0.00001521,0.,-0.00000169,-0.00000049,-0.0000014
 7,-0.00000007,0.00000267,0.00000100,-0.00001092,-0.00000608,-0.0000045
 5,0.00000707,0.00000563,-0.00001641,0.00000073,0.00000095,-0.00000173,
 -0.00001231,-0.00001214,-0.00000125,-0.00000045,-0.00001237,0.00000107
 ,0.00000024,-0.00001037,-0.00000033,-0.00000961,0.00000752,0.00000022,
 -0.00001773,0.00000705,-0.00000076,-0.00001801\\\@


 A warm smile is the universal language of kindness.
                             -- William Arthur Ward
 Job cpu time:       0 days  0 hours  4 minutes 19.7 seconds.
 Elapsed time:       0 days  0 hours  4 minutes 26.8 seconds.
 File lengths (MBytes):  RWF=    244 Int=      0 D2E=      0 Chk=     16 Scr=      1
 Normal termination of Gaussian 16 at Sat Feb 24 00:55:16 2024.
