 Entering Gaussian System, Link 0=g16
 Input=/Volumes/SSD-PMU3/b3lyp_6-31gd_freq/ISHKXBGREFFZEU-INSKDLCRSA-N_calculating/gaussianinput1.gjf
 Output=/Volumes/SSD-PMU3/b3lyp_6-31gd_freq/ISHKXBGREFFZEU-INSKDLCRSA-N_calculating/gaussianinput1.log
 Initial command:
 /Applications/g16/l1.exe "/Users/macmini_m1_2022/PycharmProjects/sphere_model/sphere_model_lib/Gau-70894.inp" -scrdir="/Users/macmini_m1_2022/PycharmProjects/sphere_model/sphere_model_lib/"
 Entering Link 1 = /Applications/g16/l1.exe PID=     70895.
  
 Copyright (c) 1988,1990,1992,1993,1995,1998,2003,2009,2016,
            Gaussian, Inc.  All Rights Reserved.
  
 This is part of the Gaussian(R) 16 program.  It is based on
 the Gaussian(R) 09 system (copyright 2009, Gaussian, Inc.),
 the Gaussian(R) 03 system (copyright 2003, Gaussian, Inc.),
 the Gaussian(R) 98 system (copyright 1998, Gaussian, Inc.),
 the Gaussian(R) 94 system (copyright 1995, Gaussian, Inc.),
 the Gaussian 92(TM) system (copyright 1992, Gaussian, Inc.),
 the Gaussian 90(TM) system (copyright 1990, Gaussian, Inc.),
 the Gaussian 88(TM) system (copyright 1988, Gaussian, Inc.),
 the Gaussian 86(TM) system (copyright 1986, Carnegie Mellon
 University), and the Gaussian 82(TM) system (copyright 1983,
 Carnegie Mellon University). Gaussian is a federally registered
 trademark of Gaussian, Inc.
  
 This software contains proprietary and confidential information,
 including trade secrets, belonging to Gaussian, Inc.
  
 This software is provided under written license and may be
 used, copied, transmitted, or stored only in accord with that
 written license.
  
 The following legend is applicable only to US Government
 contracts under FAR:
  
                    RESTRICTED RIGHTS LEGEND
  
 Use, reproduction and disclosure by the US Government is
 subject to restrictions as set forth in subparagraphs (a)
 and (c) of the Commercial Computer Software - Restricted
 Rights clause in FAR 52.227-19.
  
 Gaussian, Inc.
 340 Quinnipiac St., Bldg. 40, Wallingford CT 06492
  
  
 ---------------------------------------------------------------
 Warning -- This program may not be used in any manner that
 competes with the business of Gaussian, Inc. or will provide
 assistance to any competitor of Gaussian, Inc.  The licensee
 of this program is prohibited from giving any competitor of
 Gaussian, Inc. access to this program.  By using this program,
 the user acknowledges that Gaussian, Inc. is engaged in the
 business of creating and licensing software in the field of
 computational chemistry and represents and warrants to the
 licensee that it is not a competitor of Gaussian, Inc. and that
 it will not use this program in any manner prohibited above.
 ---------------------------------------------------------------
  

 Cite this work as:
 Gaussian 16, Revision A.03,
 M. J. Frisch, G. W. Trucks, H. B. Schlegel, G. E. Scuseria, 
 M. A. Robb, J. R. Cheeseman, G. Scalmani, V. Barone, 
 G. A. Petersson, H. Nakatsuji, X. Li, M. Caricato, A. V. Marenich, 
 J. Bloino, B. G. Janesko, R. Gomperts, B. Mennucci, H. P. Hratchian, 
 J. V. Ortiz, A. F. Izmaylov, J. L. Sonnenberg, D. Williams-Young, 
 F. Ding, F. Lipparini, F. Egidi, J. Goings, B. Peng, A. Petrone, 
 T. Henderson, D. Ranasinghe, V. G. Zakrzewski, J. Gao, N. Rega, 
 G. Zheng, W. Liang, M. Hada, M. Ehara, K. Toyota, R. Fukuda, 
 J. Hasegawa, M. Ishida, T. Nakajima, Y. Honda, O. Kitao, H. Nakai, 
 T. Vreven, K. Throssell, J. A. Montgomery, Jr., J. E. Peralta, 
 F. Ogliaro, M. J. Bearpark, J. J. Heyd, E. N. Brothers, K. N. Kudin, 
 V. N. Staroverov, T. A. Keith, R. Kobayashi, J. Normand, 
 K. Raghavachari, A. P. Rendell, J. C. Burant, S. S. Iyengar, 
 J. Tomasi, M. Cossi, J. M. Millam, M. Klene, C. Adamo, R. Cammi, 
 J. W. Ochterski, R. L. Martin, K. Morokuma, O. Farkas, 
 J. B. Foresman, and D. J. Fox, Gaussian, Inc., Wallingford CT, 2016.
 
 ******************************************
 Gaussian 16:  EM64M-G16RevA.03 25-Dec-2016
                23-Feb-2024 
 ******************************************
 %nprocshared=10
 Will use up to   10 processors via shared memory.
 %mem=12GB
 %chk= 1.chk
 ---------------------
 # freq b3lyp/6-31g(d)
 ---------------------
 1/10=4,30=1,38=1/1,3;
 2/12=2,17=6,18=5,40=1/2;
 3/5=1,6=6,7=1,11=2,25=1,30=1,71=2,74=-5,140=1/1,2,3;
 4//1;
 5/5=2,38=5,98=1/2;
 8/6=4,10=90,11=11/1;
 11/6=1,8=1,9=11,15=111,16=1/1,2,10;
 10/6=1/2;
 6/7=2,8=2,9=2,10=2,28=1/1;
 7/8=1,10=1,25=1/1,2,3,16;
 1/10=4,30=1/3;
 99//99;
 ---------
 good luck
 ---------
 Symbolic Z-matrix:
 Charge =  0 Multiplicity = 1
 C                    -6.55114   8.38261  -1.28564 
 C                    -5.25268   7.65032  -1.67501 
 C                    -4.06512   8.33016  -0.97402 
 C                    -5.37517   6.13606  -1.37909 
 C                    -6.586     5.48237  -2.126 
 C                    -6.20769   4.0016   -2.40462 
 C                    -4.90618   3.80308  -1.61272 
 C                    -4.02371   2.58348  -1.9155 
 C                    -4.8199    1.26988  -1.82347 
 C                    -3.93207   0.03099  -1.98505 
 C                    -2.75899   0.04519  -0.99427 
 C                    -1.8822    1.33379  -1.12881 
 C                    -1.13989   1.38857  -2.48379 
 C                    -2.82005   2.57452  -0.92861 
 C                    -2.08757   3.93504  -0.92112 
 C                    -3.02271   5.14219  -0.69666 
 C                    -4.1817    5.17703  -1.7131 
 C                    -3.6474    5.46557  -3.13381 
 C                    -1.9339   -1.25092  -1.05971 
 C                    -0.81717  -1.28295   0.00207 
 C                     0.        0.        0. 
 O                     1.21726   0.        0. 
 C                    -0.81227   1.28948   0.00207 
 H                    -6.74785   8.28202  -0.20984 
 H                    -6.47319   9.45349  -1.5077 
 H                    -7.4236    7.99589  -1.82151 
 H                    -5.11998   7.7743   -2.76015 
 H                    -4.09109   9.41368  -1.14204 
 H                    -4.09774   8.1642    0.11055 
 H                    -3.10006   7.96718  -1.33827 
 H                    -5.55319   6.03875  -0.29585 
 H                    -6.78928   6.01509  -3.06298 
 H                    -7.49937   5.55627  -1.52723 
 H                    -6.99517   3.30703  -2.09471 
 H                    -6.04217   3.83136  -3.47599 
 H                    -5.20116   3.70745  -0.55313 
 H                    -3.64247   2.67142  -2.94332 
 H                    -5.32046   1.22658  -0.84354 
 H                    -5.61668   1.26086  -2.5774 
 H                    -3.55403  -0.02884  -3.01503 
 H                    -4.5283   -0.87802  -1.8279 
 H                    -3.20047   0.08821   0.01649 
 H                    -0.50649   2.27913  -2.54391 
 H                    -0.47694   0.52716  -2.61594 
 H                    -1.82341   1.40992  -3.3375 
 H                    -3.25927   2.45163   0.07708 
 H                    -1.54625   4.07374  -1.86462 
 H                    -1.32477   3.94182  -0.13407 
 H                    -2.42273   6.05796  -0.7333 
 H                    -3.44451   5.0879    0.31797 
 H                    -3.11942   6.42543  -3.15825 
 H                    -4.45231   5.51918  -3.87437 
 H                    -2.94286   4.70324  -3.47824 
 H                    -1.49609  -1.37199  -2.05869 
 H                    -2.59884  -2.11159  -0.91387 
 H                    -1.27766  -1.3759    0.99796 
 H                    -0.14088  -2.13258  -0.13021 
 H                    -1.32229   1.36475   0.97543 
 H                    -0.10605   2.12063  -0.06914 
 

 GradGradGradGradGradGradGradGradGradGradGradGradGradGradGradGradGradGrad
 Berny optimization.
 Initialization pass.
 Trust Radius=3.00D-01 FncErr=1.00D-07 GrdErr=1.00D-07 EigMax=2.50D+02 EigMin=1.00D-04
 Number of steps in this run=      2 maximum allowed number of steps=      2.
 GradGradGradGradGradGradGradGradGradGradGradGradGradGradGradGradGradGrad

 Stoichiometry    C22H36O
 Framework group  C1[X(C22H36O)]
 Deg. of freedom   171
 Full point group                 C1      NOp   1
 Largest Abelian subgroup         C1      NOp   1
 Largest concise Abelian subgroup C1      NOp   1
                         Standard orientation:                         
 ---------------------------------------------------------------------
 Center     Atomic      Atomic             Coordinates (Angstroms)
 Number     Number       Type             X           Y           Z
 ---------------------------------------------------------------------
      1          6           0       -6.076401   -0.213270   -0.729861
      2          6           0       -4.827917   -0.720874    0.016793
      3          6           0       -4.706540   -2.240084   -0.186087
      4          6           0       -3.574345    0.074539   -0.420747
      5          6           0       -3.735274    1.613278   -0.180626
      6          6           0       -2.317078    2.185578    0.092564
      7          6           0       -1.381994    1.008860   -0.225867
      8          6           0        0.073608    1.055813    0.260821
      9          6           0        0.784143    2.341526   -0.197453
     10          6           0        2.275263    2.348247    0.157101
     11          6           0        2.986643    1.095566   -0.374596
     12          6           0        2.334140   -0.226412    0.148828
     13          6           0        2.515362   -0.395280    1.674811
     14          6           0        0.820009   -0.207439   -0.258707
     15          6           0        0.048250   -1.500310    0.088369
     16          6           0       -1.433220   -1.473745   -0.343638
     17          6           0       -2.181812   -0.249519    0.220736
     18          6           0       -2.314123   -0.356404    1.756384
     19          6           0        4.504862    1.150214   -0.135906
     20          6           0        5.234418   -0.057117   -0.756859
     21          6           0        4.571175   -1.372604   -0.378266
     22          8           0        5.202439   -2.328634    0.033106
     23          6           0        3.057860   -1.413126   -0.553717
     24          1           0       -5.968278   -0.357572   -1.813208
     25          1           0       -6.968894   -0.764793   -0.411367
     26          1           0       -6.263489    0.850406   -0.552405
     27          1           0       -4.990127   -0.535544    1.089102
     28          1           0       -5.657363   -2.734293    0.047593
     29          1           0       -4.456932   -2.481768   -1.227322
     30          1           0       -3.940884   -2.688174    0.453257
     31          1           0       -3.458450   -0.088603   -1.504502
     32          1           0       -4.400763    1.799215    0.671196
     33          1           0       -4.202012    2.096058   -1.045091
     34          1           0       -2.101104    3.067850   -0.518635
     35          1           0       -2.211436    2.495293    1.140002
     36          1           0       -1.330927    0.944428   -1.326836
     37          1           0        0.077472    1.046149    1.360536
     38          1           0        0.675024    2.437083   -1.289088
     39          1           0        0.291024    3.218510    0.239675
     40          1           0        2.402391    2.419480    1.246186
     41          1           0        2.754328    3.242954   -0.262988
     42          1           0        2.838619    1.089281   -1.468423
     43          1           0        2.082459   -1.341203    2.015013
     44          1           0        3.573514   -0.419973    1.955330
     45          1           0        2.043667    0.409411    2.246178
     46          1           0        0.813109   -0.126639   -1.360002
     47          1           0        0.101915   -1.689947    1.167084
     48          1           0        0.529482   -2.360255   -0.391485
     49          1           0       -1.902076   -2.414358   -0.034776
     50          1           0       -1.488151   -1.445612   -1.442055
     51          1           0       -2.856250   -1.267625    2.032919
     52          1           0       -2.862957    0.489671    2.183130
     53          1           0       -1.342982   -0.396455    2.257815
     54          1           0        4.718464    1.196559    0.939517
     55          1           0        4.906030    2.077183   -0.564817
     56          1           0        5.189997    0.027858   -1.853802
     57          1           0        6.289499   -0.098442   -0.470787
     58          1           0        2.842635   -1.370303   -1.633096
     59          1           0        2.711771   -2.381385   -0.183159
 ---------------------------------------------------------------------
 Rotational constants (GHZ):           0.6222723           0.1304827           0.1158354
 Standard basis: 6-31G(d) (6D, 7F)
 There are   417 symmetry adapted cartesian basis functions of A   symmetry.
 There are   417 symmetry adapted basis functions of A   symmetry.
   417 basis functions,   788 primitive gaussians,   417 cartesian basis functions
    88 alpha electrons       88 beta electrons
       nuclear repulsion energy      2143.0650714633 Hartrees.
 NAtoms=   59 NActive=   59 NUniq=   59 SFac= 1.00D+00 NAtFMM=   60 NAOKFM=F Big=F
 Integral buffers will be    131072 words long.
 Raffenetti 2 integral format.
 Two-electron integral symmetry is turned on.
 One-electron integrals computed using PRISM.
 NBasis=   417 RedAO= T EigKep=  1.66D-03  NBF=   417
 NBsUse=   417 1.00D-06 EigRej= -1.00D+00 NBFU=   417
 ExpMin= 1.61D-01 ExpMax= 5.48D+03 ExpMxC= 8.25D+02 IAcc=3 IRadAn=         5 AccDes= 0.00D+00
 Harris functional with IExCor=  402 and IRadAn=       5 diagonalized for initial guess.
 HarFok:  IExCor=  402 AccDes= 0.00D+00 IRadAn=         5 IDoV= 1 UseB2=F ITyADJ=14
 ICtDFT=  3500011 ScaDFX=  1.000000  1.000000  1.000000  1.000000
 FoFCou: FMM=F IPFlag=           0 FMFlag=      100000 FMFlg1=           0
         NFxFlg=           0 DoJE=T BraDBF=F KetDBF=T FulRan=T
         wScrn=  0.000000 ICntrl=       500 IOpCl=  0 I1Cent=   200000004 NGrid=           0
         NMat0=    1 NMatS0=      1 NMatT0=    0 NMatD0=    1 NMtDS0=    0 NMtDT0=    0
 Petite list used in FoFCou.
 Requested convergence on RMS density matrix=1.00D-08 within 128 cycles.
 Requested convergence on MAX density matrix=1.00D-06.
 Requested convergence on             energy=1.00D-06.
 No special actions if energy rises.
 Integral accuracy reduced to 1.0D-05 until final iterations.
 Initial convergence to 1.0D-05 achieved.  Increase integral accuracy.
 SCF Done:  E(RB3LYP) =  -935.273125922     A.U. after   13 cycles
            NFock= 13  Conv=0.97D-08     -V/T= 2.0099
 DoSCS=F DFT=T ScalE2(SS,OS)=  1.000000  1.000000
 Range of M.O.s used for correlation:     1   417
 NBasis=   417 NAE=    88 NBE=    88 NFC=     0 NFV=     0
 NROrb=    417 NOA=    88 NOB=    88 NVA=   329 NVB=   329
 Symmetrizing basis deriv contribution to polar:
 IMax=3 JMax=2 DiffMx= 0.00D+00
 G2DrvN: will do    60 centers at a time, making    1 passes.
 Calling FoFCou, ICntrl=  3107 FMM=F I1Cent=   0 AccDes= 0.00D+00.
 End of G2Drv F.D. properties file   721 does not exist.
 End of G2Drv F.D. properties file   722 does not exist.
 End of G2Drv F.D. properties file   788 does not exist.
          IDoAtm=11111111111111111111111111111111111111111111111111
          IDoAtm=111111111
          Differentiating once with respect to electric field.
                with respect to dipole field.
          Differentiating once with respect to nuclear coordinates.
 CalDSu exits because no D1Ps are significant.
          There are   180 degrees of freedom in the 1st order CPHF.  IDoFFX=6 NUNeed=     3.
    177 vectors produced by pass  0 Test12= 2.90D-14 1.00D-09 XBig12= 1.49D+02 2.32D+00.
 AX will form   177 AO Fock derivatives at one time.
    177 vectors produced by pass  1 Test12= 2.90D-14 1.00D-09 XBig12= 9.77D+00 5.45D-01.
    177 vectors produced by pass  2 Test12= 2.90D-14 1.00D-09 XBig12= 6.73D-02 1.92D-02.
    177 vectors produced by pass  3 Test12= 2.90D-14 1.00D-09 XBig12= 1.47D-04 9.09D-04.
    177 vectors produced by pass  4 Test12= 2.90D-14 1.00D-09 XBig12= 1.39D-07 2.84D-05.
     73 vectors produced by pass  5 Test12= 2.90D-14 1.00D-09 XBig12= 8.30D-11 6.49D-07.
      3 vectors produced by pass  6 Test12= 2.90D-14 1.00D-09 XBig12= 5.14D-14 1.63D-08.
 InvSVY:  IOpt=1 It=  1 EMax= 8.88D-15
 Solved reduced A of dimension   961 with   180 vectors.
 Isotropic polarizability for W=    0.000000      221.38 Bohr**3.
 End of Minotr F.D. properties file   721 does not exist.
 End of Minotr F.D. properties file   722 does not exist.
 End of Minotr F.D. properties file   788 does not exist.

 **********************************************************************

            Population analysis using the SCF density.

 **********************************************************************

 Orbital symmetries:
       Occupied  (A) (A) (A) (A) (A) (A) (A) (A) (A) (A) (A) (A)
                 (A) (A) (A) (A) (A) (A) (A) (A) (A) (A) (A) (A)
                 (A) (A) (A) (A) (A) (A) (A) (A) (A) (A) (A) (A)
                 (A) (A) (A) (A) (A) (A) (A) (A) (A) (A) (A) (A)
                 (A) (A) (A) (A) (A) (A) (A) (A) (A) (A) (A) (A)
                 (A) (A) (A) (A) (A) (A) (A) (A) (A) (A) (A) (A)
                 (A) (A) (A) (A) (A) (A) (A) (A) (A) (A) (A) (A)
                 (A) (A) (A) (A)
       Virtual   (A) (A) (A) (A) (A) (A) (A) (A) (A) (A) (A) (A)
                 (A) (A) (A) (A) (A) (A) (A) (A) (A) (A) (A) (A)
                 (A) (A) (A) (A) (A) (A) (A) (A) (A) (A) (A) (A)
                 (A) (A) (A) (A) (A) (A) (A) (A) (A) (A) (A) (A)
                 (A) (A) (A) (A) (A) (A) (A) (A) (A) (A) (A) (A)
                 (A) (A) (A) (A) (A) (A) (A) (A) (A) (A) (A) (A)
                 (A) (A) (A) (A) (A) (A) (A) (A) (A) (A) (A) (A)
                 (A) (A) (A) (A) (A) (A) (A) (A) (A) (A) (A) (A)
                 (A) (A) (A) (A) (A) (A) (A) (A) (A) (A) (A) (A)
                 (A) (A) (A) (A) (A) (A) (A) (A) (A) (A) (A) (A)
                 (A) (A) (A) (A) (A) (A) (A) (A) (A) (A) (A) (A)
                 (A) (A) (A) (A) (A) (A) (A) (A) (A) (A) (A) (A)
                 (A) (A) (A) (A) (A) (A) (A) (A) (A) (A) (A) (A)
                 (A) (A) (A) (A) (A) (A) (A) (A) (A) (A) (A) (A)
                 (A) (A) (A) (A) (A) (A) (A) (A) (A) (A) (A) (A)
                 (A) (A) (A) (A) (A) (A) (A) (A) (A) (A) (A) (A)
                 (A) (A) (A) (A) (A) (A) (A) (A) (A) (A) (A) (A)
                 (A) (A) (A) (A) (A) (A) (A) (A) (A) (A) (A) (A)
                 (A) (A) (A) (A) (A) (A) (A) (A) (A) (A) (A) (A)
                 (A) (A) (A) (A) (A) (A) (A) (A) (A) (A) (A) (A)
                 (A) (A) (A) (A) (A) (A) (A) (A) (A) (A) (A) (A)
                 (A) (A) (A) (A) (A) (A) (A) (A) (A) (A) (A) (A)
                 (A) (A) (A) (A) (A) (A) (A) (A) (A) (A) (A) (A)
                 (A) (A) (A) (A) (A) (A) (A) (A) (A) (A) (A) (A)
                 (A) (A) (A) (A) (A) (A) (A) (A) (A) (A) (A) (A)
                 (A) (A) (A) (A) (A) (A) (A) (A) (A) (A) (A) (A)
                 (A) (A) (A) (A) (A) (A) (A) (A) (A) (A) (A) (A)
                 (A) (A) (A) (A) (A)
 The electronic state is 1-A.
 Alpha  occ. eigenvalues --  -19.12942 -10.26538 -10.20355 -10.19002 -10.18932
 Alpha  occ. eigenvalues --  -10.18789 -10.18737 -10.18657 -10.18495 -10.18361
 Alpha  occ. eigenvalues --  -10.18270 -10.18108 -10.18005 -10.17902 -10.17741
 Alpha  occ. eigenvalues --  -10.17731 -10.17539 -10.17515 -10.17507 -10.17472
 Alpha  occ. eigenvalues --  -10.17070 -10.16951 -10.16950  -1.02812  -0.86546
 Alpha  occ. eigenvalues --   -0.84663  -0.80505  -0.78594  -0.78044  -0.76316
 Alpha  occ. eigenvalues --   -0.74117  -0.71995  -0.70406  -0.68462  -0.68242
 Alpha  occ. eigenvalues --   -0.67417  -0.66799  -0.62533  -0.61207  -0.59101
 Alpha  occ. eigenvalues --   -0.58356  -0.56566  -0.54030  -0.53608  -0.52393
 Alpha  occ. eigenvalues --   -0.52026  -0.48039  -0.47095  -0.46352  -0.46054
 Alpha  occ. eigenvalues --   -0.45534  -0.44991  -0.44406  -0.43850  -0.42937
 Alpha  occ. eigenvalues --   -0.42643  -0.41908  -0.40795  -0.40676  -0.40615
 Alpha  occ. eigenvalues --   -0.40080  -0.39547  -0.38683  -0.38530  -0.38373
 Alpha  occ. eigenvalues --   -0.37987  -0.37321  -0.37106  -0.36706  -0.36158
 Alpha  occ. eigenvalues --   -0.34958  -0.34562  -0.34282  -0.34034  -0.33939
 Alpha  occ. eigenvalues --   -0.33109  -0.32783  -0.32442  -0.32013  -0.31279
 Alpha  occ. eigenvalues --   -0.30931  -0.30433  -0.30287  -0.30052  -0.29333
 Alpha  occ. eigenvalues --   -0.27899  -0.26608  -0.23107
 Alpha virt. eigenvalues --   -0.00980   0.07167   0.07700   0.08411   0.09585
 Alpha virt. eigenvalues --    0.09752   0.10549   0.10879   0.11550   0.12153
 Alpha virt. eigenvalues --    0.12525   0.13075   0.13230   0.13726   0.14471
 Alpha virt. eigenvalues --    0.14943   0.15001   0.15423   0.15832   0.16434
 Alpha virt. eigenvalues --    0.16617   0.16847   0.17344   0.17697   0.18022
 Alpha virt. eigenvalues --    0.18193   0.18554   0.18964   0.19400   0.19696
 Alpha virt. eigenvalues --    0.19999   0.20370   0.20515   0.21785   0.22021
 Alpha virt. eigenvalues --    0.22186   0.22626   0.23042   0.23227   0.23621
 Alpha virt. eigenvalues --    0.23860   0.24373   0.24556   0.25142   0.25380
 Alpha virt. eigenvalues --    0.25571   0.26131   0.26924   0.27251   0.27834
 Alpha virt. eigenvalues --    0.28438   0.28876   0.29290   0.29374   0.30162
 Alpha virt. eigenvalues --    0.31420   0.31932   0.33251   0.33581   0.34870
 Alpha virt. eigenvalues --    0.35866   0.38060   0.38860   0.48341   0.49822
 Alpha virt. eigenvalues --    0.50226   0.50761   0.51257   0.51314   0.52364
 Alpha virt. eigenvalues --    0.52742   0.53288   0.54728   0.55147   0.56471
 Alpha virt. eigenvalues --    0.56718   0.58098   0.58657   0.59275   0.60811
 Alpha virt. eigenvalues --    0.61338   0.61715   0.62420   0.63297   0.64429
 Alpha virt. eigenvalues --    0.64832   0.65314   0.65978   0.66508   0.67732
 Alpha virt. eigenvalues --    0.68133   0.68646   0.69082   0.69964   0.70851
 Alpha virt. eigenvalues --    0.71297   0.72208   0.73036   0.73651   0.74508
 Alpha virt. eigenvalues --    0.75045   0.76023   0.76516   0.77807   0.78440
 Alpha virt. eigenvalues --    0.78872   0.80352   0.81462   0.81720   0.82585
 Alpha virt. eigenvalues --    0.82774   0.83659   0.84747   0.85392   0.85675
 Alpha virt. eigenvalues --    0.86177   0.86484   0.86980   0.87449   0.87866
 Alpha virt. eigenvalues --    0.88359   0.88712   0.89041   0.89221   0.89538
 Alpha virt. eigenvalues --    0.89770   0.90492   0.90699   0.90782   0.91350
 Alpha virt. eigenvalues --    0.91599   0.92714   0.93300   0.93416   0.94265
 Alpha virt. eigenvalues --    0.94340   0.94745   0.95127   0.95692   0.96390
 Alpha virt. eigenvalues --    0.96787   0.97496   0.97783   0.97961   0.98380
 Alpha virt. eigenvalues --    0.98457   0.99912   1.00566   1.00742   1.01590
 Alpha virt. eigenvalues --    1.02044   1.03005   1.03120   1.03750   1.04944
 Alpha virt. eigenvalues --    1.05884   1.07637   1.08584   1.10076   1.10899
 Alpha virt. eigenvalues --    1.12384   1.14927   1.16800   1.18359   1.19995
 Alpha virt. eigenvalues --    1.21732   1.23325   1.24499   1.26850   1.29383
 Alpha virt. eigenvalues --    1.30825   1.32225   1.33779   1.35436   1.36938
 Alpha virt. eigenvalues --    1.39463   1.39831   1.43065   1.44163   1.46271
 Alpha virt. eigenvalues --    1.49130   1.51067   1.52791   1.53559   1.54346
 Alpha virt. eigenvalues --    1.54458   1.56993   1.60307   1.61217   1.62812
 Alpha virt. eigenvalues --    1.64273   1.65812   1.67709   1.68780   1.70821
 Alpha virt. eigenvalues --    1.71143   1.72100   1.73838   1.74074   1.74407
 Alpha virt. eigenvalues --    1.76067   1.77481   1.77978   1.78749   1.79581
 Alpha virt. eigenvalues --    1.80975   1.81238   1.82304   1.83424   1.85387
 Alpha virt. eigenvalues --    1.86476   1.87213   1.88121   1.88457   1.89150
 Alpha virt. eigenvalues --    1.90914   1.91115   1.92150   1.92942   1.93894
 Alpha virt. eigenvalues --    1.94326   1.94650   1.95276   1.96680   1.97350
 Alpha virt. eigenvalues --    1.98615   1.99603   2.00308   2.01191   2.01640
 Alpha virt. eigenvalues --    2.02208   2.02763   2.03356   2.04957   2.05309
 Alpha virt. eigenvalues --    2.06209   2.06408   2.07916   2.08510   2.09532
 Alpha virt. eigenvalues --    2.10873   2.11252   2.11575   2.12260   2.14002
 Alpha virt. eigenvalues --    2.14545   2.15551   2.16586   2.17792   2.18553
 Alpha virt. eigenvalues --    2.19975   2.21591   2.23779   2.24208   2.25797
 Alpha virt. eigenvalues --    2.27069   2.28027   2.28936   2.29534   2.30884
 Alpha virt. eigenvalues --    2.32711   2.33776   2.34912   2.36152   2.37372
 Alpha virt. eigenvalues --    2.38886   2.40298   2.40686   2.43099   2.43710
 Alpha virt. eigenvalues --    2.44718   2.46135   2.46837   2.47473   2.48720
 Alpha virt. eigenvalues --    2.50652   2.53066   2.53520   2.55894   2.56484
 Alpha virt. eigenvalues --    2.57625   2.59335   2.60283   2.60902   2.62382
 Alpha virt. eigenvalues --    2.63113   2.64429   2.66298   2.66929   2.71681
 Alpha virt. eigenvalues --    2.74414   2.75019   2.76078   2.77223   2.79333
 Alpha virt. eigenvalues --    2.81980   2.85136   2.85593   2.87174   2.89725
 Alpha virt. eigenvalues --    2.90886   2.91727   2.96292   2.99177   3.02132
 Alpha virt. eigenvalues --    3.05203   4.04691   4.11679   4.15062   4.21520
 Alpha virt. eigenvalues --    4.23430   4.24073   4.27307   4.29148   4.29557
 Alpha virt. eigenvalues --    4.31018   4.34665   4.39132   4.45312   4.47074
 Alpha virt. eigenvalues --    4.52464   4.56573   4.61248   4.64115   4.65416
 Alpha virt. eigenvalues --    4.70642   4.76076   4.79545   4.82850
          Condensed to atoms (all electrons):
 Mulliken charges:
               1
     1  C   -0.448551
     2  C   -0.080027
     3  C   -0.450423
     4  C   -0.073034
     5  C   -0.295634
     6  C   -0.291014
     7  C   -0.090768
     8  C   -0.098421
     9  C   -0.271697
    10  C   -0.271449
    11  C   -0.090134
    12  C    0.086088
    13  C   -0.483597
    14  C   -0.090485
    15  C   -0.292877
    16  C   -0.279368
    17  C    0.093202
    18  C   -0.482892
    19  C   -0.281837
    20  C   -0.345211
    21  C    0.450208
    22  O   -0.452006
    23  C   -0.361447
    24  H    0.136942
    25  H    0.138406
    26  H    0.147203
    27  H    0.119991
    28  H    0.137594
    29  H    0.138396
    30  H    0.147858
    31  H    0.107270
    32  H    0.134043
    33  H    0.138016
    34  H    0.133908
    35  H    0.131871
    36  H    0.108533
    37  H    0.117928
    38  H    0.123026
    39  H    0.136002
    40  H    0.131891
    41  H    0.128957
    42  H    0.111242
    43  H    0.154396
    44  H    0.153885
    45  H    0.149222
    46  H    0.104662
    47  H    0.137667
    48  H    0.137111
    49  H    0.131667
    50  H    0.121844
    51  H    0.146420
    52  H    0.145076
    53  H    0.146278
    54  H    0.145124
    55  H    0.138227
    56  H    0.152579
    57  H    0.160868
    58  H    0.144904
    59  H    0.162369
 Sum of Mulliken charges =  -0.00000
 Mulliken charges with hydrogens summed into heavy atoms:
               1
     1  C   -0.026001
     2  C    0.039964
     3  C   -0.026575
     4  C    0.034236
     5  C   -0.023575
     6  C   -0.025235
     7  C    0.017765
     8  C    0.019507
     9  C   -0.012669
    10  C   -0.010601
    11  C    0.021107
    12  C    0.086088
    13  C   -0.026094
    14  C    0.014177
    15  C   -0.018099
    16  C   -0.025858
    17  C    0.093202
    18  C   -0.045118
    19  C    0.001514
    20  C   -0.031764
    21  C    0.450208
    22  O   -0.452006
    23  C   -0.054175
 APT charges:
               1
     1  C    0.061786
     2  C    0.132620
     3  C    0.047707
     4  C    0.077283
     5  C    0.072516
     6  C    0.072191
     7  C    0.077626
     8  C    0.044906
     9  C    0.099444
    10  C    0.110660
    11  C    0.050466
    12  C    0.129884
    13  C   -0.007423
    14  C    0.067332
    15  C    0.067650
    16  C    0.105364
    17  C    0.047957
    18  C    0.021634
    19  C    0.131894
    20  C   -0.054265
    21  C    0.764740
    22  O   -0.666779
    23  C   -0.130285
    24  H   -0.024584
    25  H   -0.047205
    26  H   -0.014467
    27  H   -0.066741
    28  H   -0.046503
    29  H   -0.016234
    30  H   -0.017538
    31  H   -0.066600
    32  H   -0.047959
    33  H   -0.049796
    34  H   -0.046884
    35  H   -0.042948
    36  H   -0.061767
    37  H   -0.043440
    38  H   -0.044377
    39  H   -0.052473
    40  H   -0.038771
    41  H   -0.069981
    42  H   -0.063040
    43  H   -0.001712
    44  H   -0.015181
    45  H   -0.004198
    46  H   -0.060927
    47  H   -0.027122
    48  H   -0.049413
    49  H   -0.056489
    50  H   -0.046201
    51  H   -0.020014
    52  H   -0.012266
    53  H   -0.017984
    54  H   -0.033808
    55  H   -0.056021
    56  H   -0.008078
    57  H   -0.032558
    58  H   -0.006749
    59  H   -0.014884
 Sum of APT charges =   0.00000
 APT charges with hydrogens summed into heavy atoms:
               1
     1  C   -0.024471
     2  C    0.065879
     3  C   -0.032568
     4  C    0.010684
     5  C   -0.025239
     6  C   -0.017641
     7  C    0.015860
     8  C    0.001466
     9  C    0.002594
    10  C    0.001908
    11  C   -0.012573
    12  C    0.129884
    13  C   -0.028514
    14  C    0.006404
    15  C   -0.008884
    16  C    0.002675
    17  C    0.047957
    18  C   -0.028630
    19  C    0.042065
    20  C   -0.094900
    21  C    0.764740
    22  O   -0.666779
    23  C   -0.151918
 Electronic spatial extent (au):  <R**2>=           9567.6001
 Charge=             -0.0000 electrons
 Dipole moment (field-independent basis, Debye):
    X=             -1.9560    Y=              2.4889    Z=             -0.6836  Tot=              3.2385
 Quadrupole moment (field-independent basis, Debye-Ang):
   XX=           -159.8164   YY=           -151.6728   ZZ=           -142.1410
   XY=             14.7546   XZ=             -4.3520   YZ=              0.8278
 Traceless Quadrupole moment (field-independent basis, Debye-Ang):
   XX=             -8.6063   YY=             -0.4627   ZZ=              9.0691
   XY=             14.7546   XZ=             -4.3520   YZ=              0.8278
 Octapole moment (field-independent basis, Debye-Ang**2):
  XXX=            -68.6065  YYY=             12.1090  ZZZ=             -3.9828  XYY=            -32.1343
  XXY=             81.0775  XXZ=            -14.0897  XZZ=             14.1651  YZZ=             -2.9177
  YYZ=             -1.4236  XYZ=              5.4133
 Hexadecapole moment (field-independent basis, Debye-Ang**3):
 XXXX=         -10917.6356 YYYY=          -2056.8897 ZZZZ=           -686.3258 XXXY=            437.9229
 XXXZ=           -123.4697 YYYX=             61.4731 YYYZ=             -4.1402 ZZZX=             -4.7644
 ZZZY=              5.0138 XXYY=          -2283.6365 XXZZ=          -1801.7718 YYZZ=           -441.4432
 XXYZ=             17.4649 YYXZ=            -16.3527 ZZXY=            -22.6860
 N-N= 2.143065071463D+03 E-N=-6.451181456494D+03  KE= 9.261204563893D+02
  Exact polarizability: 274.169   0.066 212.904   0.843  -3.137 177.076
 Approx polarizability: 317.292  -7.060 315.509   2.787  -7.096 306.533
 Calling FoFJK, ICntrl=    100127 FMM=F ISym2X=0 I1Cent= 0 IOpClX= 0 NMat=1 NMatS=1 NMatT=0.
 Full mass-weighted force constant matrix:
 Low frequencies ---   -4.4976   -0.0012   -0.0007   -0.0004    5.4730    6.3221
 Low frequencies ---   39.2827   53.7536   75.8203
 Diagonal vibrational polarizability:
       10.3475526       6.8394795      23.4276536
 Harmonic frequencies (cm**-1), IR intensities (KM/Mole), Raman scattering
 activities (A**4/AMU), depolarization ratios for plane and unpolarized
 incident light, reduced masses (AMU), force constants (mDyne/A),
 and normal coordinates:
                      1                      2                      3
                      A                      A                      A
 Frequencies --     39.2714                53.7509                75.8191
 Red. masses --      3.8429                 3.4271                 3.3580
 Frc consts  --      0.0035                 0.0058                 0.0114
 IR Inten    --      0.4018                 0.7421                 1.4489
  Atom  AN      X      Y      Z        X      Y      Z        X      Y      Z
     1   6    -0.05   0.03   0.20    -0.01  -0.05   0.04     0.05  -0.07  -0.16
     2   6     0.01  -0.01   0.08    -0.00   0.03   0.07    -0.00   0.04   0.00
     3   6    -0.01   0.00  -0.01    -0.01   0.00   0.24     0.03   0.01   0.21
     4   6    -0.02   0.01   0.03    -0.01  -0.01  -0.02     0.00   0.02  -0.00
     5   6    -0.01   0.00   0.10     0.00   0.00  -0.12     0.01   0.02  -0.01
     6   6     0.00  -0.00   0.03    -0.00   0.01  -0.12     0.00   0.01   0.08
     7   6    -0.01   0.01  -0.05     0.00  -0.00  -0.07     0.00   0.02   0.04
     8   6     0.00  -0.00  -0.08    -0.01   0.00  -0.04     0.01  -0.01   0.03
     9   6     0.00  -0.00  -0.09     0.01   0.01   0.00     0.01   0.01   0.09
    10   6    -0.00   0.01  -0.06    -0.01  -0.00   0.09     0.02  -0.02   0.05
    11   6     0.02   0.00  -0.02     0.01   0.02   0.08    -0.01  -0.00  -0.02
    12   6    -0.01   0.01  -0.04    -0.00  -0.01  -0.01    -0.01  -0.01  -0.05
    13   6    -0.07   0.01  -0.03    -0.04  -0.09  -0.01     0.00  -0.05  -0.05
    14   6     0.01   0.01  -0.10     0.00   0.00  -0.03    -0.01   0.01  -0.03
    15   6     0.00  -0.01  -0.18    -0.00   0.00  -0.05    -0.01  -0.00  -0.08
    16   6    -0.01   0.02  -0.15    -0.01   0.00  -0.03    -0.01   0.02  -0.07
    17   6     0.01  -0.01  -0.06     0.00   0.01  -0.04     0.00   0.01  -0.01
    18   6     0.10  -0.08  -0.06     0.03   0.05  -0.03     0.01  -0.05  -0.01
    19   6     0.01   0.00   0.05     0.00   0.01   0.16     0.00  -0.02  -0.08
    20   6     0.04  -0.01   0.11     0.03   0.05   0.12    -0.02  -0.03  -0.10
    21   6     0.01  -0.00   0.10     0.01   0.01  -0.03    -0.02   0.01   0.01
    22   8    -0.02   0.01   0.18     0.00  -0.05  -0.15    -0.05   0.07   0.20
    23   6     0.02  -0.00  -0.00     0.01   0.03  -0.06    -0.01  -0.00  -0.07
    24   1    -0.13   0.09   0.19    -0.04  -0.18   0.05     0.13  -0.24  -0.13
    25   1    -0.02   0.01   0.24    -0.01  -0.01   0.12     0.02  -0.02  -0.14
    26   1    -0.04   0.02   0.28    -0.00  -0.03  -0.09     0.04  -0.05  -0.34
    27   1     0.09  -0.07   0.10     0.01   0.14   0.06    -0.09   0.17  -0.03
    28   1     0.01  -0.01   0.03    -0.00   0.03   0.32     0.02   0.03   0.21
    29   1    -0.09   0.06  -0.04    -0.04  -0.11   0.26     0.10  -0.12   0.25
    30   1     0.04  -0.03  -0.09     0.01   0.07   0.26    -0.01   0.10   0.32
    31   1    -0.09   0.05   0.02    -0.04  -0.09  -0.02     0.00   0.01  -0.00
    32   1     0.04  -0.04   0.15    -0.02   0.07  -0.15    -0.05   0.03  -0.05
    33   1    -0.07   0.03   0.15     0.03  -0.04  -0.16     0.08   0.03  -0.04
    34   1    -0.04   0.01   0.04     0.01  -0.01  -0.14     0.02   0.05   0.15
    35   1     0.06  -0.03   0.03    -0.02   0.04  -0.12    -0.03  -0.06   0.11
    36   1    -0.05   0.05  -0.05     0.02  -0.03  -0.07    -0.00   0.07   0.03
    37   1     0.02  -0.01  -0.09    -0.03  -0.01  -0.04     0.01  -0.06   0.03
    38   1     0.02  -0.01  -0.09     0.07   0.02  -0.00    -0.02   0.08   0.10
    39   1    -0.01   0.00  -0.10    -0.02   0.00  -0.02     0.03  -0.01   0.15
    40   1    -0.03   0.03  -0.06    -0.08  -0.05   0.10     0.05  -0.06   0.05
    41   1     0.00   0.00  -0.06     0.01   0.01   0.15     0.01  -0.00   0.07
    42   1     0.07  -0.01  -0.03     0.07   0.06   0.07    -0.04   0.04  -0.02
    43   1    -0.12   0.03  -0.04    -0.02  -0.12  -0.07     0.02  -0.07  -0.08
    44   1    -0.08  -0.02   0.00    -0.04  -0.08   0.01     0.01  -0.03  -0.05
    45   1    -0.06   0.03  -0.06    -0.07  -0.13   0.02    -0.01  -0.07  -0.03
    46   1     0.05   0.05  -0.10     0.02   0.01  -0.03    -0.02   0.06  -0.03
    47   1     0.02  -0.09  -0.20     0.00  -0.01  -0.05     0.01  -0.05  -0.09
    48   1    -0.01   0.03  -0.26    -0.01   0.00  -0.05    -0.02   0.02  -0.13
    49   1    -0.00   0.00  -0.20    -0.01   0.01  -0.02    -0.02   0.01  -0.11
    50   1    -0.03   0.09  -0.15    -0.02  -0.01  -0.03    -0.02   0.08  -0.07
    51   1     0.12  -0.09  -0.07     0.01   0.07   0.00    -0.00  -0.05  -0.04
    52   1     0.11  -0.10   0.00     0.05   0.07  -0.05     0.02  -0.06   0.02
    53   1     0.12  -0.09  -0.11     0.03   0.04  -0.05     0.01  -0.08  -0.02
    54   1    -0.05   0.02   0.06    -0.05  -0.05   0.17     0.04  -0.02  -0.08
    55   1     0.03  -0.01   0.06     0.02   0.03   0.23    -0.00  -0.02  -0.09
    56   1     0.10  -0.03   0.11     0.11   0.12   0.13    -0.09  -0.05  -0.09
    57   1     0.02  -0.01   0.18     0.02   0.02   0.19    -0.01  -0.01  -0.14
    58   1     0.09  -0.00  -0.01     0.04   0.10  -0.06     0.02   0.04  -0.07
    59   1    -0.01   0.00  -0.02     0.00   0.01  -0.13    -0.03  -0.01  -0.10
                      4                      5                      6
                      A                      A                      A
 Frequencies --     82.2471               100.0173               107.0725
 Red. masses --      3.7396                 3.0768                 3.4972
 Frc consts  --      0.0149                 0.0181                 0.0236
 IR Inten    --      0.7792                 0.7148                 0.0461
  Atom  AN      X      Y      Z        X      Y      Z        X      Y      Z
     1   6    -0.06   0.15   0.13    -0.02   0.04   0.02    -0.02  -0.11   0.16
     2   6    -0.03   0.05   0.02    -0.02   0.04   0.01     0.08  -0.07   0.02
     3   6    -0.14   0.05  -0.03    -0.06   0.03   0.09     0.13  -0.06  -0.06
     4   6    -0.00  -0.03  -0.03    -0.01  -0.00  -0.04     0.01  -0.01  -0.04
     5   6     0.04  -0.01  -0.12     0.02   0.01  -0.06    -0.02  -0.01  -0.08
     6   6     0.04  -0.03  -0.10     0.01  -0.02   0.04    -0.03   0.04  -0.10
     7   6     0.02  -0.06  -0.03     0.00  -0.01   0.00     0.01   0.06  -0.04
     8   6     0.00  -0.06   0.01    -0.00  -0.02   0.03    -0.01   0.06   0.03
     9   6    -0.01  -0.04   0.07    -0.01  -0.01   0.04     0.04   0.06   0.11
    10   6    -0.02  -0.04   0.10     0.00   0.00  -0.01     0.05   0.00   0.12
    11   6    -0.02  -0.00   0.02    -0.01  -0.02   0.02     0.01   0.01   0.05
    12   6     0.02  -0.04  -0.01    -0.00   0.01   0.09    -0.02   0.02   0.04
    13   6     0.04  -0.09  -0.02    -0.05   0.12   0.11    -0.02   0.00   0.04
    14   6     0.01  -0.06   0.00     0.01  -0.00   0.03    -0.00   0.06   0.03
    15   6     0.00  -0.05   0.04     0.00  -0.03  -0.07     0.00   0.05  -0.00
    16   6    -0.00  -0.06   0.04     0.01   0.01  -0.12     0.02   0.05  -0.04
    17   6    -0.01  -0.04  -0.01     0.00  -0.02  -0.06     0.02   0.05  -0.05
    18   6    -0.03   0.01  -0.01     0.00  -0.10  -0.06     0.02   0.06  -0.05
    19   6    -0.01   0.03  -0.04    -0.00  -0.01  -0.03     0.02  -0.06  -0.04
    20   6    -0.00   0.07  -0.10    -0.04   0.01  -0.09    -0.07  -0.07  -0.13
    21   6     0.05   0.07  -0.02     0.03  -0.00   0.01    -0.07  -0.04  -0.02
    22   8     0.07   0.15   0.14     0.12   0.01  -0.10    -0.08  -0.02   0.04
    23   6     0.05   0.00  -0.06     0.01  -0.05   0.20    -0.07  -0.01   0.03
    24   1    -0.14   0.20   0.12    -0.05  -0.03   0.02    -0.13  -0.07   0.15
    25   1    -0.06   0.17   0.16    -0.03   0.09   0.07     0.04  -0.16   0.24
    26   1     0.00   0.14   0.20     0.02   0.06  -0.04    -0.05  -0.12   0.22
    27   1     0.05   0.03   0.04     0.01   0.10   0.01     0.16  -0.13   0.04
    28   1    -0.13   0.09   0.06    -0.06   0.06   0.18     0.16  -0.11  -0.06
    29   1    -0.27   0.07  -0.07    -0.14  -0.03   0.08     0.12   0.00  -0.08
    30   1    -0.08  -0.01  -0.14    -0.03   0.05   0.06     0.17  -0.07  -0.10
    31   1    -0.02  -0.09  -0.03    -0.03  -0.03  -0.04    -0.00  -0.03  -0.04
    32   1     0.02   0.06  -0.14    -0.04   0.03  -0.11    -0.02  -0.00  -0.08
    33   1     0.07  -0.04  -0.15     0.09   0.01  -0.10    -0.05  -0.04  -0.09
    34   1     0.08  -0.06  -0.13     0.04   0.02   0.11    -0.05   0.02  -0.14
    35   1     0.02   0.01  -0.11    -0.04  -0.09   0.06    -0.05   0.09  -0.12
    36   1     0.05  -0.10  -0.03     0.02   0.04  -0.00     0.06   0.04  -0.04
    37   1    -0.03  -0.09   0.01    -0.02  -0.02   0.03    -0.06   0.03   0.03
    38   1     0.01   0.01   0.08    -0.03   0.00   0.04     0.06   0.13   0.11
    39   1    -0.03  -0.07   0.11    -0.00  -0.02   0.06     0.06   0.05   0.15
    40   1    -0.03  -0.11   0.10     0.04   0.05  -0.01     0.05  -0.06   0.12
    41   1    -0.02  -0.01   0.16    -0.01  -0.01  -0.06     0.07   0.01   0.16
    42   1    -0.05   0.04   0.03    -0.04  -0.06   0.02    -0.05   0.04   0.05
    43   1     0.14  -0.16  -0.07    -0.15   0.19   0.18     0.00  -0.01   0.02
    44   1     0.04   0.00  -0.02    -0.05   0.03   0.12    -0.02   0.02   0.04
    45   1    -0.05  -0.17   0.01     0.03   0.21   0.04    -0.04  -0.02   0.04
    46   1    -0.00  -0.07   0.00     0.07   0.03   0.03     0.01   0.07   0.03
    47   1     0.01  -0.01   0.04    -0.03  -0.10  -0.08    -0.02   0.04  -0.00
    48   1     0.00  -0.06   0.06     0.01   0.01  -0.12     0.02   0.06  -0.00
    49   1    -0.00  -0.05   0.08    -0.00  -0.01  -0.19     0.02   0.05  -0.06
    50   1    -0.01  -0.11   0.04     0.04   0.08  -0.12     0.05   0.06  -0.04
    51   1    -0.07   0.03   0.00     0.02  -0.12  -0.10     0.04   0.05  -0.03
    52   1    -0.01   0.04  -0.04    -0.01  -0.13  -0.03     0.00   0.06  -0.06
    53   1    -0.04  -0.02   0.00     0.01  -0.10  -0.07     0.02   0.09  -0.04
    54   1     0.04   0.00  -0.05     0.04  -0.03  -0.04     0.10  -0.10  -0.06
    55   1    -0.05   0.05  -0.03    -0.02   0.00  -0.04     0.03  -0.06  -0.04
    56   1    -0.09   0.07  -0.10    -0.17  -0.01  -0.09    -0.19  -0.08  -0.12
    57   1     0.02   0.10  -0.17    -0.01   0.03  -0.21    -0.04  -0.09  -0.24
    58   1     0.07   0.05  -0.06    -0.09  -0.22   0.21    -0.11  -0.02   0.03
    59   1     0.08  -0.02  -0.10     0.08  -0.02   0.35    -0.08   0.01   0.05
                      7                      8                      9
                      A                      A                      A
 Frequencies --    130.9976               164.3941               184.3284
 Red. masses --      2.4833                 2.1933                 2.7138
 Frc consts  --      0.0251                 0.0349                 0.0543
 IR Inten    --      0.8754                 0.2456                 0.0959
  Atom  AN      X      Y      Z        X      Y      Z        X      Y      Z
     1   6     0.02  -0.03  -0.07     0.03   0.05  -0.04    -0.07  -0.08   0.05
     2   6    -0.01  -0.00  -0.00    -0.02  -0.00   0.00    -0.00   0.02  -0.00
     3   6     0.05   0.00  -0.01    -0.07  -0.01   0.01     0.11   0.03  -0.02
     4   6    -0.02   0.04   0.05     0.01  -0.03   0.03    -0.04   0.07  -0.02
     5   6    -0.02   0.02   0.16     0.01  -0.04   0.04    -0.01   0.07  -0.00
     6   6     0.03   0.04  -0.09     0.02  -0.01  -0.13     0.01   0.04  -0.00
     7   6    -0.00  -0.00  -0.06     0.02  -0.04  -0.02    -0.01   0.01   0.01
     8   6    -0.01  -0.02  -0.06    -0.01  -0.02   0.04    -0.01  -0.05   0.03
     9   6     0.01  -0.02  -0.04    -0.02   0.03   0.13    -0.03  -0.02   0.11
    10   6    -0.02  -0.03   0.05     0.01   0.02   0.03    -0.00  -0.05  -0.01
    11   6    -0.01  -0.03   0.05    -0.01   0.04  -0.03    -0.03  -0.03  -0.07
    12   6    -0.02  -0.04   0.03    -0.00   0.04  -0.01     0.01  -0.04  -0.03
    13   6    -0.08  -0.05   0.03     0.01   0.09  -0.01     0.02   0.01  -0.03
    14   6    -0.01  -0.03  -0.03     0.01   0.02  -0.02    -0.01  -0.04  -0.02
    15   6    -0.03  -0.02  -0.04     0.04  -0.02  -0.08    -0.04  -0.02  -0.02
    16   6    -0.04  -0.00   0.01     0.00  -0.04   0.02    -0.05   0.02  -0.01
    17   6    -0.00   0.03   0.01     0.02  -0.03   0.02    -0.05   0.03  -0.02
    18   6     0.05   0.08   0.02     0.06  -0.01   0.03    -0.10   0.04  -0.02
    19   6    -0.01  -0.02   0.04    -0.00   0.03  -0.06    -0.03   0.04  -0.10
    20   6    -0.04   0.03  -0.09     0.00  -0.03   0.05     0.07   0.01   0.09
    21   6     0.03   0.02  -0.02    -0.03  -0.02   0.03     0.08  -0.01   0.06
    22   8     0.09   0.07  -0.00    -0.06  -0.06  -0.02     0.11  -0.02  -0.02
    23   6     0.02  -0.04   0.05    -0.02   0.02   0.02     0.07  -0.04   0.02
    24   1     0.09  -0.00  -0.06     0.10   0.12  -0.05    -0.17  -0.19   0.05
    25   1     0.02  -0.06  -0.13     0.01   0.03  -0.14    -0.03  -0.06   0.19
    26   1    -0.02  -0.04  -0.06     0.02   0.04   0.02    -0.07  -0.06  -0.05
    27   1    -0.07  -0.01  -0.01    -0.04   0.00  -0.00     0.01   0.01   0.00
    28   1     0.04  -0.02  -0.12    -0.07   0.02   0.05     0.11  -0.04  -0.17
    29   1     0.18   0.02   0.02    -0.12  -0.02   0.00     0.28   0.07   0.02
    30   1    -0.01   0.02   0.08    -0.05  -0.02  -0.02     0.05   0.06   0.09
    31   1    -0.02   0.12   0.04     0.02  -0.03   0.03    -0.05   0.08  -0.03
    32   1     0.15  -0.06   0.31     0.11  -0.06   0.12    -0.01   0.07   0.01
    33   1    -0.21   0.06   0.28    -0.11  -0.05   0.09    -0.01   0.09   0.01
    34   1    -0.04  -0.05  -0.23    -0.01  -0.10  -0.27     0.03   0.02  -0.01
    35   1     0.16   0.18  -0.14     0.08   0.15  -0.18     0.01   0.04  -0.00
    36   1    -0.01  -0.05  -0.06     0.06  -0.10  -0.01     0.00   0.02   0.01
    37   1    -0.02  -0.00  -0.06    -0.05  -0.08   0.04    -0.03  -0.11   0.03
    38   1     0.07  -0.04  -0.05    -0.09   0.14   0.15    -0.11   0.09   0.13
    39   1    -0.02  -0.02  -0.08    -0.00  -0.02   0.25     0.01  -0.06   0.24
    40   1    -0.08  -0.06   0.06     0.08  -0.00   0.02     0.09  -0.08  -0.02
    41   1     0.01  -0.03   0.09    -0.03   0.04   0.02    -0.03  -0.03  -0.02
    42   1    -0.01  -0.02   0.05    -0.05   0.05  -0.03    -0.07  -0.04  -0.07
    43   1    -0.06  -0.06   0.01     0.03   0.10   0.03     0.16  -0.06  -0.03
    44   1    -0.09  -0.02   0.07     0.01   0.12  -0.01     0.02   0.17  -0.02
    45   1    -0.12  -0.07   0.02    -0.00   0.10  -0.03    -0.11  -0.07  -0.04
    46   1     0.03  -0.04  -0.03     0.01   0.08  -0.01    -0.03  -0.02  -0.02
    47   1    -0.00  -0.05  -0.05     0.12  -0.11  -0.10    -0.04  -0.02  -0.01
    48   1    -0.05  -0.02  -0.07     0.02   0.03  -0.19    -0.07  -0.03  -0.02
    49   1    -0.05   0.01   0.05     0.04  -0.04   0.08    -0.06   0.03  -0.01
    50   1    -0.09  -0.02   0.01    -0.07  -0.07   0.02    -0.06   0.02  -0.01
    51   1    -0.05   0.15   0.06    -0.17   0.13   0.04    -0.17   0.09  -0.03
    52   1     0.18   0.16   0.02     0.31   0.14   0.06    -0.04   0.09  -0.03
    53   1     0.07  -0.03  -0.03     0.07  -0.28  -0.02    -0.11  -0.03   0.00
    54   1     0.02  -0.11   0.04     0.00   0.13  -0.07    -0.04   0.21  -0.11
    55   1    -0.03   0.02   0.10     0.00  -0.01  -0.15    -0.07   0.01  -0.22
    56   1    -0.18   0.07  -0.08     0.09  -0.08   0.04     0.22  -0.09   0.08
    57   1    -0.01   0.05  -0.21    -0.01  -0.03   0.12     0.03   0.06   0.23
    58   1    -0.02  -0.10   0.06    -0.01   0.01   0.01     0.12  -0.08   0.01
    59   1     0.06  -0.04   0.11    -0.05   0.03   0.02     0.08  -0.04   0.03
                     10                     11                     12
                      A                      A                      A
 Frequencies --    193.6118               201.7197               207.8067
 Red. masses --      1.7084                 1.6159                 3.1428
 Frc consts  --      0.0377                 0.0387                 0.0800
 IR Inten    --      0.0907                 0.0949                 0.0505
  Atom  AN      X      Y      Z        X      Y      Z        X      Y      Z
     1   6    -0.03  -0.01  -0.03    -0.06  -0.04  -0.00    -0.04  -0.04  -0.03
     2   6    -0.04  -0.01  -0.01    -0.04  -0.01  -0.02    -0.06  -0.06   0.00
     3   6    -0.09  -0.02   0.04    -0.05  -0.01   0.02    -0.11  -0.06  -0.04
     4   6    -0.03  -0.01  -0.02    -0.04   0.01  -0.02    -0.04  -0.05   0.04
     5   6    -0.04  -0.03   0.10    -0.04  -0.01   0.06    -0.07  -0.03  -0.07
     6   6    -0.03  -0.00  -0.00    -0.02   0.02  -0.05    -0.10   0.00   0.06
     7   6    -0.01   0.02  -0.04    -0.01   0.01  -0.00    -0.04   0.05   0.04
     8   6    -0.00   0.03  -0.03     0.00   0.01   0.04     0.01   0.04  -0.03
     9   6     0.03   0.02  -0.01     0.02   0.00   0.02     0.06   0.04   0.02
    10   6     0.02  -0.01   0.05     0.03   0.00  -0.02     0.08  -0.01   0.02
    11   6     0.02   0.01   0.01     0.04  -0.01  -0.00     0.08  -0.01  -0.01
    12   6     0.02   0.01   0.02     0.03  -0.00   0.00     0.02   0.00  -0.05
    13   6     0.02   0.00   0.01     0.11  -0.01  -0.01    -0.07   0.01  -0.04
    14   6     0.02   0.01   0.02     0.01   0.01   0.04     0.01   0.05  -0.09
    15   6     0.01   0.03   0.07    -0.01   0.02   0.02     0.01   0.05  -0.10
    16   6     0.03   0.02  -0.04    -0.00   0.02  -0.03    -0.04   0.03   0.08
    17   6    -0.00  -0.00  -0.05    -0.03   0.01  -0.02    -0.03   0.03   0.08
    18   6    -0.01  -0.01  -0.05    -0.06  -0.00  -0.03    -0.02   0.09   0.08
    19   6     0.04   0.01  -0.06     0.04  -0.02   0.03     0.08  -0.06   0.03
    20   6     0.03  -0.03  -0.00     0.03  -0.00  -0.01     0.06  -0.03  -0.04
    21   6     0.02  -0.01   0.01     0.02  -0.00  -0.02     0.08  -0.02   0.00
    22   8     0.01  -0.03  -0.01     0.02   0.01   0.02     0.10  -0.01   0.01
    23   6     0.02   0.01   0.01     0.02  -0.00  -0.03     0.06  -0.03   0.02
    24   1    -0.03  -0.02  -0.02    -0.10  -0.10  -0.00     0.03   0.05  -0.03
    25   1    -0.04   0.00  -0.03    -0.05  -0.03   0.05    -0.04  -0.10  -0.13
    26   1    -0.03  -0.00  -0.04    -0.06  -0.03  -0.05    -0.10  -0.06   0.04
    27   1    -0.04   0.02  -0.02    -0.03   0.01  -0.02    -0.09  -0.08   0.00
    28   1    -0.07   0.02   0.18    -0.03  -0.01   0.10    -0.09  -0.04   0.06
    29   1    -0.23  -0.07   0.01    -0.13  -0.04   0.00    -0.24  -0.04  -0.07
    30   1    -0.02  -0.01  -0.04     0.00   0.00  -0.03    -0.04  -0.09  -0.14
    31   1    -0.05   0.05  -0.03    -0.05   0.05  -0.03     0.00  -0.10   0.05
    32   1     0.05  -0.11   0.19     0.05  -0.07   0.14    -0.18   0.04  -0.17
    33   1    -0.15   0.02   0.19    -0.15   0.03   0.14     0.04  -0.09  -0.17
    34   1    -0.09  -0.00  -0.03    -0.06  -0.03  -0.14    -0.10   0.06   0.14
    35   1     0.03   0.02  -0.01     0.02   0.12  -0.09    -0.19  -0.07   0.09
    36   1    -0.01   0.03  -0.04     0.03  -0.00   0.00    -0.09   0.05   0.04
    37   1    -0.03   0.05  -0.03    -0.01   0.01   0.04     0.04  -0.01  -0.03
    38   1     0.08   0.02  -0.02    -0.01  -0.00   0.03     0.06   0.10   0.03
    39   1     0.03   0.03  -0.04     0.04   0.01   0.03     0.10   0.05   0.06
    40   1    -0.02  -0.07   0.06     0.07   0.05  -0.03     0.08  -0.04   0.02
    41   1     0.04   0.01   0.12     0.01  -0.01  -0.07     0.09  -0.01   0.05
    42   1    -0.02   0.02   0.01     0.06  -0.01  -0.00     0.11   0.03  -0.01
    43   1     0.35  -0.17  -0.06    -0.27   0.20   0.09    -0.05  -0.00  -0.06
    44   1     0.02   0.37   0.06     0.13  -0.46  -0.12    -0.09   0.05   0.03
    45   1    -0.29  -0.20   0.04     0.52   0.23   0.00    -0.14  -0.01  -0.06
    46   1     0.02  -0.03   0.02     0.01   0.02   0.04     0.02   0.09  -0.09
    47   1    -0.06   0.12   0.09    -0.05   0.02   0.02     0.13   0.00  -0.12
    48   1     0.04  -0.00   0.16    -0.00   0.01   0.04    -0.03   0.07  -0.19
    49   1     0.02   0.01  -0.08    -0.00   0.01  -0.06     0.02   0.04   0.18
    50   1     0.11   0.04  -0.04     0.03   0.04  -0.03    -0.17  -0.03   0.08
    51   1     0.13  -0.11  -0.06    -0.11   0.02  -0.05    -0.09   0.14   0.11
    52   1    -0.17  -0.11  -0.07    -0.03   0.02  -0.03     0.05   0.14   0.07
    53   1    -0.02   0.16  -0.02    -0.07  -0.05  -0.01    -0.01   0.02   0.07
    54   1     0.08   0.09  -0.07     0.01  -0.07   0.04     0.07  -0.13   0.04
    55   1     0.02  -0.02  -0.14     0.05  -0.00   0.08     0.11  -0.04   0.10
    56   1     0.06  -0.07  -0.01     0.02   0.03  -0.00    -0.00  -0.01  -0.03
    57   1     0.03  -0.02   0.02     0.03  -0.02  -0.01     0.08  -0.03  -0.09
    58   1     0.03   0.04   0.01     0.01   0.01  -0.02     0.07  -0.10   0.02
    59   1     0.00   0.01  -0.01     0.02  -0.00  -0.03     0.06  -0.01   0.07
                     13                     14                     15
                      A                      A                      A
 Frequencies --    232.2236               237.6503               252.8757
 Red. masses --      1.2181                 1.2784                 1.8039
 Frc consts  --      0.0387                 0.0425                 0.0680
 IR Inten    --      0.0955                 0.0222                 0.0254
  Atom  AN      X      Y      Z        X      Y      Z        X      Y      Z
     1   6     0.05   0.03  -0.01    -0.01   0.01   0.00     0.01  -0.03   0.01
     2   6     0.01  -0.01   0.01    -0.00  -0.00  -0.01     0.04   0.01  -0.03
     3   6     0.01  -0.01   0.02    -0.03  -0.00  -0.02     0.04   0.01   0.03
     4   6     0.01  -0.01   0.01     0.01  -0.01   0.00     0.02   0.02  -0.05
     5   6    -0.01  -0.00  -0.00     0.02  -0.01   0.03     0.04   0.01   0.05
     6   6    -0.01   0.01  -0.02     0.03  -0.02   0.01     0.06  -0.02   0.03
     7   6    -0.00   0.01  -0.01     0.01  -0.02  -0.03     0.02  -0.03  -0.01
     8   6    -0.01  -0.01  -0.00     0.01  -0.02  -0.03     0.02  -0.03  -0.02
     9   6    -0.02   0.01   0.05     0.00   0.01   0.05    -0.00  -0.00   0.04
    10   6    -0.01  -0.02   0.01     0.01   0.00   0.04     0.01   0.01  -0.02
    11   6    -0.03  -0.01  -0.02     0.00   0.02  -0.01     0.01   0.01  -0.02
    12   6    -0.01  -0.02  -0.02    -0.01   0.01  -0.03    -0.02   0.01  -0.04
    13   6    -0.01  -0.01  -0.02    -0.04   0.05  -0.02    -0.11   0.06  -0.03
    14   6    -0.01  -0.01  -0.01     0.00  -0.00  -0.05     0.00  -0.01  -0.05
    15   6    -0.02  -0.00   0.00     0.01  -0.00  -0.00     0.01   0.01   0.03
    16   6    -0.01   0.01  -0.02    -0.00  -0.03   0.03     0.01  -0.04   0.04
    17   6     0.00   0.01  -0.00     0.01  -0.01  -0.00    -0.00  -0.02  -0.02
    18   6     0.02   0.04   0.00     0.01   0.04   0.00    -0.12   0.01  -0.03
    19   6    -0.03   0.01  -0.02     0.00  -0.01   0.01     0.00  -0.03   0.06
    20   6    -0.00   0.01   0.03    -0.00  -0.00  -0.00    -0.01   0.00  -0.02
    21   6     0.01  -0.00   0.01    -0.00  -0.00  -0.00    -0.01   0.00  -0.02
    22   8     0.03   0.00  -0.00    -0.01  -0.01  -0.00    -0.01   0.01   0.00
    23   6     0.01  -0.02   0.00    -0.00   0.00   0.00    -0.01   0.00  -0.01
    24   1     0.22   0.36  -0.04    -0.16  -0.33   0.03     0.01   0.05   0.00
    25   1     0.07  -0.18  -0.31    -0.06   0.25   0.27     0.05  -0.10  -0.01
    26   1    -0.12  -0.05   0.27     0.20   0.09  -0.29    -0.06  -0.05   0.08
    27   1     0.00  -0.01   0.01     0.00  -0.00  -0.01     0.07   0.04  -0.03
    28   1     0.04  -0.01   0.11    -0.09   0.03  -0.19     0.15  -0.01   0.43
    29   1    -0.07  -0.03   0.01     0.13   0.02   0.01    -0.35  -0.05  -0.05
    30   1     0.07   0.01  -0.03    -0.15  -0.05   0.09     0.30   0.08  -0.23
    31   1    -0.00  -0.01   0.01     0.01   0.01  -0.00     0.02   0.07  -0.06
    32   1    -0.00   0.00  -0.00     0.04  -0.03   0.05     0.08  -0.05   0.10
    33   1    -0.02  -0.02  -0.01     0.00   0.01   0.05     0.01   0.08   0.11
    34   1    -0.02   0.01  -0.02     0.01  -0.01   0.02     0.06  -0.01   0.04
    35   1    -0.01   0.01  -0.02     0.06  -0.05   0.01     0.09  -0.04   0.03
    36   1     0.00   0.01  -0.01    -0.00  -0.02  -0.03     0.01  -0.01  -0.01
    37   1    -0.01  -0.04  -0.00     0.00  -0.06  -0.03     0.01  -0.08  -0.02
    38   1    -0.05   0.08   0.06    -0.00   0.09   0.05    -0.05   0.06   0.05
    39   1    -0.00  -0.02   0.12     0.00  -0.02   0.11     0.00  -0.03   0.11
    40   1     0.02  -0.04   0.01     0.02  -0.02   0.03     0.06   0.04  -0.03
    41   1    -0.01  -0.01   0.02     0.00   0.02   0.06    -0.01   0.01  -0.07
    42   1    -0.04  -0.01  -0.02     0.01   0.05  -0.01     0.06   0.02  -0.02
    43   1    -0.14   0.06   0.01    -0.16   0.12   0.02    -0.11   0.06  -0.03
    44   1    -0.00  -0.16  -0.04    -0.05  -0.06  -0.01    -0.13   0.09   0.05
    45   1     0.13   0.07  -0.02     0.05   0.13  -0.06    -0.16   0.07  -0.09
    46   1    -0.02  -0.02  -0.01    -0.00  -0.02  -0.05    -0.03  -0.03  -0.05
    47   1    -0.04   0.02   0.01     0.02   0.04   0.01     0.01   0.10   0.05
    48   1    -0.02  -0.02   0.03     0.01  -0.02   0.02     0.02  -0.03   0.10
    49   1    -0.02   0.01  -0.04     0.01  -0.02   0.10     0.04  -0.03   0.11
    50   1     0.00   0.03  -0.02    -0.03  -0.09   0.04    -0.00  -0.12   0.04
    51   1     0.34  -0.14   0.04     0.28  -0.11   0.05    -0.22   0.06  -0.07
    52   1    -0.29  -0.14  -0.05    -0.26  -0.11  -0.06    -0.08   0.06  -0.08
    53   1     0.03   0.41   0.02     0.01   0.37   0.03    -0.16  -0.08   0.04
    54   1    -0.05   0.04  -0.02    -0.01  -0.04   0.02    -0.04  -0.13   0.07
    55   1    -0.04   0.00  -0.04     0.02  -0.00   0.04     0.04  -0.00   0.16
    56   1     0.04  -0.01   0.02    -0.02   0.00  -0.00    -0.05   0.05  -0.01
    57   1    -0.01   0.02   0.06    -0.00  -0.01  -0.02    -0.00  -0.01  -0.05
    58   1     0.02  -0.05   0.00     0.00  -0.02  -0.00    -0.01  -0.01  -0.01
    59   1     0.02  -0.02   0.02    -0.01   0.01   0.02    -0.01   0.01   0.00
                     16                     17                     18
                      A                      A                      A
 Frequencies --    257.9515               267.7066               277.2525
 Red. masses --      1.6192                 1.8673                 1.8624
 Frc consts  --      0.0635                 0.0788                 0.0843
 IR Inten    --      0.0488                 0.0512                 0.2411
  Atom  AN      X      Y      Z        X      Y      Z        X      Y      Z
     1   6    -0.03   0.03   0.01    -0.03   0.01   0.01     0.07   0.07   0.02
     2   6    -0.04   0.02   0.02    -0.02   0.01  -0.00     0.03  -0.03   0.00
     3   6     0.04   0.02   0.03     0.02   0.01   0.02    -0.04  -0.05   0.03
     4   6    -0.03  -0.00   0.01    -0.02   0.00  -0.02     0.02  -0.04  -0.03
     5   6    -0.01   0.00  -0.01     0.00   0.00   0.01    -0.02  -0.05   0.02
     6   6     0.00  -0.01  -0.05     0.00  -0.04   0.10    -0.04  -0.01   0.04
     7   6    -0.01  -0.03   0.00    -0.01  -0.01  -0.06    -0.00   0.04  -0.03
     8   6     0.00  -0.01  -0.00    -0.01  -0.02  -0.08    -0.01   0.03   0.00
     9   6     0.02  -0.01   0.00     0.02  -0.02  -0.04    -0.00   0.05   0.06
    10   6     0.03   0.02  -0.00    -0.03  -0.02   0.13     0.02   0.00  -0.05
    11   6     0.05   0.02   0.01    -0.00   0.04   0.02    -0.02  -0.03  -0.04
    12   6     0.02   0.03  -0.01     0.01   0.02  -0.01    -0.02  -0.02  -0.03
    13   6    -0.02   0.06  -0.00     0.05   0.07  -0.01    -0.07  -0.03  -0.03
    14   6     0.01   0.01  -0.02     0.01  -0.02  -0.03    -0.02   0.00   0.00
    15   6     0.01   0.01  -0.00     0.01  -0.01   0.02    -0.02   0.03   0.10
    16   6    -0.01  -0.02   0.00     0.00  -0.04   0.02     0.03   0.01  -0.03
    17   6    -0.03  -0.03   0.01    -0.00  -0.01  -0.05     0.03   0.01  -0.06
    18   6    -0.10  -0.10   0.00     0.00   0.07  -0.05     0.02   0.03  -0.06
    19   6     0.06  -0.03   0.04     0.01   0.03  -0.05    -0.03  -0.03   0.02
    20   6     0.03  -0.02  -0.03    -0.00  -0.01   0.00     0.00   0.01   0.01
    21   6     0.01  -0.00  -0.02    -0.01  -0.01   0.02     0.02  -0.00  -0.00
    22   8    -0.02  -0.01   0.01    -0.02  -0.03  -0.00     0.04   0.02   0.00
    23   6     0.01   0.03  -0.01     0.00   0.01   0.01     0.01  -0.02  -0.01
    24   1     0.07   0.28  -0.01     0.04   0.18  -0.01     0.06   0.12   0.02
    25   1    -0.00  -0.12  -0.18     0.00  -0.11  -0.12     0.03   0.11  -0.01
    26   1    -0.15  -0.02   0.23    -0.12  -0.04   0.16     0.14   0.07   0.08
    27   1    -0.06   0.02   0.02    -0.02   0.01  -0.00     0.06  -0.02   0.00
    28   1    -0.03  -0.01  -0.34     0.01  -0.01  -0.06    -0.15   0.04  -0.23
    29   1     0.46   0.04   0.13     0.12  -0.00   0.04     0.23  -0.09   0.11
    30   1    -0.18   0.04   0.32    -0.03   0.03   0.09    -0.26  -0.11   0.25
    31   1    -0.05  -0.02   0.01    -0.05   0.01  -0.02    -0.01  -0.02  -0.04
    32   1     0.02   0.02   0.01    -0.05   0.01  -0.03    -0.02  -0.11   0.03
    33   1    -0.03  -0.01  -0.00     0.07   0.04  -0.01    -0.04  -0.03   0.04
    34   1     0.02  -0.05  -0.10     0.00   0.05   0.25    -0.09   0.03   0.08
    35   1     0.01   0.04  -0.07     0.01  -0.22   0.15    -0.05  -0.05   0.05
    36   1    -0.00  -0.07   0.01    -0.07   0.05  -0.07     0.01   0.09  -0.03
    37   1     0.00  -0.02  -0.00    -0.02  -0.02  -0.08    -0.03  -0.00   0.00
    38   1     0.02  -0.01  -0.00     0.15  -0.04  -0.06    -0.08   0.15   0.08
    39   1     0.02  -0.00  -0.01    -0.05  -0.02  -0.11     0.05   0.02   0.17
    40   1     0.03   0.03  -0.00    -0.15  -0.17   0.16     0.11   0.04  -0.06
    41   1     0.01   0.02  -0.01     0.01   0.04   0.31     0.02  -0.03  -0.12
    42   1     0.08   0.04   0.00    -0.05   0.11   0.03     0.01  -0.04  -0.04
    43   1     0.04   0.03  -0.00    -0.11   0.17   0.08    -0.11  -0.02  -0.05
    44   1    -0.03   0.15   0.04     0.07  -0.12  -0.07    -0.08  -0.07   0.01
    45   1    -0.10   0.03  -0.04     0.25   0.19  -0.02    -0.06  -0.02  -0.04
    46   1     0.01   0.02  -0.02     0.03  -0.08  -0.04    -0.06  -0.04   0.00
    47   1     0.01   0.04   0.00     0.01   0.04   0.03    -0.10   0.16   0.12
    48   1     0.01   0.00   0.02     0.01  -0.04   0.06     0.04  -0.02   0.24
    49   1     0.02  -0.03   0.01     0.01  -0.02   0.09    -0.02   0.02  -0.07
    50   1    -0.01  -0.02   0.01    -0.00  -0.12   0.02     0.13   0.02  -0.03
    51   1    -0.03  -0.16  -0.07    -0.17   0.19  -0.01    -0.21   0.17  -0.07
    52   1    -0.20  -0.16   0.00     0.18   0.19  -0.06     0.24   0.16  -0.05
    53   1    -0.12  -0.03   0.06     0.00  -0.11  -0.06     0.01  -0.22  -0.07
    54   1     0.05  -0.10   0.04     0.06   0.10  -0.06    -0.08  -0.07   0.03
    55   1     0.09  -0.01   0.10     0.00  -0.00  -0.12    -0.01  -0.01   0.08
    56   1    -0.02   0.02  -0.03     0.01  -0.05  -0.00     0.02   0.02   0.01
    57   1     0.04  -0.04  -0.08    -0.00  -0.01   0.01    -0.00   0.02   0.03
    58   1     0.01   0.04  -0.01     0.01   0.00   0.01     0.01  -0.05  -0.01
    59   1    -0.00   0.03  -0.02    -0.02   0.02   0.02     0.02  -0.03   0.00
                     19                     20                     21
                      A                      A                      A
 Frequencies --    297.8782               302.9244               316.2384
 Red. masses --      2.2479                 2.4275                 2.6204
 Frc consts  --      0.1175                 0.1312                 0.1544
 IR Inten    --      0.0586                 0.0075                 0.5710
  Atom  AN      X      Y      Z        X      Y      Z        X      Y      Z
     1   6    -0.09  -0.04  -0.01    -0.09  -0.06  -0.04     0.00   0.03  -0.00
     2   6    -0.06   0.01  -0.02    -0.07   0.04   0.02    -0.00   0.02  -0.00
     3   6    -0.03   0.01  -0.01     0.02   0.07  -0.04     0.03   0.03   0.01
     4   6    -0.04   0.01  -0.02    -0.04   0.03   0.06    -0.00  -0.00  -0.00
     5   6     0.00   0.01   0.01    -0.00   0.05  -0.04    -0.01  -0.01   0.00
     6   6     0.02  -0.03   0.05     0.01   0.01  -0.03    -0.02  -0.01  -0.00
     7   6     0.01  -0.01  -0.03    -0.01  -0.01  -0.02    -0.02  -0.00  -0.02
     8   6    -0.00  -0.05   0.04    -0.01   0.00  -0.03    -0.02   0.03  -0.04
     9   6    -0.02  -0.04   0.07     0.01   0.02   0.03    -0.07   0.06   0.01
    10   6     0.02   0.02  -0.09     0.01  -0.02   0.03    -0.06   0.02  -0.00
    11   6     0.02  -0.01   0.00    -0.00  -0.00  -0.03    -0.03   0.03  -0.03
    12   6     0.02   0.00   0.04    -0.01   0.00  -0.05     0.02   0.00  -0.07
    13   6     0.07   0.04   0.04    -0.06   0.05  -0.04     0.20   0.01  -0.09
    14   6     0.01  -0.04   0.05    -0.01  -0.01  -0.01     0.02   0.04  -0.05
    15   6     0.00  -0.06  -0.01    -0.02   0.03   0.14     0.04   0.05  -0.01
    16   6    -0.01  -0.03  -0.02     0.02   0.00  -0.00     0.03  -0.00   0.02
    17   6     0.00  -0.00  -0.05     0.00  -0.01   0.02    -0.00  -0.01  -0.00
    18   6     0.11   0.13  -0.04     0.18  -0.13   0.03    -0.00  -0.03  -0.00
    19   6     0.02  -0.03   0.08    -0.01  -0.03   0.01    -0.06  -0.03   0.12
    20   6     0.00   0.01  -0.02     0.01  -0.00   0.00    -0.13  -0.02   0.02
    21   6    -0.02   0.02  -0.04     0.02  -0.01  -0.01    -0.02  -0.06   0.04
    22   8    -0.05   0.02   0.01     0.02   0.00   0.00     0.07  -0.02   0.01
    23   6    -0.01   0.03  -0.02     0.01  -0.01  -0.02    -0.02  -0.11   0.05
    24   1    -0.05   0.08  -0.02    -0.04  -0.10  -0.03    -0.01  -0.00  -0.00
    25   1    -0.04  -0.18  -0.09    -0.05  -0.13  -0.04    -0.01   0.05   0.02
    26   1    -0.22  -0.08   0.10    -0.19  -0.07  -0.09     0.03   0.03  -0.02
    27   1    -0.06   0.01  -0.02    -0.12   0.02   0.02     0.00   0.03  -0.00
    28   1    -0.03  -0.01  -0.07     0.09  -0.03   0.02     0.06  -0.01   0.02
    29   1     0.05   0.00   0.01    -0.06   0.15  -0.08     0.03   0.03   0.00
    30   1    -0.06   0.03   0.05     0.13   0.10  -0.15     0.06   0.06  -0.00
    31   1    -0.05   0.02  -0.02    -0.04  -0.01   0.06    -0.00   0.00  -0.01
    32   1    -0.02   0.02  -0.01    -0.03   0.13  -0.08    -0.01  -0.02   0.01
    33   1     0.05   0.04  -0.00     0.05  -0.01  -0.10    -0.02  -0.00   0.01
    34   1     0.03   0.02   0.14     0.04   0.01  -0.02    -0.02   0.00   0.00
    35   1     0.02  -0.13   0.08     0.00  -0.00  -0.03    -0.01  -0.02   0.00
    36   1     0.04   0.05  -0.03    -0.03  -0.03  -0.02    -0.04  -0.00  -0.02
    37   1    -0.05  -0.07   0.04    -0.02  -0.01  -0.03    -0.00  -0.00  -0.03
    38   1    -0.13   0.02   0.09     0.00   0.10   0.04    -0.10   0.14   0.02
    39   1     0.01  -0.07   0.16     0.02  -0.00   0.10    -0.05   0.03   0.09
    40   1     0.15   0.17  -0.12     0.02  -0.07   0.03    -0.08  -0.03   0.00
    41   1    -0.06  -0.02  -0.27     0.02  -0.00   0.07    -0.04   0.03   0.05
    42   1     0.08  -0.07  -0.00     0.01   0.03  -0.03     0.06   0.07  -0.04
    43   1     0.26  -0.04   0.05    -0.14   0.10  -0.01     0.43  -0.09  -0.07
    44   1     0.07   0.27   0.04    -0.08  -0.02   0.00     0.23   0.19  -0.22
    45   1    -0.10  -0.04   0.02    -0.03   0.11  -0.09     0.12  -0.11   0.00
    46   1     0.02  -0.02   0.05    -0.07  -0.10  -0.01     0.02   0.04  -0.05
    47   1     0.01  -0.13  -0.02    -0.11   0.20   0.17     0.09   0.09  -0.01
    48   1    -0.01  -0.04  -0.07     0.02  -0.05   0.33     0.04   0.05  -0.00
    49   1    -0.03  -0.01  -0.01     0.01  -0.01  -0.07     0.07  -0.01   0.07
    50   1     0.00  -0.05  -0.02     0.13   0.03  -0.01     0.01  -0.06   0.02
    51   1     0.18   0.14   0.11     0.16  -0.12   0.01     0.00  -0.04  -0.02
    52   1     0.10   0.15  -0.08     0.29  -0.13   0.18    -0.01  -0.04   0.01
    53   1     0.15   0.24  -0.11     0.24  -0.23  -0.10    -0.00  -0.03  -0.01
    54   1    -0.02  -0.13   0.09    -0.05  -0.07   0.02    -0.13  -0.14   0.13
    55   1     0.04   0.01   0.18     0.02  -0.01   0.07     0.04  -0.02   0.24
    56   1    -0.04   0.09  -0.01     0.02   0.01   0.00    -0.29   0.03   0.03
    57   1     0.01  -0.02  -0.05     0.01   0.00   0.01    -0.08   0.01  -0.14
    58   1    -0.04   0.09  -0.01     0.03  -0.02  -0.03    -0.02  -0.29   0.04
    59   1    -0.01   0.01  -0.06     0.01  -0.01  -0.02    -0.03  -0.04   0.21
                     22                     23                     24
                      A                      A                      A
 Frequencies --    325.8714               352.5432               365.5913
 Red. masses --      2.5478                 2.6442                 2.3785
 Frc consts  --      0.1594                 0.1936                 0.1873
 IR Inten    --      0.1128                 0.4225                 0.4565
  Atom  AN      X      Y      Z        X      Y      Z        X      Y      Z
     1   6     0.11   0.03   0.01     0.03   0.14  -0.01     0.07  -0.00  -0.01
     2   6     0.05  -0.03   0.03     0.00   0.05  -0.02    -0.03  -0.03   0.11
     3   6    -0.01  -0.04  -0.01     0.16   0.09   0.02     0.01  -0.00  -0.03
     4   6     0.01   0.00   0.02    -0.02  -0.02  -0.03    -0.04  -0.01   0.10
     5   6    -0.03   0.01  -0.02    -0.11  -0.07   0.01     0.02   0.02  -0.00
     6   6    -0.04   0.05  -0.02    -0.15  -0.03   0.00     0.04  -0.04  -0.00
     7   6    -0.02   0.03   0.03    -0.08  -0.00  -0.02    -0.02  -0.05  -0.04
     8   6    -0.02  -0.05   0.03    -0.07   0.00   0.02    -0.01  -0.05  -0.06
     9   6     0.01  -0.11  -0.01    -0.05  -0.02   0.01    -0.08   0.01   0.02
    10   6    -0.01  -0.08   0.06    -0.02  -0.01  -0.01    -0.06   0.09  -0.03
    11   6     0.01  -0.01  -0.03     0.02  -0.01   0.02     0.00   0.06   0.04
    12   6    -0.00  -0.01  -0.05     0.01   0.01   0.03     0.03   0.03   0.03
    13   6     0.05   0.20  -0.04    -0.01  -0.00   0.03     0.01  -0.04   0.03
    14   6    -0.04  -0.07   0.02    -0.02   0.01   0.03     0.04  -0.02  -0.03
    15   6    -0.06  -0.06   0.02     0.02  -0.02  -0.01    -0.02   0.02   0.02
    16   6    -0.03   0.07  -0.07     0.01  -0.06   0.04     0.01   0.05  -0.09
    17   6    -0.01   0.04   0.02    -0.02  -0.03  -0.02    -0.02  -0.01   0.01
    18   6    -0.01   0.02   0.01     0.05   0.01  -0.01    -0.06   0.06   0.02
    19   6     0.01  -0.04   0.07     0.04  -0.04  -0.01     0.03  -0.00  -0.01
    20   6     0.02   0.01  -0.00     0.07  -0.03  -0.04    -0.00  -0.04  -0.05
    21   6     0.01   0.00  -0.04     0.05  -0.01  -0.01     0.04  -0.04   0.03
    22   8    -0.00   0.02   0.01     0.01  -0.03   0.01     0.01  -0.08   0.01
    23   6     0.01  -0.00  -0.05     0.04   0.04  -0.03     0.05   0.06  -0.00
    24   1     0.11  -0.06   0.02    -0.04   0.03  -0.00     0.19  -0.10   0.01
    25   1     0.04   0.14   0.03    -0.04   0.30   0.08    -0.01   0.10  -0.08
    26   1     0.21   0.06  -0.07     0.19   0.18  -0.09     0.14   0.03  -0.13
    27   1     0.05  -0.05   0.03     0.02   0.08  -0.02    -0.09  -0.07   0.11
    28   1    -0.01   0.00   0.05     0.29  -0.08   0.19     0.04  -0.07  -0.04
    29   1    -0.10  -0.03  -0.03     0.06   0.09  -0.00    -0.06   0.14  -0.08
    30   1     0.02  -0.09  -0.07     0.34   0.27  -0.08     0.07  -0.06  -0.14
    31   1     0.02  -0.01   0.02    -0.02  -0.02  -0.04    -0.11  -0.05   0.10
    32   1    -0.04   0.01  -0.03    -0.10  -0.16   0.03    -0.03   0.15  -0.07
    33   1    -0.03  -0.03  -0.03    -0.17  -0.06   0.04     0.10  -0.03  -0.08
    34   1    -0.05   0.01  -0.07    -0.18  -0.02   0.02     0.05  -0.02   0.03
    35   1    -0.07   0.11  -0.04    -0.16  -0.04   0.00     0.07  -0.08   0.01
    36   1    -0.01   0.03   0.03    -0.06   0.02  -0.02    -0.06  -0.07  -0.04
    37   1    -0.02  -0.04   0.03    -0.10   0.01   0.02    -0.03  -0.09  -0.06
    38   1     0.08  -0.19  -0.02    -0.07  -0.02   0.02    -0.14   0.11   0.04
    39   1    -0.01  -0.07  -0.11    -0.02  -0.00   0.02    -0.11  -0.06   0.13
    40   1    -0.06  -0.17   0.07    -0.01   0.03  -0.02    -0.03   0.20  -0.03
    41   1    -0.02  -0.02   0.16    -0.06  -0.01  -0.05    -0.12   0.08  -0.12
    42   1     0.06   0.06  -0.03     0.01  -0.03   0.02    -0.00   0.04   0.04
    43   1     0.17   0.20   0.11    -0.05   0.01   0.03    -0.03  -0.04  -0.03
    44   1     0.05   0.38  -0.05    -0.02  -0.04   0.05     0.00  -0.09   0.04
    45   1    -0.04   0.22  -0.16     0.00   0.01   0.02     0.02  -0.05   0.06
    46   1    -0.09  -0.07   0.02    -0.01   0.03   0.03     0.08  -0.07  -0.03
    47   1    -0.11  -0.07   0.03     0.07  -0.07  -0.02    -0.13   0.13   0.04
    48   1    -0.09  -0.08   0.03     0.03   0.02  -0.06    -0.02  -0.05   0.15
    49   1    -0.12   0.05  -0.24     0.05  -0.04   0.13     0.00  -0.01  -0.28
    50   1     0.05   0.23  -0.07    -0.03  -0.16   0.04     0.09   0.23  -0.09
    51   1    -0.03   0.03   0.01     0.11  -0.01   0.05    -0.14   0.11   0.05
    52   1     0.01   0.03   0.02     0.05  -0.00   0.00    -0.02   0.12  -0.07
    53   1    -0.01  -0.00   0.02     0.09   0.06  -0.08    -0.09   0.02   0.07
    54   1    -0.05  -0.14   0.08     0.07  -0.06  -0.02     0.08  -0.02  -0.01
    55   1     0.03  -0.01   0.18     0.04  -0.03   0.00     0.07  -0.03  -0.02
    56   1     0.03   0.07   0.00     0.07  -0.03  -0.03    -0.14  -0.08  -0.04
    57   1     0.02  -0.01   0.01     0.07  -0.01  -0.03     0.03   0.02  -0.17
    58   1     0.00   0.02  -0.05     0.06   0.13  -0.03     0.12   0.16  -0.01
    59   1     0.01  -0.01  -0.07     0.02   0.01  -0.11    -0.04   0.05  -0.11
                     25                     26                     27
                      A                      A                      A
 Frequencies --    375.1034               387.9977               413.5108
 Red. masses --      2.6422                 2.5069                 2.7954
 Frc consts  --      0.2190                 0.2224                 0.2816
 IR Inten    --      0.4893                 0.5116                 0.0107
  Atom  AN      X      Y      Z        X      Y      Z        X      Y      Z
     1   6    -0.10  -0.00   0.01    -0.05   0.04  -0.02     0.02   0.02   0.01
     2   6    -0.00   0.02  -0.11    -0.07   0.02   0.02     0.03  -0.01  -0.03
     3   6    -0.02   0.00   0.02     0.05   0.05  -0.00     0.01  -0.03   0.01
     4   6     0.05  -0.01  -0.07    -0.02  -0.06   0.04    -0.00   0.02  -0.03
     5   6     0.02  -0.04   0.00    -0.00  -0.07   0.01    -0.04   0.02  -0.01
     6   6     0.00   0.02   0.00    -0.01  -0.05  -0.00    -0.03   0.03  -0.00
     7   6     0.02  -0.00   0.11    -0.00  -0.04   0.02    -0.01   0.01   0.03
     8   6     0.01  -0.02   0.10     0.02  -0.03  -0.00     0.00  -0.08   0.02
     9   6    -0.07  -0.05  -0.03     0.03  -0.04   0.01     0.03  -0.09   0.03
    10   6    -0.09   0.04   0.03     0.03  -0.08  -0.00     0.04   0.08  -0.01
    11   6    -0.03   0.07  -0.00     0.04  -0.04  -0.04     0.10   0.11   0.00
    12   6     0.01   0.03  -0.05     0.01  -0.01  -0.02     0.00   0.06  -0.07
    13   6    -0.08   0.01  -0.06    -0.02  -0.02  -0.02    -0.00  -0.09  -0.10
    14   6     0.02   0.00   0.02     0.04   0.02  -0.03    -0.03  -0.06  -0.03
    15   6     0.06  -0.01   0.01     0.07   0.04   0.00    -0.07  -0.06   0.04
    16   6     0.09   0.05  -0.04     0.11   0.05  -0.08    -0.07  -0.01   0.01
    17   6     0.03  -0.01   0.03     0.01  -0.05   0.04    -0.03   0.02  -0.01
    18   6     0.03   0.07   0.04    -0.04   0.09   0.05     0.05  -0.02  -0.00
    19   6    -0.02  -0.01  -0.01     0.02   0.04   0.00     0.13   0.09   0.01
    20   6    -0.04  -0.04  -0.02     0.00   0.04   0.03    -0.00   0.01  -0.00
    21   6     0.05  -0.07   0.05    -0.07   0.06  -0.04    -0.04   0.04   0.06
    22   8     0.06  -0.08   0.01    -0.07   0.07  -0.02    -0.05  -0.01  -0.02
    23   6     0.05   0.01  -0.04    -0.06  -0.06   0.05    -0.03  -0.00   0.12
    24   1    -0.22   0.09  -0.02    -0.05   0.00  -0.02    -0.02   0.04   0.00
    25   1    -0.02  -0.09   0.07    -0.08   0.09  -0.01     0.01   0.05   0.03
    26   1    -0.17  -0.03   0.12    -0.01   0.06  -0.06     0.07   0.02   0.03
    27   1     0.04   0.06  -0.11    -0.11   0.01   0.02     0.05  -0.01  -0.03
    28   1    -0.04   0.04  -0.01     0.13  -0.10  -0.00     0.01   0.00   0.06
    29   1     0.08  -0.12   0.08     0.08   0.11  -0.01    -0.02  -0.09   0.02
    30   1    -0.08   0.07   0.15     0.13   0.15  -0.03     0.01  -0.01   0.02
    31   1     0.12   0.01  -0.06    -0.02  -0.09   0.05     0.02   0.04  -0.03
    32   1     0.05  -0.13   0.05    -0.01  -0.05  -0.00    -0.03  -0.01   0.00
    33   1    -0.05   0.00   0.06    -0.00  -0.09  -0.01    -0.05   0.03   0.00
    34   1     0.01  -0.05  -0.10    -0.02  -0.07  -0.03    -0.03   0.01  -0.03
    35   1    -0.04   0.15  -0.03    -0.02  -0.01  -0.01    -0.06   0.07  -0.01
    36   1     0.07   0.01   0.11    -0.02  -0.06   0.02     0.00   0.03   0.02
    37   1     0.07   0.01   0.09     0.04  -0.05  -0.00     0.03  -0.13   0.02
    38   1    -0.03  -0.22  -0.05     0.02  -0.03   0.01     0.04  -0.15   0.02
    39   1    -0.13  -0.01  -0.18     0.06  -0.03   0.02    -0.04  -0.10  -0.03
    40   1    -0.15   0.02   0.04     0.03  -0.15  -0.00     0.09   0.15  -0.02
    41   1    -0.11   0.08   0.07     0.03  -0.06   0.06    -0.08   0.12  -0.09
    42   1    -0.03   0.12  -0.00     0.06  -0.05  -0.04     0.15   0.15  -0.01
    43   1    -0.16   0.03  -0.10    -0.03  -0.03  -0.05    -0.00  -0.14  -0.24
    44   1    -0.11  -0.05   0.03    -0.03  -0.03   0.00     0.00  -0.15  -0.12
    45   1    -0.09   0.02  -0.08    -0.04  -0.04  -0.01     0.02  -0.17   0.03
    46   1    -0.07   0.04   0.02     0.04   0.02  -0.03    -0.09  -0.09  -0.04
    47   1     0.03  -0.04   0.01     0.00   0.11   0.02    -0.11   0.02   0.06
    48   1     0.06   0.00  -0.01     0.09   0.01   0.08    -0.10  -0.12   0.12
    49   1     0.05   0.01  -0.22     0.12  -0.04  -0.34    -0.12   0.02   0.03
    50   1     0.16   0.22  -0.04     0.20   0.29  -0.08    -0.06  -0.04   0.01
    51   1     0.04   0.09   0.14    -0.11   0.15   0.14     0.09  -0.04   0.01
    52   1     0.04   0.11  -0.02    -0.03   0.17  -0.10     0.08  -0.04   0.06
    53   1     0.04   0.12   0.03    -0.07   0.11   0.11     0.09  -0.02  -0.08
    54   1    -0.02  -0.04  -0.01    -0.01   0.07   0.01     0.17   0.13  -0.00
    55   1     0.04  -0.03   0.00    -0.01   0.05  -0.01     0.15   0.05  -0.06
    56   1    -0.17  -0.09  -0.02     0.12   0.08   0.03    -0.13  -0.02   0.00
    57   1    -0.01   0.04  -0.14    -0.03  -0.06   0.14     0.03  -0.06  -0.13
    58   1     0.16   0.07  -0.06    -0.19  -0.26   0.07    -0.06  -0.30   0.11
    59   1    -0.05   0.02  -0.11     0.06  -0.02   0.26     0.01   0.08   0.37
                     28                     29                     30
                      A                      A                      A
 Frequencies --    427.8939               432.5975               444.4099
 Red. masses --      2.6193                 3.2826                 2.8376
 Frc consts  --      0.2826                 0.3619                 0.3302
 IR Inten    --      0.3804                 0.6525                 1.4114
  Atom  AN      X      Y      Z        X      Y      Z        X      Y      Z
     1   6     0.07  -0.08   0.00     0.01   0.01  -0.01     0.02   0.01   0.01
     2   6     0.01   0.05   0.15    -0.05  -0.00   0.08     0.02  -0.04  -0.05
[...]
 -0.00000048,-0.00000014,0.00000793,0.00000043,0.00000013,-0.00000216,0
 .00000073,-0.00000343,-0.00000392,0.00000130,0.00000015,0.00000025,0.0
 0000104,-0.00000234,0.00001104,-0.00000416,-0.00000520,0.00000479,0.00
 000470,0.00001865,0.00000079,-0.00000455,-0.00000057,-0.00000399,0.000
 00380,-0.00000262,-0.00000056,-0.00000148,0.00000780,0.00000675,-0.000
 01030,0.00000810,0.00000618,0.00003041,-0.00013893,0.00018867,0.000008
 53,-0.00004214,0.00000642,-0.00013167,0.00002775,-0.00002105,0.0000724
 2,0.00032165,-0.00044385,-0.00001376,0.00005060,0.00004043,-0.00006600
 ,-0.00001678,-0.00000661,-0.00001277,-0.00001067,-0.00002352,0.0000510
 3,0.00000003,-0.00001274,-0.00001377,0.00000573,0.00001030,-0.00000720
 ,0.00003973,0.00004212,0.00005216,-0.00000009,0.00002090,0.00000233,-0
 .00000219,-0.00000469,-0.00000057,0.00000434,0.00001114,-0.00000288,-0
 .00000248,-0.00000303,0.00000046,-0.00000871,-0.00000310,0.00000536,0.
 00129101,-0.00028186,0.00005251,0.00008437,-0.00032323,0.00052812,-0.0
 0808979,0.01037305,0.00150222,0.16249284,-0.00000348,-0.00000392,0.000
 00365,0.00000513,0.00000863,-0.00000648,-0.00000351,-0.00000242,0.0000
 0384,-0.00000108,0.00001023,0.00001960,0.00000794,-0.00000307,0.000000
 32,-0.00000110,-0.00001649,-0.00001328,0.00001538,0.00002255,0.0000410
 2,-0.00001077,-0.00006864,-0.00006564,-0.00002469,0.00000790,0.0000167
 5,-0.00013596,0.00011671,-0.00018014,-0.00050943,0.00087416,-0.0001633
 1,-0.00049059,0.00021247,-0.00048756,0.00016774,-0.00008916,-0.0000082
 1,0.00007172,0.00004441,0.00015006,-0.00000531,-0.00002940,-0.00009984
 ,0.00000502,0.00004400,0.00005398,0.00000164,-0.00001721,-0.00002994,0
 .00000432,0.00000510,0.00000395,-0.00145873,0.00220979,0.00114644,0.12
 641284,-0.20952879,-0.02826833,0.02215715,-0.02636870,-0.00472759,-0.0
 0000651,0.00598758,0.00083303,-0.00498624,-0.00315145,0.00072995,-0.00
 000003,0.00000109,-0.00000143,0.00000146,-0.00000700,-0.00000050,0.000
 00082,0.00000259,0.00000018,-0.00000024,-0.00000096,0.00000163,0.00000
 296,-0.00000857,0.00000086,-0.00000178,0.00000330,0.00000198,0.0000069
 2,0.00000490,-0.00000505,-0.00000173,0.00000008,0.00000030,0.00000310,
 -0.00000604,0.00000457,0.00000866,-0.00000160,-0.00000143,0.00000655,0
 .00000212,0.00000061,-0.00000022,-0.00000037,0.00000376,-0.00000271,-0
 .00000061,-0.00000093,0.00000448,0.00000289,0.00001477,0.00000115,0.00
 000107,-0.00000794,0.00000918,0.00001275,-0.00000112,0.00000756,-0.000
 01244,0.00001768,0.00003556,0.00002522,0.00002726,-0.00000491,-0.00005
 425,-0.00006040,-0.00000679,0.00003465,-0.00003393,-0.00002936,0.00001
 220,0.00001477,-0.00001514,0.00001785,0.00008803,-0.00001493,0.0000008
 1,-0.00000203,-0.00000892,-0.00000234,0.00001065,0.00005523,0.00006237
 ,0.00008381,-0.00000095,-0.00001461,0.00000127,0.00000758,-0.00000129,
 -0.00000478,-0.00000345,-0.00000487,-0.00000065,0.00000711,-0.00000273
 ,0.00000773,0.00000324,-0.00000174,-0.00001290,0.00007677,0.00027025,0
 .00039555,0.00027234,0.00022051,0.00040742,-0.00302107,0.00365416,-0.0
 0008292,-0.13937198,0.22657855,0.00000136,0.00000255,-0.00000208,-0.00
 000347,-0.00000342,0.00000446,-0.00000105,0.00000229,-0.00000235,0.000
 00498,0.00001097,-0.00000460,0.00000757,-0.00000574,-0.00000139,-0.000
 00376,0.00000274,0.00000775,0.00004339,0.00001241,-0.00000675,-0.00004
 322,-0.00010482,0.00002156,-0.00030611,-0.00015663,-0.00044858,-0.0005
 9813,0.00140019,0.00065485,-0.00287702,-0.00172165,-0.00362497,-0.0002
 1762,-0.00059202,-0.00005069,0.00001708,0.00009994,0.00006593,0.000131
 22,0.00007382,0.00001725,-0.00004219,0.00001125,0.00000148,0.00001568,
 0.00001753,-0.00000499,-0.00001890,-0.00000361,0.00000388,0.00000407,0
 .00000574,0.00000357,-0.01411357,0.02027790,0.00333229,0.02190885,-0.0
 2850123,-0.05506781,0.00071130,0.00266649,-0.00063625,-0.00078506,-0.0
 0026204,-0.00116287,0.00009435,-0.00026067,0.00124055,-0.00000021,-0.0
 0000049,0.00000060,-0.00000068,0.00000291,0.00000037,0.00000151,-0.000
 00118,0.00000060,0.00000029,0.00000053,-0.00000015,0.00000044,0.000002
 78,0.00000066,-0.00000020,-0.00000049,0.00000080,-0.00000031,-0.000001
 51,-0.00000003,0.00000018,0.00000026,0.00000140,-0.00000108,0.00000557
 ,-0.00000125,-0.00000173,0.00000256,0.00000194,0.00001521,0.00000109,-
 0.00000465,-0.00000045,-0.00000375,0.00000405,-0.00000285,-0.00000066,
 0.00000097,0.00000738,0.00000746,-0.00000754,0.00000188,-0.00000482,0.
 00002062,-0.00013181,0.00017672,0.00000010,0.00008188,-0.00000421,-0.0
 0003611,0.00002578,-0.00002127,0.00003817,-0.00023422,0.00008233,0.000
 33051,0.00003437,0.00001608,-0.00004462,-0.00000473,-0.00001238,-0.000
 01746,0.00000501,-0.00002028,0.00003873,-0.00000523,-0.00000967,0.0000
 0429,0.00000192,0.00000558,-0.00000522,0.00002094,0.00001852,0.0000171
 6,0.00000014,0.00000979,0.00000308,-0.00000121,-0.00000168,0.00000115,
 0.00000193,0.00000571,-0.00000168,-0.00000015,-0.00000225,0.00000176,-
 0.00000407,-0.00000284,0.00000112,0.00084067,0.00033488,0.00090883,0.0
 0049523,-0.00041230,0.00053539,0.01741072,-0.02371586,-0.00322647,-0.0
 2219053,0.03024074,0.05649384,-0.00000366,-0.00000591,0.00000566,0.000
 00856,0.00000980,-0.00000693,-0.00000303,-0.00000475,0.00000877,-0.000
 00782,-0.00000624,0.00001534,0.00001311,0.00000587,0.00001288,0.000000
 23,-0.00005804,-0.00002991,0.00007304,0.00010297,0.00013722,0.00018613
 ,-0.00039664,-0.00013204,-0.00001870,-0.00001916,0.00000274,0.00014329
 ,0.00032189,-0.00004474,0.00106729,0.00024385,-0.00043993,0.00879233,-
 0.00204152,-0.02034750,-0.00272046,0.00000660,-0.00274064,0.00131639,0
 .00019110,-0.00101214,0.00013952,0.00007583,0.00019929,-0.00004039,0.0
 0001740,0.00000404,0.00001681,0.00002391,-0.00001131,-0.00000336,-0.00
 000795,-0.00000326,-0.00010126,-0.00023755,-0.00002456,0.00034648,-0.0
 0018808,-0.00102762,-0.01166277,-0.00064141,0.01663366,-0.00107480,0.0
 0398748,-0.00302051,-0.09978930,0.00548282,0.10935435,0.00000089,0.000
 00144,-0.00000253,0.00000172,-0.00000679,-0.00000060,-0.00000228,0.000
 00242,-0.00000112,-0.00000134,-0.00000175,-0.00000105,0.00000088,-0.00
 000709,-0.00000084,0.00000161,0.00000229,-0.00000291,0.00000450,0.0000
 0388,-0.00000141,-0.00000061,0.00000075,-0.00000240,0.00000378,-0.0000
 1250,0.00000225,0.00000658,-0.00000650,-0.00000345,0.00000243,0.000001
 28,0.00000048,0.00000212,-0.00000144,0.00000437,-0.00001933,0.00001520
 ,0.00000681,0.00004948,-0.00002245,0.00002588,-0.00001858,0.00000184,-
 0.00000201,0.00001805,0.00000723,0.00001126,0.00003540,0.00002823,0.00
 000688,0.00007111,0.00001582,0.00007526,-0.00022177,-0.00008202,0.0001
 0121,-0.00004176,0.00019108,-0.00006854,-0.00013889,-0.00010644,0.0000
 5608,0.00046012,0.00018643,-0.00123715,-0.00024627,-0.00004638,0.00032
 002,-0.00010500,-0.00010029,-0.00006346,-0.00014601,-0.00002893,0.0000
 2237,-0.00000046,-0.00002637,0.00000615,0.00002969,0.00000461,-0.00000
 582,-0.00000691,-0.00000549,0.00000482,0.00000515,0.00000127,0.0000004
 3,0.00000524,-0.00000429,-0.00000839,-0.00010155,0.00003660,-0.0000340
 3,-0.00000695,-0.00000674,-0.00000983,0.00056863,0.00038519,-0.0003033
 7,-0.00008812,-0.00009252,-0.00033724,0.11212905,0.00000123,0.00000093
 ,-0.00000042,-0.00000064,-0.00000287,0.00000238,0.00000102,0.00000100,
 0.00000236,-0.00000119,-0.00001516,-0.00001085,-0.00000651,0.00000647,
 0.00000247,0.00000270,0.00000309,-0.00000429,-0.00002003,-0.00001417,0
 .00000741,-0.00004089,-0.00003858,-0.00005730,-0.00002727,0.00005568,-
 0.00002414,-0.00003459,0.00000844,0.00012103,0.00021730,-0.00002418,-0
 .00118867,-0.00121256,-0.00029840,0.00126439,0.00061413,0.00009367,0.0
 0071878,-0.00021597,0.00018433,0.00130790,0.00012367,0.00004370,0.0001
 5285,-0.00000532,-0.00003169,-0.00006817,0.00001738,0.00002456,0.00001
 997,-0.00002378,0.00000081,-0.00000325,0.00039240,0.00020651,0.0001220
 6,-0.00147166,-0.00036548,0.00325179,0.01335373,0.00224986,-0.02838167
 ,0.00278052,-0.00296179,0.00358207,0.00721475,-0.05234172,-0.02001236,
 0.00000095,-0.00000036,-0.00000041,-0.00000054,0.00000217,0.00000015,-
 0.00000206,-0.00000083,-0.00000089,-0.00000109,0.00000104,-0.00000346,
 -0.00000265,0.00000379,-0.00000165,0.00000312,-0.00000249,-0.00000455,
 -0.00000365,-0.00000275,0.00000455,0.00000435,-0.00000142,-0.00000414,
 -0.00000194,0.00000010,-0.00000284,-0.00000471,-0.00000151,-0.00000122
 ,-0.00001019,-0.00000240,0.00000057,-0.00000375,0.00000215,-0.00000765
 ,0.00002053,-0.00000513,-0.00001191,-0.00004074,0.00000538,-0.00001489
 ,-0.00000220,0.00000437,-0.00000066,-0.00000171,-0.00002650,0.00000730
 ,0.00002894,-0.00001938,0.00001449,0.00002249,-0.00000717,-0.00001345,
 -0.00038608,-0.00001585,-0.00004777,0.00021786,0.00023058,-0.00035014,
 -0.00017590,0.00009781,0.00016877,-0.00000713,0.00045392,0.00031428,0.
 00031816,0.00013080,-0.00002513,-0.00003570,0.00013014,-0.00018222,-0.
 00026660,-0.00008578,-0.00000748,-0.00000165,0.00000903,-0.00000675,0.
 00004485,-0.00003267,-0.00002424,0.00000110,0.00000004,0.00000155,-0.0
 0000209,0.00000309,-0.00001086,0.00000279,0.00000102,0.00000460,-0.000
 01741,0.00008640,0.00002237,0.00004859,-0.00002810,0.00000155,-0.00035
 421,-0.00157868,-0.00001478,0.00010222,0.00046125,0.00039451,-0.010076
 97,0.05031877,-0.00000085,-0.00000221,0.00000038,0.00000296,0.00000432
 ,-0.00000561,0.00000183,-0.00000245,-0.00000210,-0.00000226,0.00000254
 ,0.00000722,0.00000772,0.00000281,-0.00000204,0.00000835,-0.00000630,-
 0.00001566,-0.00001548,0.00000489,0.00004981,-0.00029089,-0.00020040,0
 .00023379,0.00005110,-0.00000799,-0.00002323,-0.00033647,0.00009743,0.
 00023373,0.00184157,0.00070346,0.00011395,0.01056593,-0.00102168,-0.02
 465487,-0.00563215,-0.00003030,-0.00316768,0.00207303,-0.00092515,0.00
 044014,-0.00016078,0.00035640,0.00000529,0.00001530,0.00002653,0.00002
 785,-0.00000372,0.00000681,-0.00000915,0.00002940,-0.00002563,-0.00000
 568,-0.00031744,-0.00014616,-0.00008971,0.00050432,0.00015169,-0.00059
 142,0.00068624,0.00048897,0.00062595,-0.00059033,-0.00059502,-0.000855
 77,0.10550739,-0.01523842,-0.23482018,-0.00000096,0.00000105,0.0000017
 2,0.00000045,-0.00000341,-0.00000010,-0.00000013,0.00000143,-0.0000003
 2,0.00000101,-0.00000273,0.00000531,0.00000112,-0.00000420,0.00000076,
 -0.00000216,0.00000216,0.00000419,0.00000018,0.00000309,-0.00000305,-0
 .00000629,0.00000326,0.00000733,0.00000310,-0.00000536,0.00000441,0.00
 000168,-0.00000229,0.00000005,0.00000110,-0.00000194,0.00000123,0.0000
 0178,-0.00000070,0.00000567,-0.00003758,0.00001849,0.00002354,0.000185
 77,-0.00006534,0.00027492,-0.00006392,0.00000588,0.00002016,0.00001271
 ,0.00000337,0.00001253,0.00017305,0.00006711,0.00026722,-0.00004765,0.
 00000203,0.00002487,-0.00077835,-0.00052896,0.00081523,-0.00004799,0.0
 0002235,0.00036173,0.00002053,-0.00009975,0.00041081,0.00089195,0.0000
 8472,-0.00168487,-0.00100636,0.00049330,0.00076007,-0.00000336,-0.0002
 2366,0.00017702,0.00013591,0.00017155,-0.00013673,-0.00000645,-0.00000
 078,0.00000572,-0.00004497,0.00004082,0.00003120,-0.00000549,-0.000002
 89,0.00000243,0.00000021,0.00000206,0.00000726,-0.00000111,0.00000322,
 -0.00000394,-0.00001463,0.00016523,0.00015683,-0.00000336,-0.00003879,
 0.00001526,-0.00025941,0.00001319,0.00050821,-0.00004200,-0.00015964,0
 .00022284,-0.11373464,0.01621031,0.26168156,-0.00000611,-0.00000292,0.
 00000466,0.00000460,0.00001234,-0.00000902,-0.00001534,-0.00000114,0.0
 0000495,0.00003553,0.00008552,0.00009867,0.00002880,-0.00004344,-0.000
 02562,-0.00000319,0.00003622,0.00000526,-0.00000596,-0.00007322,-0.000
 02216,-0.00000693,0.00024948,-0.00009376,0.00023574,-0.00018294,0.0000
 8349,-0.00007488,-0.00147297,0.00048948,-0.00259355,0.00175086,-0.0040
 0806,-0.01308716,-0.01602107,0.00275286,0.00061237,-0.00002921,0.00146
 897,0.00023018,-0.00107355,0.00030581,-0.00058031,-0.00028932,-0.00095
 844,0.00030635,0.00041435,0.00047853,-0.00001077,-0.00024162,-0.000174
 55,0.00005596,0.00004089,0.00002729,-0.00033373,0.00020845,-0.00003127
 ,-0.00195089,0.00262898,0.00032744,0.01082212,0.01580186,-0.00163453,0
 .00188914,-0.00100796,0.00000375,-0.16065945,-0.13487689,0.01369781,-0
 .00000085,0.00000044,-0.00000218,0.00000284,-0.00000684,-0.00000078,0.
 00000833,0.00000193,0.00000277,0.00000086,-0.00000015,0.00000424,0.000
 01111,-0.00001264,0.00000429,-0.00000622,0.00000745,0.00000888,0.00001
 820,0.00000933,-0.00001595,-0.00000677,0.00000095,-0.00000006,0.000004
 74,0.00001174,0.00000803,0.00002329,0.00001191,0.00000891,0.00004186,0
 .00000854,0.00000112,-0.00000168,-0.00000491,0.00001135,-0.00000407,-0
 .00000491,-0.00001040,-0.00001041,-0.00000748,-0.00002732,0.00000518,0
 .00002635,0.00002121,-0.00001205,0.00010551,-0.00001186,-0.00006824,0.
 00000218,-0.00016006,-0.00044675,-0.00003276,-0.00036314,0.00032186,0.
 00037333,-0.00008758,0.00060011,0.00036267,-0.00058297,0.00003282,0.00
 004612,-0.00009627,0.00007710,0.00032492,0.00015544,-0.00000388,0.0000
 4155,-0.00012562,0.00002751,0.00009786,0.00001340,0.00013292,0.0013655
 6,0.00067091,-0.00003060,0.00002221,0.00000171,0.00004148,-0.00003799,
 -0.00005112,-0.00000209,0.00001336,-0.00001190,0.00002010,-0.00002094,
 0.00003444,-0.00001329,-0.00002044,-0.00003632,0.00007969,-0.00006335,
 -0.00002152,0.00004824,-0.00012731,0.00001004,-0.00007368,-0.00004169,
 -0.00003859,0.00055480,0.00085458,0.00004146,-0.00892822,-0.01107539,0
 .00073151,0.17266324,0.00000024,0.00000119,-0.00000112,-0.00000242,-0.
 00000060,0.00000203,-0.00000069,0.00000270,-0.00000124,0.00001340,0.00
 001446,0.00001121,0.00000440,-0.00000812,-0.00000596,-0.00000639,0.000
 01748,0.00001021,-0.00001734,-0.00001845,-0.00004722,-0.00006742,0.000
 01532,0.00013930,-0.00003049,-0.00003514,-0.00005821,0.00017956,0.0001
 8678,0.00020947,0.00067154,0.00082067,0.00005202,0.00055546,0.00181515
 ,-0.00108707,0.00023979,0.00022955,0.00025519,-0.00007566,0.00004208,-
 0.00052513,0.00070809,-0.00137721,-0.00019245,0.00018880,0.00012476,0.
 00015779,0.00003057,-0.00005684,-0.00001179,0.00000352,0.00000606,-0.0
 0000486,0.00039031,0.00035019,0.00040497,0.00497602,-0.00328453,-0.000
 66431,-0.02262266,-0.02778003,0.00314086,-0.00010236,0.00610678,-0.000
 53129,-0.13089179,-0.20215282,0.01607046,-0.00000015,-0.00000045,-0.00
 000006,-0.00000016,0.00000147,0.00000007,0.00000177,-0.00000051,0.0000
 0080,0.00000014,0.00000060,-0.00000034,-0.00000011,0.00000161,0.000000
 36,-0.00000011,-0.00000023,0.00000041,0.00000055,-0.00000062,0.0000000
 2,-0.00000001,0.00000007,-0.00000042,-0.00000032,0.00000508,-0.0000000
 3,0.00000229,0.00000307,0.00000230,0.00000718,0.00000142,-0.00000145,0
 .,-0.00000145,0.00000069,0.00000069,-0.00000212,-0.00000315,-0.0000035
 7,0.00000621,-0.00002141,0.00000053,0.00000186,0.00000201,-0.00002776,
 0.00001598,-0.00000663,-0.00003838,-0.00001772,-0.00005073,0.00007461,
 0.00000051,-0.00001601,0.00001809,0.00000690,0.00010851,0.00008384,0.0
 0034671,-0.00037937,-0.00011040,-0.00016173,-0.00005927,0.00023550,0.0
 0015112,-0.00002142,0.00007523,-0.00003826,0.00000967,-0.00008959,0.00
 000642,0.00000205,0.00183143,-0.00171166,0.00080167,-0.00001860,0.0000
 2934,0.00000845,0.00000019,0.00000097,-0.00000226,0.00000079,0.0000040
 9,-0.00000121,0.00000025,-0.00000127,0.00000322,-0.00000486,-0.0000027
 1,0.00000212,-0.00003344,-0.00002777,-0.00010814,-0.00008797,0.0000113
 0,-0.00008245,0.00009925,0.00038891,0.00015628,-0.00090410,-0.00151351
 ,-0.00006438,0.00288715,0.00308416,0.00018171,0.14185559,0.22439276,-0
 .00000029,0.00000124,-0.00000099,-0.00000161,0.00000145,0.00000470,-0.
 00000363,0.00000037,0.00000148,0.00000328,0.00001130,-0.00000714,0.000
 00535,-0.00000702,-0.00000034,-0.00001017,-0.00000042,0.00000659,0.000
 04232,0.00000958,-0.00000893,-0.00003270,-0.00007938,0.00003861,0.0001
 5579,-0.00009238,-0.00002892,-0.00067866,-0.00137997,0.00082348,-0.002
 55450,0.00136137,-0.00407881,-0.01433729,-0.01914907,0.00153829,-0.000
 67682,-0.00115440,0.00136714,0.00077864,-0.00016743,0.00032879,0.00007
 803,0.00031996,0.00050115,-0.00000657,0.00006899,-0.00012017,-0.000009
 34,0.00000839,0.00001455,-0.00000851,0.00001809,0.00001528,-0.00012893
 ,0.00043352,-0.00007669,-0.00006072,0.00031750,0.00123552,0.00028476,-
 0.00220954,-0.00041786,-0.00057071,0.00027067,-0.00116231,0.01366435,0
 .01593587,-0.05237941,0.00000072,0.00000001,-0.00000060,-0.00000005,0.
 00000073,0.00000052,0.00000036,-0.00000045,0.00000007,-0.00000138,0.00
 000030,-0.00000268,0.00000057,0.00000042,0.00000016,0.00000238,0.00000
 010,-0.00000222,0.00000153,-0.00000021,0.00000190,0.00000196,-0.000000
 47,-0.00000040,-0.00000008,0.00000362,-0.00000015,0.00000079,0.0000000
 1,0.00000022,0.00000955,0.00000045,-0.00000394,-0.00000059,-0.00000260
 ,0.00000066,-0.00000049,-0.00000164,-0.00000268,0.00001346,0.00000673,
 -0.00001001,-0.00002025,0.00001494,0.00001330,-0.00002240,0.00004600,0
 .00000369,0.00011163,0.00001266,0.00000563,-0.00050056,-0.00005384,-0.
 00035454,-0.00024785,-0.00001867,0.00037040,0.00013920,0.00044230,-0.0
 0048931,0.00009201,-0.00007995,-0.00012803,0.00018610,0.00017952,0.000
 32287,-0.00004869,0.00006956,0.00005813,-0.00004564,0.00012992,-0.0001
 9419,-0.00028101,0.00022834,0.00012968,-0.00000464,0.00000108,0.000009
 22,0.00004953,-0.00003357,-0.00001772,0.00000066,0.00000468,-0.0000014
 2,0.00000445,-0.00000427,-0.00000139,-0.00000003,-0.00001095,-0.000006
 41,0.00003038,-0.00005177,-0.00001234,0.00007780,-0.00006789,0.0000545
 4,-0.00032759,-0.00043691,0.00022533,0.00008006,0.00009981,0.00037593,
 0.01764368,0.02278778,-0.00147605,-0.01287765,-0.01778448,0.05353785\\
 -0.00005449,0.00003594,0.00002379,0.00002561,-0.00001407,-0.00001918,0
 .00002182,0.00003875,0.00000226,-0.00000106,0.00001575,0.00003308,-0.0
 0001711,0.00000743,-0.00000468,-0.00000722,-0.00002236,-0.00000308,0.0
 0002787,0.00001881,-0.00000981,0.00001050,0.00000830,-0.00001312,-0.00
 002364,0.00000269,0.00001069,-0.00001410,0.00000556,-0.00003094,-0.000
 02232,0.00001279,0.00000621,0.00003023,-0.00003591,0.00002587,0.000007
 45,-0.00001130,0.00000109,0.00002907,0.00000177,0.00001798,-0.00000404
 ,-0.00003078,-0.00002583,-0.00002760,0.00000273,0.00000466,-0.00002875
 ,-0.00001516,-0.00002451,-0.00000179,-0.00000292,0.00001460,0.00003076
 ,-0.00003910,0.00000401,-0.00004244,0.00000040,-0.00006502,-0.00002133
 ,0.00000097,0.00002261,0.00006068,-0.00000894,0.00002619,-0.00002483,-
 0.00003134,-0.00005074,0.00000170,0.00000256,-0.00002389,-0.00000431,-
 0.00002366,0.00000686,0.00002469,0.00001625,0.00001873,-0.00000483,-0.
 00000185,0.00000241,-0.00000061,-0.00000510,-0.00000559,-0.00000777,0.
 00000417,-0.00000609,-0.00001167,-0.00001894,-0.00000541,0.00000523,0.
 00001650,-0.00000437,0.00000081,-0.00000853,-0.00000236,0.00000825,-0.
 00000687,0.00000216,0.00000878,0.00000445,0.00000222,0.00000575,0.0000
 0826,-0.00000061,-0.00000464,0.00000542,-0.00000109,-0.00001083,0.0000
 2512,-0.00000449,-0.00000006,0.00000923,-0.00000051,0.00000630,-0.0000
 1000,0.00000457,-0.00000377,0.00000770,0.00000923,0.00000132,-0.000002
 03,0.00000579,0.00000761,-0.00000027,0.00000066,0.00000266,0.00001146,
 0.00000490,0.00001179,0.00000136,0.00000716,0.00002265,0.00000185,0.00
 000934,-0.00000225,-0.00000303,0.00000414,-0.00001461,0.00000134,0.000
 01907,0.00000196,-0.00001828,-0.00000341,-0.00000839,-0.00000012,-0.00
 000635,-0.00000068,-0.00000159,-0.00001313,0.00000765,0.00001323,-0.00
 000290,-0.00000397,0.00000596,0.00000927,0.00001081,-0.00000758,-0.000
 00288,-0.00001668,0.00001623,0.00000677,0.00000139,0.00000862,0.000000
 74,0.00000404,0.00000328,0.00000495,-0.00000016,0.00000889,0.00000176,
 0.00000404,-0.00000934,0.00000953,0.00000452,0.00000529,0.00000672\\\@


 NEVER LISTEN TO CRITICISM
 OR YOU'LL BE DOIN' EVERYBODY ELSE'S THING BUT BUT YOUR OWN.

                                               -- ANDY CAPP
 Job cpu time:       0 days  0 hours 18 minutes 21.2 seconds.
 Elapsed time:       0 days  0 hours 20 minutes 42.3 seconds.
 File lengths (MBytes):  RWF=   1168 Int=      0 D2E=      0 Chk=     16 Scr=      1
 Normal termination of Gaussian 16 at Fri Feb 23 17:59:49 2024.
