 Entering Gaussian System, Link 0=g16
 Input=/Volumes/SSD-PMU3/b3lyp_6-31gd_freq/ISHKXBGREFFZEU-INSKDLCRSA-N_calculating/gaussianinput0.gjf
 Output=/Volumes/SSD-PMU3/b3lyp_6-31gd_freq/ISHKXBGREFFZEU-INSKDLCRSA-N_calculating/gaussianinput0.log
 Initial command:
 /Applications/g16/l1.exe "/Users/macmini_m1_2022/PycharmProjects/sphere_model/sphere_model_lib/Gau-70544.inp" -scrdir="/Users/macmini_m1_2022/PycharmProjects/sphere_model/sphere_model_lib/"
 Entering Link 1 = /Applications/g16/l1.exe PID=     70545.
  
 Copyright (c) 1988,1990,1992,1993,1995,1998,2003,2009,2016,
            Gaussian, Inc.  All Rights Reserved.
  
 This is part of the Gaussian(R) 16 program.  It is based on
 the Gaussian(R) 09 system (copyright 2009, Gaussian, Inc.),
 the Gaussian(R) 03 system (copyright 2003, Gaussian, Inc.),
 the Gaussian(R) 98 system (copyright 1998, Gaussian, Inc.),
 the Gaussian(R) 94 system (copyright 1995, Gaussian, Inc.),
 the Gaussian 92(TM) system (copyright 1992, Gaussian, Inc.),
 the Gaussian 90(TM) system (copyright 1990, Gaussian, Inc.),
 the Gaussian 88(TM) system (copyright 1988, Gaussian, Inc.),
 the Gaussian 86(TM) system (copyright 1986, Carnegie Mellon
 University), and the Gaussian 82(TM) system (copyright 1983,
 Carnegie Mellon University). Gaussian is a federally registered
 trademark of Gaussian, Inc.
  
 This software contains proprietary and confidential information,
 including trade secrets, belonging to Gaussian, Inc.
  
 This software is provided under written license and may be
 used, copied, transmitted, or stored only in accord with that
 written license.
  
 The following legend is applicable only to US Government
 contracts under FAR:
  
                    RESTRICTED RIGHTS LEGEND
  
 Use, reproduction and disclosure by the US Government is
 subject to restrictions as set forth in subparagraphs (a)
 and (c) of the Commercial Computer Software - Restricted
 Rights clause in FAR 52.227-19.
  
 Gaussian, Inc.
 340 Quinnipiac St., Bldg. 40, Wallingford CT 06492
  
  
 ---------------------------------------------------------------
 Warning -- This program may not be used in any manner that
 competes with the business of Gaussian, Inc. or will provide
 assistance to any competitor of Gaussian, Inc.  The licensee
 of this program is prohibited from giving any competitor of
 Gaussian, Inc. access to this program.  By using this program,
 the user acknowledges that Gaussian, Inc. is engaged in the
 business of creating and licensing software in the field of
 computational chemistry and represents and warrants to the
 licensee that it is not a competitor of Gaussian, Inc. and that
 it will not use this program in any manner prohibited above.
 ---------------------------------------------------------------
  

 Cite this work as:
 Gaussian 16, Revision A.03,
 M. J. Frisch, G. W. Trucks, H. B. Schlegel, G. E. Scuseria, 
 M. A. Robb, J. R. Cheeseman, G. Scalmani, V. Barone, 
 G. A. Petersson, H. Nakatsuji, X. Li, M. Caricato, A. V. Marenich, 
 J. Bloino, B. G. Janesko, R. Gomperts, B. Mennucci, H. P. Hratchian, 
 J. V. Ortiz, A. F. Izmaylov, J. L. Sonnenberg, D. Williams-Young, 
 F. Ding, F. Lipparini, F. Egidi, J. Goings, B. Peng, A. Petrone, 
 T. Henderson, D. Ranasinghe, V. G. Zakrzewski, J. Gao, N. Rega, 
 G. Zheng, W. Liang, M. Hada, M. Ehara, K. Toyota, R. Fukuda, 
 J. Hasegawa, M. Ishida, T. Nakajima, Y. Honda, O. Kitao, H. Nakai, 
 T. Vreven, K. Throssell, J. A. Montgomery, Jr., J. E. Peralta, 
 F. Ogliaro, M. J. Bearpark, J. J. Heyd, E. N. Brothers, K. N. Kudin, 
 V. N. Staroverov, T. A. Keith, R. Kobayashi, J. Normand, 
 K. Raghavachari, A. P. Rendell, J. C. Burant, S. S. Iyengar, 
 J. Tomasi, M. Cossi, J. M. Millam, M. Klene, C. Adamo, R. Cammi, 
 J. W. Ochterski, R. L. Martin, K. Morokuma, O. Farkas, 
 J. B. Foresman, and D. J. Fox, Gaussian, Inc., Wallingford CT, 2016.
 
 ******************************************
 Gaussian 16:  EM64M-G16RevA.03 25-Dec-2016
                23-Feb-2024 
 ******************************************
 %nprocshared=10
 Will use up to   10 processors via shared memory.
 %mem=12GB
 %chk= 0.chk
 ---------------------
 # freq b3lyp/6-31g(d)
 ---------------------
 1/10=4,30=1,38=1/1,3;
 2/12=2,17=6,18=5,40=1/2;
 3/5=1,6=6,7=1,11=2,25=1,30=1,71=2,74=-5,140=1/1,2,3;
 4//1;
 5/5=2,38=5,98=1/2;
 8/6=4,10=90,11=11/1;
 11/6=1,8=1,9=11,15=111,16=1/1,2,10;
 10/6=1/2;
 6/7=2,8=2,9=2,10=2,28=1/1;
 7/8=1,10=1,25=1/1,2,3,16;
 1/10=4,30=1/3;
 99//99;
 ---------
 good luck
 ---------
 Symbolic Z-matrix:
 Charge =  0 Multiplicity = 1
 C                    -5.36314   8.29725  -2.86997 
 C                    -5.10232   7.66007  -1.49306 
 C                    -5.93552   8.40081  -0.43034 
 C                    -5.3382    6.12566  -1.39419 
 C                    -6.53464   5.53298  -2.20103 
 C                    -6.19644   4.02732  -2.43396 
 C                    -4.89591   3.80416  -1.63818 
 C                    -4.01516   2.58298  -1.93497 
 C                    -4.81203   1.27016  -1.84289 
 C                    -3.92441   0.03056  -1.99908 
 C                    -2.75547   0.04577  -1.00326 
 C                    -1.87834   1.33493  -1.13356 
 C                    -1.13094   1.3903   -2.48577 
 C                    -2.81742   2.57585  -0.93659 
 C                    -2.07783   3.93569  -0.90688 
 C                    -3.01591   5.144    -0.69993 
 C                    -4.15603   5.1651   -1.7321 
 C                    -3.5876    5.43992  -3.14128 
 C                    -1.92986  -1.25025  -1.06533 
 C                    -0.81749  -1.28258   0.00111 
 C                     0.        0.        0. 
 O                     1.21726   0.        0. 
 C                    -0.81213   1.2896    0.00111 
 H                    -5.04547   9.3469   -2.8607 
 H                    -4.8263    7.79762  -3.68083 
 H                    -6.43088   8.28603  -3.11957 
 H                    -4.04367   7.83444  -1.24753 
 H                    -5.75727   9.48225  -0.46964 
 H                    -5.69181   8.05749   0.58198 
 H                    -7.00963   8.23796  -0.58809 
 H                    -5.55004   5.93052  -0.33217 
 H                    -7.47756   5.65831  -1.65793 
 H                    -6.66106   6.04532  -3.15931 
 H                    -7.00286   3.36534  -2.10216 
 H                    -6.0423    3.82314  -3.50108 
 H                    -5.19524   3.7068   -0.5804 
 H                    -3.62727   2.66716  -2.9604 
 H                    -5.31587   1.22915  -0.86455 
 H                    -5.60655   1.26129  -2.59942 
 H                    -3.54206  -0.0309   -3.02736 
 H                    -4.52145  -0.87809  -1.84298 
 H                    -3.20134   0.08852   0.00556 
 H                    -0.50123   2.28353  -2.54542 
 H                    -1.81111   1.40668  -3.34219 
 H                    -0.46357   0.53164  -2.61341 
 H                    -3.26728   2.44747   0.06369 
 H                    -1.51196   4.07571  -1.83524 
 H                    -1.33517   3.93311  -0.10098 
 H                    -3.45159   5.09293   0.30904 
 H                    -2.4251    6.06962  -0.73779 
 H                    -3.06909   6.40513  -3.16093 
 H                    -2.86271   4.68211  -3.45154 
 H                    -4.36914   5.46894  -3.90703 
 H                    -1.48775  -1.37113  -2.06244 
 H                    -2.59537  -2.11098  -0.92244 
 H                    -0.14135  -2.13279  -0.12813 
 H                    -1.28205  -1.37432   0.99517 
 H                    -0.10538   2.12043  -0.06764 
 H                    -1.32528   1.36439   0.97282 
 

 GradGradGradGradGradGradGradGradGradGradGradGradGradGradGradGradGradGrad
 Berny optimization.
 Initialization pass.
 Trust Radius=3.00D-01 FncErr=1.00D-07 GrdErr=1.00D-07 EigMax=2.50D+02 EigMin=1.00D-04
 Number of steps in this run=      2 maximum allowed number of steps=      2.
 GradGradGradGradGradGradGradGradGradGradGradGradGradGradGradGradGradGrad

 Stoichiometry    C22H36O
 Framework group  C1[X(C22H36O)]
 Deg. of freedom   171
 Full point group                 C1      NOp   1
 Largest Abelian subgroup         C1      NOp   1
 Largest concise Abelian subgroup C1      NOp   1
                         Standard orientation:                         
 ---------------------------------------------------------------------
 Center     Atomic      Atomic             Coordinates (Angstroms)
 Number     Number       Type             X           Y           Z
 ---------------------------------------------------------------------
      1          6           0       -5.568946   -0.656985    1.010876
      2          6           0       -4.707435   -0.987453   -0.221388
      3          6           0       -5.619698   -1.098939   -1.457364
      4          6           0       -3.523381   -0.019855   -0.507036
      5          6           0       -3.757094    1.497320   -0.228980
      6          6           0       -2.343996    2.117899    0.002675
      7          6           0       -1.369998    0.959122   -0.285466
      8          6           0        0.076931    1.029525    0.221009
      9          6           0        0.781338    2.315641   -0.244486
     10          6           0        2.266646    2.342729    0.132356
     11          6           0        2.998669    1.090630   -0.372340
     12          6           0        2.350731   -0.232008    0.155919
     13          6           0        2.507671   -0.380313    1.686767
     14          6           0        0.843118   -0.233819   -0.277286
     15          6           0        0.085974   -1.542102    0.057619
     16          6           0       -1.392263   -1.530679   -0.386820
     17          6           0       -2.144876   -0.307910    0.164640
     18          6           0       -2.273852   -0.415308    1.699647
     19          6           0        4.512149    1.163809   -0.109376
     20          6           0        5.264483   -0.043137   -0.703493
     21          6           0        4.608766   -1.360040   -0.317355
     22          8           0        5.242250   -2.302661    0.120680
     23          6           0        3.099351   -1.419489   -0.519213
     24          1           0       -6.287039   -1.466113    1.190986
     25          1           0       -4.979608   -0.530317    1.922996
     26          1           0       -6.149376    0.260743    0.858057
     27          1           0       -4.269800   -1.983807   -0.056486
     28          1           0       -6.443793   -1.800527   -1.279991
     29          1           0       -5.064738   -1.448895   -2.335777
     30          1           0       -6.063055   -0.126625   -1.708677
     31          1           0       -3.323570   -0.112996   -1.585110
     32          1           0       -4.278995    1.975876   -1.064662
     33          1           0       -4.386064    1.647885    0.653342
     34          1           0       -2.160250    2.982651   -0.643131
     35          1           0       -2.237967    2.470489    1.036423
     36          1           0       -1.298723    0.883012   -1.384145
     37          1           0        0.067284    1.033083    1.320533
     38          1           0        0.687800    2.394863   -1.338865
     39          1           0        0.271626    3.193010    0.172785
     40          1           0        2.376476    2.429245    1.222214
     41          1           0        2.743174    3.236706   -0.292130
     42          1           0        2.868882    1.069912   -1.468273
     43          1           0        2.074363   -1.324181    2.032193
     44          1           0        2.022490    0.429010    2.239911
     45          1           0        3.561195   -0.395613    1.984795
     46          1           0        0.854329   -0.157258   -1.378839
     47          1           0        0.135185   -1.739177    1.134847
     48          1           0        0.585106   -2.389992   -0.425043
     49          1           0       -1.437651   -1.509297   -1.485875
     50          1           0       -1.870137   -2.469110   -0.073366
     51          1           0       -2.820218   -1.325072    1.972947
     52          1           0       -1.300418   -0.466826    2.195418
     53          1           0       -2.810002    0.434929    2.132856
     54          1           0        4.707442    1.225143    0.968775
     55          1           0        4.910851    2.089736   -0.542812
     56          1           0        6.315233   -0.069196   -0.400224
     57          1           0        5.236305    0.027383   -1.801954
     58          1           0        2.757475   -2.386633   -0.142028
     59          1           0        2.902456   -1.392587   -1.602567
 ---------------------------------------------------------------------
 Rotational constants (GHZ):           0.6364448           0.1275678           0.1159994
 Standard basis: 6-31G(d) (6D, 7F)
 There are   417 symmetry adapted cartesian basis functions of A   symmetry.
 There are   417 symmetry adapted basis functions of A   symmetry.
   417 basis functions,   788 primitive gaussians,   417 cartesian basis functions
    88 alpha electrons       88 beta electrons
       nuclear repulsion energy      2140.7126269812 Hartrees.
 NAtoms=   59 NActive=   59 NUniq=   59 SFac= 1.00D+00 NAtFMM=   60 NAOKFM=F Big=F
 Integral buffers will be    131072 words long.
 Raffenetti 2 integral format.
 Two-electron integral symmetry is turned on.
 One-electron integrals computed using PRISM.
 NBasis=   417 RedAO= T EigKep=  1.63D-03  NBF=   417
 NBsUse=   417 1.00D-06 EigRej= -1.00D+00 NBFU=   417
 ExpMin= 1.61D-01 ExpMax= 5.48D+03 ExpMxC= 8.25D+02 IAcc=3 IRadAn=         5 AccDes= 0.00D+00
 Harris functional with IExCor=  402 and IRadAn=       5 diagonalized for initial guess.
 HarFok:  IExCor=  402 AccDes= 0.00D+00 IRadAn=         5 IDoV= 1 UseB2=F ITyADJ=14
 ICtDFT=  3500011 ScaDFX=  1.000000  1.000000  1.000000  1.000000
 FoFCou: FMM=F IPFlag=           0 FMFlag=      100000 FMFlg1=           0
         NFxFlg=           0 DoJE=T BraDBF=F KetDBF=T FulRan=T
         wScrn=  0.000000 ICntrl=       500 IOpCl=  0 I1Cent=   200000004 NGrid=           0
         NMat0=    1 NMatS0=      1 NMatT0=    0 NMatD0=    1 NMtDS0=    0 NMtDT0=    0
 Petite list used in FoFCou.
 Requested convergence on RMS density matrix=1.00D-08 within 128 cycles.
 Requested convergence on MAX density matrix=1.00D-06.
 Requested convergence on             energy=1.00D-06.
 No special actions if energy rises.
 Integral accuracy reduced to 1.0D-05 until final iterations.
 Initial convergence to 1.0D-05 achieved.  Increase integral accuracy.
 SCF Done:  E(RB3LYP) =  -935.270096148     A.U. after   14 cycles
            NFock= 14  Conv=0.31D-08     -V/T= 2.0099
 DoSCS=F DFT=T ScalE2(SS,OS)=  1.000000  1.000000
 Range of M.O.s used for correlation:     1   417
 NBasis=   417 NAE=    88 NBE=    88 NFC=     0 NFV=     0
 NROrb=    417 NOA=    88 NOB=    88 NVA=   329 NVB=   329
 Symmetrizing basis deriv contribution to polar:
 IMax=3 JMax=2 DiffMx= 0.00D+00
 G2DrvN: will do    60 centers at a time, making    1 passes.
 Calling FoFCou, ICntrl=  3107 FMM=F I1Cent=   0 AccDes= 0.00D+00.
 End of G2Drv F.D. properties file   721 does not exist.
 End of G2Drv F.D. properties file   722 does not exist.
 End of G2Drv F.D. properties file   788 does not exist.
          IDoAtm=11111111111111111111111111111111111111111111111111
          IDoAtm=111111111
          Differentiating once with respect to electric field.
                with respect to dipole field.
          Differentiating once with respect to nuclear coordinates.
 CalDSu exits because no D1Ps are significant.
          There are   180 degrees of freedom in the 1st order CPHF.  IDoFFX=6 NUNeed=     3.
    177 vectors produced by pass  0 Test12= 2.90D-14 1.00D-09 XBig12= 1.49D+02 1.64D+00.
 AX will form   177 AO Fock derivatives at one time.
    177 vectors produced by pass  1 Test12= 2.90D-14 1.00D-09 XBig12= 1.13D+01 6.06D-01.
    177 vectors produced by pass  2 Test12= 2.90D-14 1.00D-09 XBig12= 7.59D-02 1.94D-02.
    177 vectors produced by pass  3 Test12= 2.90D-14 1.00D-09 XBig12= 1.52D-04 8.80D-04.
    177 vectors produced by pass  4 Test12= 2.90D-14 1.00D-09 XBig12= 1.48D-07 2.87D-05.
     73 vectors produced by pass  5 Test12= 2.90D-14 1.00D-09 XBig12= 8.86D-11 6.06D-07.
      3 vectors produced by pass  6 Test12= 2.90D-14 1.00D-09 XBig12= 5.62D-14 1.76D-08.
 InvSVY:  IOpt=1 It=  1 EMax= 5.33D-15
 Solved reduced A of dimension   961 with   180 vectors.
 Isotropic polarizability for W=    0.000000      221.15 Bohr**3.
 End of Minotr F.D. properties file   721 does not exist.
 End of Minotr F.D. properties file   722 does not exist.
 End of Minotr F.D. properties file   788 does not exist.

 **********************************************************************

            Population analysis using the SCF density.

 **********************************************************************

 Orbital symmetries:
       Occupied  (A) (A) (A) (A) (A) (A) (A) (A) (A) (A) (A) (A)
                 (A) (A) (A) (A) (A) (A) (A) (A) (A) (A) (A) (A)
                 (A) (A) (A) (A) (A) (A) (A) (A) (A) (A) (A) (A)
                 (A) (A) (A) (A) (A) (A) (A) (A) (A) (A) (A) (A)
                 (A) (A) (A) (A) (A) (A) (A) (A) (A) (A) (A) (A)
                 (A) (A) (A) (A) (A) (A) (A) (A) (A) (A) (A) (A)
                 (A) (A) (A) (A) (A) (A) (A) (A) (A) (A) (A) (A)
                 (A) (A) (A) (A)
       Virtual   (A) (A) (A) (A) (A) (A) (A) (A) (A) (A) (A) (A)
                 (A) (A) (A) (A) (A) (A) (A) (A) (A) (A) (A) (A)
                 (A) (A) (A) (A) (A) (A) (A) (A) (A) (A) (A) (A)
                 (A) (A) (A) (A) (A) (A) (A) (A) (A) (A) (A) (A)
                 (A) (A) (A) (A) (A) (A) (A) (A) (A) (A) (A) (A)
                 (A) (A) (A) (A) (A) (A) (A) (A) (A) (A) (A) (A)
                 (A) (A) (A) (A) (A) (A) (A) (A) (A) (A) (A) (A)
                 (A) (A) (A) (A) (A) (A) (A) (A) (A) (A) (A) (A)
                 (A) (A) (A) (A) (A) (A) (A) (A) (A) (A) (A) (A)
                 (A) (A) (A) (A) (A) (A) (A) (A) (A) (A) (A) (A)
                 (A) (A) (A) (A) (A) (A) (A) (A) (A) (A) (A) (A)
                 (A) (A) (A) (A) (A) (A) (A) (A) (A) (A) (A) (A)
                 (A) (A) (A) (A) (A) (A) (A) (A) (A) (A) (A) (A)
                 (A) (A) (A) (A) (A) (A) (A) (A) (A) (A) (A) (A)
                 (A) (A) (A) (A) (A) (A) (A) (A) (A) (A) (A) (A)
                 (A) (A) (A) (A) (A) (A) (A) (A) (A) (A) (A) (A)
                 (A) (A) (A) (A) (A) (A) (A) (A) (A) (A) (A) (A)
                 (A) (A) (A) (A) (A) (A) (A) (A) (A) (A) (A) (A)
                 (A) (A) (A) (A) (A) (A) (A) (A) (A) (A) (A) (A)
                 (A) (A) (A) (A) (A) (A) (A) (A) (A) (A) (A) (A)
                 (A) (A) (A) (A) (A) (A) (A) (A) (A) (A) (A) (A)
                 (A) (A) (A) (A) (A) (A) (A) (A) (A) (A) (A) (A)
                 (A) (A) (A) (A) (A) (A) (A) (A) (A) (A) (A) (A)
                 (A) (A) (A) (A) (A) (A) (A) (A) (A) (A) (A) (A)
                 (A) (A) (A) (A) (A) (A) (A) (A) (A) (A) (A) (A)
                 (A) (A) (A) (A) (A) (A) (A) (A) (A) (A) (A) (A)
                 (A) (A) (A) (A) (A) (A) (A) (A) (A) (A) (A) (A)
                 (A) (A) (A) (A) (A)
 The electronic state is 1-A.
 Alpha  occ. eigenvalues --  -19.12958 -10.26552 -10.20390 -10.19021 -10.18946
 Alpha  occ. eigenvalues --  -10.18801 -10.18740 -10.18552 -10.18548 -10.18381
 Alpha  occ. eigenvalues --  -10.18296 -10.18116 -10.17908 -10.17836 -10.17833
 Alpha  occ. eigenvalues --  -10.17696 -10.17653 -10.17569 -10.17522 -10.17461
 Alpha  occ. eigenvalues --  -10.17044 -10.17001 -10.16900  -1.02828  -0.86576
 Alpha  occ. eigenvalues --   -0.84686  -0.80421  -0.78605  -0.77994  -0.76288
 Alpha  occ. eigenvalues --   -0.74136  -0.71938  -0.70431  -0.68438  -0.68105
 Alpha  occ. eigenvalues --   -0.67783  -0.66735  -0.62522  -0.61183  -0.59506
 Alpha  occ. eigenvalues --   -0.58307  -0.56895  -0.53782  -0.53143  -0.52050
 Alpha  occ. eigenvalues --   -0.51943  -0.47733  -0.47294  -0.46377  -0.46092
 Alpha  occ. eigenvalues --   -0.45337  -0.45041  -0.44988  -0.43923  -0.43279
 Alpha  occ. eigenvalues --   -0.42404  -0.42125  -0.41177  -0.40736  -0.40489
 Alpha  occ. eigenvalues --   -0.40212  -0.38810  -0.38731  -0.38477  -0.38300
 Alpha  occ. eigenvalues --   -0.38115  -0.37553  -0.36998  -0.36213  -0.36182
 Alpha  occ. eigenvalues --   -0.35159  -0.34732  -0.34375  -0.34064  -0.33629
 Alpha  occ. eigenvalues --   -0.33354  -0.32844  -0.32475  -0.32136  -0.31196
 Alpha  occ. eigenvalues --   -0.30774  -0.30492  -0.30187  -0.29890  -0.29194
 Alpha  occ. eigenvalues --   -0.27870  -0.26701  -0.23124
 Alpha virt. eigenvalues --   -0.00996   0.07208   0.07765   0.08336   0.09484
 Alpha virt. eigenvalues --    0.09922   0.10223   0.10765   0.11523   0.12110
 Alpha virt. eigenvalues --    0.12561   0.13027   0.13302   0.14171   0.14462
 Alpha virt. eigenvalues --    0.14688   0.14889   0.15320   0.15719   0.16300
 Alpha virt. eigenvalues --    0.16536   0.17130   0.17318   0.17583   0.17738
 Alpha virt. eigenvalues --    0.18286   0.18539   0.18818   0.19275   0.19546
 Alpha virt. eigenvalues --    0.19802   0.20206   0.21014   0.21740   0.21818
 Alpha virt. eigenvalues --    0.22376   0.22530   0.22630   0.22914   0.23913
 Alpha virt. eigenvalues --    0.24221   0.24471   0.24814   0.25384   0.25661
 Alpha virt. eigenvalues --    0.25735   0.25982   0.26891   0.27092   0.27503
 Alpha virt. eigenvalues --    0.28058   0.28653   0.29039   0.29914   0.30355
 Alpha virt. eigenvalues --    0.31442   0.31939   0.32362   0.34142   0.34746
 Alpha virt. eigenvalues --    0.35960   0.37928   0.38449   0.48595   0.49670
 Alpha virt. eigenvalues --    0.50048   0.50843   0.51088   0.52004   0.52256
 Alpha virt. eigenvalues --    0.52841   0.53663   0.54484   0.56211   0.56270
 Alpha virt. eigenvalues --    0.56536   0.58454   0.58956   0.59609   0.60266
 Alpha virt. eigenvalues --    0.60985   0.61577   0.61882   0.63322   0.63934
 Alpha virt. eigenvalues --    0.64502   0.65214   0.66105   0.66370   0.67554
 Alpha virt. eigenvalues --    0.67935   0.68274   0.68656   0.69702   0.70880
 Alpha virt. eigenvalues --    0.71790   0.72176   0.72894   0.73601   0.74019
 Alpha virt. eigenvalues --    0.75110   0.75637   0.76571   0.77229   0.78321
 Alpha virt. eigenvalues --    0.78843   0.80685   0.80990   0.82030   0.82563
 Alpha virt. eigenvalues --    0.82904   0.83537   0.84365   0.84590   0.85589
 Alpha virt. eigenvalues --    0.85989   0.86398   0.87020   0.87198   0.87262
 Alpha virt. eigenvalues --    0.88156   0.88558   0.88805   0.89249   0.89510
 Alpha virt. eigenvalues --    0.89991   0.90226   0.90688   0.90963   0.91297
 Alpha virt. eigenvalues --    0.91917   0.92325   0.92992   0.93091   0.94183
 Alpha virt. eigenvalues --    0.94822   0.94854   0.95202   0.95836   0.96292
 Alpha virt. eigenvalues --    0.96694   0.97372   0.97885   0.98295   0.98597
 Alpha virt. eigenvalues --    0.98861   0.99964   1.00360   1.00844   1.01545
 Alpha virt. eigenvalues --    1.01949   1.02373   1.03538   1.04050   1.04929
 Alpha virt. eigenvalues --    1.05439   1.07596   1.08068   1.08349   1.11008
 Alpha virt. eigenvalues --    1.12333   1.14635   1.16244   1.18521   1.19178
 Alpha virt. eigenvalues --    1.20291   1.21633   1.23981   1.27014   1.29071
 Alpha virt. eigenvalues --    1.30095   1.32121   1.33598   1.35371   1.37361
 Alpha virt. eigenvalues --    1.39168   1.40194   1.43041   1.44127   1.47955
 Alpha virt. eigenvalues --    1.48838   1.51679   1.52379   1.53167   1.55121
 Alpha virt. eigenvalues --    1.55947   1.58843   1.60000   1.61246   1.62646
 Alpha virt. eigenvalues --    1.63879   1.64950   1.66208   1.68709   1.70444
 Alpha virt. eigenvalues --    1.72239   1.72540   1.72845   1.74129   1.75553
 Alpha virt. eigenvalues --    1.75975   1.77278   1.78100   1.79514   1.80695
 Alpha virt. eigenvalues --    1.80918   1.81709   1.82497   1.83151   1.85582
 Alpha virt. eigenvalues --    1.86532   1.86770   1.87020   1.87538   1.88386
 Alpha virt. eigenvalues --    1.90422   1.90992   1.91778   1.92398   1.93288
 Alpha virt. eigenvalues --    1.94214   1.94564   1.95448   1.96461   1.96706
 Alpha virt. eigenvalues --    1.98590   1.99315   1.99664   2.00767   2.01487
 Alpha virt. eigenvalues --    2.02068   2.03382   2.03769   2.04532   2.05017
 Alpha virt. eigenvalues --    2.06509   2.06841   2.08274   2.09179   2.10260
 Alpha virt. eigenvalues --    2.10735   2.11208   2.11976   2.12861   2.13732
 Alpha virt. eigenvalues --    2.14193   2.16057   2.16316   2.19035   2.20009
 Alpha virt. eigenvalues --    2.20953   2.22726   2.23751   2.24848   2.25768
 Alpha virt. eigenvalues --    2.27414   2.27773   2.29312   2.29430   2.30306
 Alpha virt. eigenvalues --    2.32094   2.33871   2.35085   2.35591   2.37385
 Alpha virt. eigenvalues --    2.38486   2.39743   2.40759   2.41750   2.43904
 Alpha virt. eigenvalues --    2.44002   2.46056   2.46598   2.47487   2.48906
 Alpha virt. eigenvalues --    2.49404   2.52771   2.53592   2.54742   2.56321
 Alpha virt. eigenvalues --    2.57823   2.59550   2.60329   2.60754   2.62469
 Alpha virt. eigenvalues --    2.63537   2.64539   2.66669   2.67423   2.71462
 Alpha virt. eigenvalues --    2.71920   2.75580   2.75990   2.77227   2.78881
 Alpha virt. eigenvalues --    2.81883   2.83024   2.85386   2.87022   2.89400
 Alpha virt. eigenvalues --    2.90589   2.91782   2.96296   2.99218   3.02263
 Alpha virt. eigenvalues --    3.05285   4.04693   4.11014   4.14119   4.20486
 Alpha virt. eigenvalues --    4.23369   4.23682   4.26298   4.29097   4.30225
 Alpha virt. eigenvalues --    4.31924   4.34971   4.39912   4.45539   4.46100
 Alpha virt. eigenvalues --    4.53033   4.57044   4.61217   4.63952   4.65598
 Alpha virt. eigenvalues --    4.71562   4.75970   4.79464   4.82859
          Condensed to atoms (all electrons):
 Mulliken charges:
               1
     1  C   -0.454032
     2  C   -0.077333
     3  C   -0.450395
     4  C   -0.079896
     5  C   -0.294830
     6  C   -0.290784
     7  C   -0.087762
     8  C   -0.100280
     9  C   -0.271281
    10  C   -0.271158
    11  C   -0.090225
    12  C    0.085894
    13  C   -0.483518
    14  C   -0.091069
    15  C   -0.292920
    16  C   -0.276294
    17  C    0.084162
    18  C   -0.478861
    19  C   -0.281945
    20  C   -0.345050
    21  C    0.450089
    22  O   -0.451936
    23  C   -0.361538
    24  H    0.137913
    25  H    0.146596
    26  H    0.142065
    27  H    0.124263
    28  H    0.138388
    29  H    0.139438
    30  H    0.141331
    31  H    0.112031
    32  H    0.133780
    33  H    0.139796
    34  H    0.133910
    35  H    0.132091
    36  H    0.108150
    37  H    0.118367
    38  H    0.122980
    39  H    0.135879
    40  H    0.131898
    41  H    0.129004
    42  H    0.111345
    43  H    0.154117
    44  H    0.149436
    45  H    0.154138
    46  H    0.105200
    47  H    0.138584
    48  H    0.137658
    49  H    0.121991
    50  H    0.127484
    51  H    0.146767
    52  H    0.145922
    53  H    0.146202
    54  H    0.145197
    55  H    0.138358
    56  H    0.160874
    57  H    0.152499
    58  H    0.162466
    59  H    0.144845
 Sum of Mulliken charges =  -0.00000
 Mulliken charges with hydrogens summed into heavy atoms:
               1
     1  C   -0.027457
     2  C    0.046930
     3  C   -0.031238
     4  C    0.032135
     5  C   -0.021254
     6  C   -0.024783
     7  C    0.020388
     8  C    0.018087
     9  C   -0.012421
    10  C   -0.010256
    11  C    0.021120
    12  C    0.085894
    13  C   -0.025827
    14  C    0.014131
    15  C   -0.016678
    16  C   -0.026819
    17  C    0.084162
    18  C   -0.039970
    19  C    0.001610
    20  C   -0.031677
    21  C    0.450089
    22  O   -0.451936
    23  C   -0.054228
 APT charges:
               1
     1  C    0.043510
     2  C    0.135873
     3  C    0.073141
     4  C    0.075387
     5  C    0.062620
     6  C    0.080189
     7  C    0.073221
     8  C    0.046415
     9  C    0.099984
    10  C    0.110069
    11  C    0.051003
    12  C    0.130502
    13  C   -0.007763
    14  C    0.068081
    15  C    0.069603
    16  C    0.105701
    17  C    0.043764
    18  C    0.019425
    19  C    0.131835
    20  C   -0.054377
    21  C    0.764319
    22  O   -0.666441
    23  C   -0.130305
    24  H   -0.038477
    25  H   -0.011538
    26  H   -0.018915
    27  H   -0.070839
    28  H   -0.046017
    29  H   -0.028400
    30  H   -0.021977
    31  H   -0.066705
    32  H   -0.050959
    33  H   -0.035822
    34  H   -0.048402
    35  H   -0.043596
    36  H   -0.061085
    37  H   -0.043172
    38  H   -0.044261
    39  H   -0.052826
    40  H   -0.038658
    41  H   -0.069942
    42  H   -0.063026
    43  H   -0.001796
    44  H   -0.004059
    45  H   -0.014992
    46  H   -0.060661
    47  H   -0.026414
    48  H   -0.049560
    49  H   -0.046318
    50  H   -0.064484
    51  H   -0.019204
    52  H   -0.021242
    53  H   -0.010511
    54  H   -0.033719
    55  H   -0.055882
    56  H   -0.032525
    57  H   -0.008040
    58  H   -0.014897
    59  H   -0.006835
 Sum of APT charges =   0.00000
 APT charges with hydrogens summed into heavy atoms:
               1
     1  C   -0.025419
     2  C    0.065034
     3  C   -0.023253
     4  C    0.008682
     5  C   -0.024160
     6  C   -0.011809
     7  C    0.012136
     8  C    0.003243
     9  C    0.002896
    10  C    0.001470
    11  C   -0.012023
    12  C    0.130502
    13  C   -0.028610
    14  C    0.007420
    15  C   -0.006371
    16  C   -0.005101
    17  C    0.043764
    18  C   -0.031532
    19  C    0.042234
    20  C   -0.094942
    21  C    0.764319
    22  O   -0.666441
    23  C   -0.152038
 Electronic spatial extent (au):  <R**2>=           9635.5532
 Charge=             -0.0000 electrons
 Dipole moment (field-independent basis, Debye):
    X=             -1.8955    Y=              2.3789    Z=             -0.7883  Tot=              3.1422
 Quadrupole moment (field-independent basis, Debye-Ang):
   XX=           -160.4396   YY=           -150.9827   ZZ=           -142.6375
   XY=             14.9000   XZ=             -4.5092   YZ=              1.1061
 Traceless Quadrupole moment (field-independent basis, Debye-Ang):
   XX=             -9.0864   YY=              0.3706   ZZ=              8.7158
   XY=             14.9000   XZ=             -4.5092   YZ=              1.1061
 Octapole moment (field-independent basis, Debye-Ang**2):
  XXX=            -67.9976  YYY=              8.9043  ZZZ=             -2.5900  XYY=            -33.9072
  XXY=             81.4238  XXZ=            -19.7676  XZZ=             16.5185  YZZ=             -2.1004
  YYZ=             -2.3051  XYZ=              7.5469
 Hexadecapole moment (field-independent basis, Debye-Ang**3):
 XXXX=         -11095.2741 YYYY=          -1876.2324 ZZZZ=           -807.1121 XXXY=            434.9785
 XXXZ=           -113.3186 YYYX=             71.7500 YYYZ=             -1.4516 ZZZX=             -6.7037
 ZZZY=              2.8699 XXYY=          -2262.4035 XXZZ=          -1865.0823 YYZZ=           -433.6726
 XXYZ=             21.5447 YYXZ=            -18.7939 ZZXY=            -25.7357
 N-N= 2.140712626981D+03 E-N=-6.446464608846D+03  KE= 9.261153692145D+02
  Exact polarizability: 273.610   0.807 209.279   0.253  -3.241 180.558
 Approx polarizability: 316.916  -6.998 315.977   3.210  -7.892 305.625
 Calling FoFJK, ICntrl=    100127 FMM=F ISym2X=0 I1Cent= 0 IOpClX= 0 NMat=1 NMatS=1 NMatT=0.
 Full mass-weighted force constant matrix:
 Low frequencies ---   -1.9924   -0.0009    0.0004    0.0005    3.6749    7.3723
 Low frequencies ---   38.0601   50.7943   62.7184
 Diagonal vibrational polarizability:
       10.7252433       7.1400688      23.8442939
 Harmonic frequencies (cm**-1), IR intensities (KM/Mole), Raman scattering
 activities (A**4/AMU), depolarization ratios for plane and unpolarized
 incident light, reduced masses (AMU), force constants (mDyne/A),
 and normal coordinates:
                      1                      2                      3
                      A                      A                      A
 Frequencies --     38.0583                50.7942                62.7164
 Red. masses --      3.7454                 2.9273                 3.4291
 Frc consts  --      0.0032                 0.0044                 0.0079
 IR Inten    --      0.4144                 0.3449                 0.8256
  Atom  AN      X      Y      Z        X      Y      Z        X      Y      Z
     1   6     0.09  -0.08   0.13     0.03  -0.17  -0.04    -0.08   0.04  -0.09
     2   6    -0.01   0.00   0.04    -0.00  -0.01  -0.11     0.03  -0.00   0.01
     3   6    -0.11   0.10   0.10    -0.03   0.21  -0.11     0.15  -0.17  -0.06
     4   6    -0.02   0.01   0.02     0.02  -0.00   0.00    -0.00   0.05   0.04
     5   6    -0.01  -0.00   0.08    -0.00  -0.01   0.05    -0.01   0.03   0.15
     6   6    -0.00  -0.00   0.02    -0.00  -0.01   0.06    -0.00   0.02   0.14
     7   6    -0.01   0.01  -0.05    -0.00  -0.01   0.05    -0.00   0.04   0.06
     8   6     0.00  -0.00  -0.08     0.00  -0.00   0.03     0.01   0.01   0.02
     9   6     0.00  -0.00  -0.08    -0.01  -0.01  -0.01     0.01   0.02   0.03
    10   6    -0.00   0.01  -0.06     0.01   0.00  -0.07     0.03   0.00  -0.04
    11   6     0.01   0.00  -0.02    -0.01  -0.01  -0.06     0.00  -0.01  -0.06
    12   6    -0.01   0.00  -0.04     0.01   0.01   0.02    -0.01   0.01  -0.03
    13   6    -0.07   0.01  -0.03     0.04   0.07   0.02    -0.00   0.03  -0.03
    14   6     0.01   0.01  -0.10    -0.00  -0.01   0.04    -0.01   0.02  -0.02
    15   6     0.01  -0.01  -0.17     0.00  -0.00   0.08    -0.01   0.01  -0.08
    16   6    -0.00   0.02  -0.14     0.01  -0.01   0.05    -0.01   0.04  -0.06
    17   6     0.01  -0.01  -0.06    -0.00  -0.01   0.04     0.00   0.02   0.00
    18   6     0.09  -0.07  -0.06    -0.02  -0.01   0.03     0.01  -0.06  -0.00
    19   6     0.00   0.00   0.05     0.00  -0.00  -0.12     0.01  -0.03  -0.10
    20   6     0.03  -0.01   0.11    -0.02  -0.03  -0.10    -0.02  -0.06  -0.08
    21   6     0.01  -0.00   0.10    -0.00  -0.01   0.01    -0.03  -0.02   0.03
    22   8    -0.03   0.01   0.17     0.01   0.03   0.08    -0.05   0.03   0.17
    23   6     0.02  -0.00   0.00    -0.01  -0.02   0.05    -0.02  -0.02  -0.00
    24   1     0.09  -0.09   0.12    -0.00  -0.16  -0.16    -0.04   0.02  -0.07
    25   1     0.15  -0.16   0.10     0.04  -0.34  -0.03    -0.14   0.16  -0.06
    26   1     0.08  -0.06   0.24     0.06  -0.12   0.11    -0.12  -0.00  -0.20
    27   1    -0.01  -0.01  -0.07    -0.03  -0.04  -0.26     0.08   0.04   0.13
    28   1    -0.10   0.10   0.11    -0.05   0.20  -0.20     0.17  -0.20  -0.07
    29   1    -0.18   0.17   0.03    -0.06   0.33  -0.17     0.25  -0.22   0.02
    30   1    -0.12   0.13   0.21    -0.01   0.26   0.06     0.11  -0.22  -0.19
    31   1    -0.07   0.05   0.00     0.06   0.04   0.01    -0.02   0.13   0.03
    32   1    -0.06   0.02   0.13    -0.01   0.01   0.06    -0.04   0.08   0.20
    33   1     0.04  -0.04   0.12     0.00  -0.05   0.05     0.03  -0.04   0.18
    34   1    -0.04   0.01   0.04    -0.00  -0.00   0.07    -0.02   0.06   0.18
    35   1     0.05  -0.03   0.03    -0.01  -0.02   0.06     0.03  -0.03   0.15
    36   1    -0.04   0.04  -0.05    -0.00   0.00   0.05    -0.03   0.10   0.05
    37   1     0.01  -0.00  -0.08     0.02   0.02   0.04     0.03  -0.01   0.02
    38   1     0.02  -0.01  -0.09    -0.05  -0.03  -0.00    -0.04   0.04   0.03
    39   1    -0.01   0.00  -0.10     0.01  -0.00  -0.00     0.04   0.02   0.06
    40   1    -0.03   0.03  -0.06     0.05   0.04  -0.07     0.08   0.01  -0.05
    41   1     0.00   0.00  -0.06    -0.01  -0.01  -0.12     0.02  -0.01  -0.07
    42   1     0.06  -0.01  -0.02    -0.05  -0.05  -0.05    -0.03  -0.02  -0.06
    43   1    -0.11   0.03  -0.04     0.03   0.09   0.07    -0.03   0.06  -0.00
    44   1    -0.06   0.04  -0.05     0.06   0.10  -0.01     0.03   0.06  -0.04
    45   1    -0.08  -0.02   0.01     0.04   0.07  -0.00    -0.00   0.00  -0.03
    46   1     0.04   0.05  -0.09    -0.02  -0.03   0.04    -0.01   0.06  -0.02
    47   1     0.02  -0.09  -0.19    -0.01   0.03   0.08     0.00  -0.04  -0.09
    48   1    -0.00   0.02  -0.24     0.01  -0.01   0.10    -0.02   0.03  -0.12
    49   1    -0.03   0.07  -0.14     0.03  -0.02   0.05    -0.01   0.10  -0.06
    50   1     0.00   0.00  -0.18     0.01  -0.01   0.05    -0.01   0.03  -0.11
    51   1     0.12  -0.09  -0.06     0.03  -0.04   0.03    -0.03  -0.05  -0.05
    52   1     0.11  -0.07  -0.11    -0.03   0.05   0.05     0.01  -0.12  -0.01
    53   1     0.09  -0.09  -0.00    -0.08  -0.04   0.02     0.04  -0.06   0.05
    54   1    -0.05   0.02   0.06     0.04   0.04  -0.13     0.04   0.00  -0.11
    55   1     0.03  -0.01   0.06    -0.02  -0.02  -0.17     0.01  -0.05  -0.14
    56   1     0.01  -0.01   0.17    -0.01  -0.01  -0.15    -0.01  -0.05  -0.11
    57   1     0.09  -0.03   0.11    -0.08  -0.09  -0.10    -0.06  -0.11  -0.08
    58   1    -0.01   0.00  -0.01     0.00  -0.01   0.11    -0.04  -0.00   0.02
    59   1     0.08  -0.00  -0.01    -0.04  -0.08   0.06    -0.01  -0.04  -0.00
                      4                      5                      6
                      A                      A                      A
 Frequencies --     78.2962                99.3347               103.9204
 Red. masses --      4.2421                 3.2869                 3.3603
 Frc consts  --      0.0153                 0.0191                 0.0214
 IR Inten    --      1.6892                 0.9669                 0.0197
  Atom  AN      X      Y      Z        X      Y      Z        X      Y      Z
     1   6    -0.02   0.16   0.03    -0.04   0.13  -0.00    -0.14   0.11  -0.07
     2   6    -0.06   0.06   0.03    -0.04   0.04   0.02    -0.07   0.05  -0.00
     3   6    -0.09   0.07   0.05    -0.05   0.02   0.02     0.02   0.08  -0.07
     4   6    -0.00  -0.03  -0.03    -0.01  -0.00  -0.02    -0.02   0.00   0.06
     5   6     0.04   0.00  -0.12     0.02   0.00  -0.01     0.02  -0.00   0.12
     6   6     0.04  -0.04  -0.03     0.01  -0.03   0.07     0.03  -0.03   0.05
     7   6     0.02  -0.06   0.00    -0.00  -0.02   0.02    -0.01  -0.06   0.03
     8   6     0.00  -0.07   0.03    -0.00  -0.03   0.02     0.01  -0.05  -0.04
     9   6    -0.01  -0.03   0.12    -0.02  -0.02  -0.00    -0.03  -0.06  -0.12
    10   6    -0.01  -0.04   0.10    -0.01   0.01  -0.05    -0.04  -0.00  -0.11
    11   6    -0.02  -0.00   0.00    -0.01  -0.02   0.00    -0.00  -0.00  -0.05
    12   6     0.02  -0.04  -0.03     0.00   0.01   0.08     0.02  -0.02  -0.05
    13   6     0.04  -0.09  -0.04    -0.04   0.13   0.10     0.03  -0.03  -0.06
    14   6     0.01  -0.05  -0.01     0.01  -0.01   0.02     0.01  -0.06  -0.03
    15   6     0.01  -0.05  -0.01     0.01  -0.03  -0.07     0.00  -0.04   0.03
    16   6    -0.00  -0.05  -0.01     0.01  -0.01  -0.10    -0.02  -0.05   0.07
    17   6    -0.01  -0.05  -0.01    -0.00  -0.04  -0.04    -0.02  -0.04   0.06
    18   6    -0.03  -0.05  -0.02    -0.01  -0.12  -0.05    -0.02  -0.03   0.06
    19   6    -0.01   0.02  -0.08    -0.01   0.01  -0.02    -0.02   0.06   0.05
    20   6    -0.02   0.05  -0.15    -0.02   0.02  -0.05     0.07   0.07   0.14
    21   6     0.04   0.07  -0.01     0.05   0.00   0.02     0.06   0.04   0.02
    22   8     0.04   0.18   0.22     0.14  -0.00  -0.13     0.06   0.02  -0.02
    23   6     0.05  -0.00  -0.08     0.02  -0.05   0.20     0.07   0.02  -0.07
    24   1    -0.05   0.20   0.08    -0.04   0.14   0.05    -0.19   0.14  -0.10
    25   1    -0.00   0.19   0.01    -0.03   0.18  -0.01    -0.19   0.09  -0.03
    26   1     0.01   0.17  -0.02    -0.03   0.12  -0.06    -0.08   0.13  -0.12
    27   1    -0.12   0.03   0.06    -0.08   0.03   0.06    -0.12   0.03   0.04
    28   1    -0.14   0.14   0.09    -0.08   0.07   0.05    -0.05   0.15  -0.12
    29   1    -0.13  -0.00   0.05    -0.06  -0.05   0.04     0.06   0.03  -0.02
    30   1    -0.02   0.10   0.02    -0.00   0.03  -0.03     0.11   0.11  -0.13
    31   1    -0.01  -0.10  -0.03    -0.04  -0.01  -0.02    -0.01   0.05   0.06
    32   1     0.13  -0.02  -0.19     0.07   0.02  -0.04    -0.04   0.03   0.18
    33   1    -0.03   0.07  -0.18    -0.03   0.01  -0.05     0.08  -0.03   0.17
    34   1     0.09  -0.03   0.01     0.04   0.01   0.13     0.03  -0.05   0.03
    35   1    -0.01  -0.07  -0.01    -0.01  -0.10   0.09     0.09  -0.02   0.04
    36   1     0.04  -0.06   0.00    -0.00   0.02   0.01    -0.05  -0.07   0.03
    37   1    -0.02  -0.13   0.03    -0.01  -0.02   0.02     0.06  -0.02  -0.04
    38   1    -0.02   0.04   0.12    -0.06  -0.04   0.00    -0.04  -0.13  -0.12
    39   1    -0.02  -0.07   0.18    -0.02  -0.02   0.00    -0.06  -0.05  -0.17
    40   1     0.00  -0.12   0.11     0.03   0.08  -0.06    -0.06   0.04  -0.11
    41   1    -0.03  -0.01   0.16    -0.03  -0.02  -0.12    -0.06  -0.01  -0.14
    42   1    -0.08   0.05   0.01    -0.02  -0.08   0.01     0.06  -0.03  -0.05
    43   1     0.13  -0.15  -0.08    -0.17   0.22   0.18     0.04  -0.04  -0.06
    44   1    -0.03  -0.17   0.00     0.05   0.24   0.02     0.03  -0.04  -0.05
    45   1     0.04  -0.01  -0.04    -0.05   0.03   0.11     0.03  -0.02  -0.06
    46   1    -0.01  -0.03  -0.01     0.06   0.01   0.03    -0.02  -0.08  -0.04
    47   1     0.01  -0.05  -0.01    -0.01  -0.11  -0.08     0.03  -0.00   0.03
    48   1     0.00  -0.05  -0.02     0.02  -0.00  -0.11    -0.02  -0.06   0.04
    49   1    -0.00  -0.05  -0.01     0.04   0.06  -0.10    -0.05  -0.08   0.07
    50   1     0.00  -0.05  -0.00     0.01  -0.03  -0.16    -0.00  -0.05   0.11
    51   1    -0.08  -0.03  -0.03    -0.03  -0.12  -0.10    -0.07  -0.00   0.06
    52   1    -0.04  -0.10  -0.01    -0.01  -0.17  -0.05    -0.03  -0.07   0.06
    53   1     0.00  -0.03  -0.02     0.02  -0.13  -0.00     0.01  -0.00   0.06
    54   1     0.06   0.00  -0.09     0.02   0.01  -0.03    -0.10   0.10   0.06
    55   1    -0.05   0.04  -0.09    -0.03   0.01  -0.03    -0.03   0.06   0.05
    56   1     0.01   0.09  -0.24     0.00   0.05  -0.13     0.04   0.09   0.27
    57   1    -0.13   0.03  -0.14    -0.10  -0.01  -0.05     0.21   0.08   0.14
    58   1     0.06  -0.02  -0.11     0.08  -0.01   0.36     0.07  -0.00  -0.13
    59   1     0.06   0.05  -0.08    -0.07  -0.22   0.21     0.13   0.07  -0.08
                      7                      8                      9
                      A                      A                      A
 Frequencies --    125.7497               163.9907               184.9509
 Red. masses --      2.5117                 2.4658                 2.4903
 Frc consts  --      0.0234                 0.0391                 0.0502
 IR Inten    --      0.6988                 0.2472                 0.0465
  Atom  AN      X      Y      Z        X      Y      Z        X      Y      Z
     1   6    -0.03  -0.04  -0.01     0.04  -0.05   0.01    -0.02  -0.05   0.01
     2   6     0.00   0.00  -0.00     0.02   0.01  -0.01    -0.03   0.01  -0.01
     3   6     0.04  -0.00  -0.02    -0.00  -0.05   0.02    -0.08  -0.07   0.03
     4   6    -0.02   0.04   0.04    -0.01   0.05  -0.03    -0.06   0.05  -0.03
     5   6    -0.01   0.01   0.15    -0.01   0.06  -0.06    -0.03   0.05   0.04
     6   6     0.03   0.04  -0.13    -0.02   0.02   0.16    -0.01   0.04  -0.01
     7   6     0.00  -0.01  -0.08    -0.02   0.05   0.03    -0.02   0.03  -0.02
     8   6    -0.01  -0.01  -0.05     0.01   0.01  -0.04    -0.01  -0.02   0.02
     9   6     0.01  -0.02  -0.03     0.02  -0.03  -0.14     0.00   0.00   0.09
    10   6    -0.01  -0.03   0.07    -0.01  -0.03  -0.04     0.02  -0.04   0.02
    11   6    -0.01  -0.03   0.06     0.01  -0.04   0.03     0.00  -0.02  -0.06
    12   6    -0.01  -0.04   0.04    -0.00  -0.05   0.01     0.03  -0.02  -0.02
    13   6    -0.06  -0.05   0.04    -0.02  -0.10   0.01     0.05   0.01  -0.02
    14   6    -0.00  -0.03  -0.01    -0.01  -0.03   0.00     0.00  -0.02   0.00
    15   6    -0.03  -0.02  -0.02    -0.05   0.01   0.06    -0.04   0.01   0.03
    16   6    -0.04  -0.00   0.00    -0.03   0.04  -0.01    -0.03   0.03  -0.03
    17   6    -0.00   0.02  -0.01    -0.02   0.04  -0.01    -0.05   0.04  -0.05
    18   6     0.04   0.08  -0.00    -0.05   0.03  -0.01    -0.10   0.04  -0.05
    19   6    -0.01  -0.02   0.03    -0.00  -0.03   0.07     0.01   0.04  -0.11
    20   6    -0.04   0.03  -0.11    -0.00   0.04  -0.05     0.08  -0.01   0.08
    21   6     0.03   0.02  -0.02     0.04   0.02  -0.03     0.08  -0.01   0.05
    22   8     0.09   0.08   0.00     0.08   0.07   0.02     0.10  -0.03  -0.02
    23   6     0.02  -0.04   0.06     0.03  -0.03  -0.01     0.07  -0.02   0.02
    24   1    -0.03  -0.04  -0.05     0.07  -0.08   0.01     0.00  -0.08  -0.01
    25   1    -0.04  -0.07   0.01     0.05  -0.04   0.00    -0.02  -0.07   0.01
    26   1    -0.01  -0.03   0.01    -0.00  -0.07   0.04    -0.05  -0.06   0.05
    27   1     0.03   0.01  -0.01     0.08   0.03  -0.02     0.03   0.03  -0.03
    28   1     0.05  -0.03  -0.06     0.08  -0.14   0.03     0.05  -0.22   0.05
    29   1     0.07   0.03  -0.02     0.01   0.02  -0.01    -0.08   0.06  -0.02
    30   1     0.01  -0.01  -0.02    -0.11  -0.09   0.05    -0.26  -0.13   0.11
    31   1    -0.04   0.12   0.03    -0.01   0.02  -0.02    -0.09   0.09  -0.04
    32   1    -0.23   0.04   0.31     0.16   0.07  -0.16    -0.08   0.09   0.09
    33   1     0.19  -0.06   0.31    -0.15   0.10  -0.17     0.02   0.01   0.08
    34   1    -0.05  -0.07  -0.29     0.03   0.14   0.33    -0.03   0.02  -0.03
    35   1     0.16   0.21  -0.20    -0.08  -0.18   0.23     0.01   0.06  -0.02
    36   1     0.01  -0.06  -0.07    -0.07   0.12   0.02     0.00   0.04  -0.02
    37   1    -0.03  -0.00  -0.05     0.06   0.07  -0.04    -0.04  -0.06   0.02
    38   1     0.08  -0.03  -0.04     0.09  -0.14  -0.15    -0.04   0.10   0.10
    39   1    -0.01  -0.02  -0.07     0.01   0.01  -0.25     0.04  -0.02   0.19
    40   1    -0.08  -0.07   0.07    -0.08   0.00  -0.04     0.08  -0.09   0.02
    41   1     0.02  -0.03   0.12     0.03  -0.04  -0.04     0.01  -0.02   0.04
    42   1    -0.02  -0.01   0.06     0.06  -0.06   0.03    -0.05  -0.02  -0.05
    43   1    -0.04  -0.07   0.01    -0.06  -0.09  -0.03     0.28  -0.11  -0.04
    44   1    -0.11  -0.07   0.03    -0.00  -0.09   0.02    -0.16  -0.13  -0.01
    45   1    -0.07  -0.01   0.08    -0.03  -0.15   0.02     0.05   0.27  -0.01
    46   1     0.03  -0.04  -0.01    -0.01  -0.07   0.00    -0.01  -0.03   0.00
    47   1    -0.02  -0.04  -0.03    -0.11   0.07   0.07    -0.08   0.06   0.04
    48   1    -0.04  -0.02  -0.04    -0.05  -0.03   0.13    -0.04  -0.03   0.09
    49   1    -0.06  -0.03   0.00     0.02   0.07  -0.01     0.02   0.04  -0.03
    50   1    -0.05   0.01   0.03    -0.06   0.05  -0.05    -0.05   0.03  -0.05
    51   1    -0.00   0.12   0.05     0.07  -0.04  -0.02    -0.08   0.02  -0.07
    52   1     0.06   0.04  -0.03    -0.06   0.18   0.02    -0.12   0.06  -0.01
    53   1     0.11   0.13  -0.01    -0.19  -0.04  -0.03    -0.13   0.02  -0.07
    54   1     0.03  -0.11   0.03    -0.01  -0.14   0.08     0.02   0.21  -0.12
    55   1    -0.03   0.02   0.09    -0.01   0.02   0.17    -0.03  -0.01  -0.25
    56   1    -0.00   0.05  -0.24     0.02   0.04  -0.12     0.05   0.03   0.20
    57   1    -0.19   0.06  -0.10    -0.09   0.10  -0.04     0.22  -0.10   0.06
    58   1     0.07  -0.03   0.11     0.07  -0.04  -0.00     0.07  -0.02   0.01
    59   1    -0.03  -0.09   0.07     0.02  -0.03  -0.01     0.12  -0.04   0.01
                     10                     11                     12
                      A                      A                      A
 Frequencies --    196.5616               200.9842               206.5481
 Red. masses --      2.7560                 1.3015                 3.3649
 Frc consts  --      0.0627                 0.0310                 0.0846
 IR Inten    --      0.0835                 0.0937                 0.0605
  Atom  AN      X      Y      Z        X      Y      Z        X      Y      Z
     1   6    -0.05   0.04  -0.01    -0.02  -0.03   0.00     0.18   0.05   0.02
     2   6    -0.06  -0.01  -0.00    -0.01  -0.00  -0.00     0.10   0.05  -0.03
     3   6    -0.10  -0.01   0.03    -0.03  -0.02   0.01     0.06  -0.02   0.01
     4   6    -0.03  -0.02  -0.03    -0.02   0.01  -0.00     0.05   0.07  -0.06
     5   6    -0.03  -0.05   0.10    -0.01   0.01  -0.01     0.08   0.06   0.06
     6   6    -0.03  -0.01  -0.02    -0.00   0.02  -0.05     0.10   0.02  -0.02
     7   6    -0.00   0.00  -0.03     0.00  -0.00   0.02     0.04  -0.03  -0.01
     8   6     0.00   0.05  -0.01     0.00  -0.01   0.04    -0.01  -0.05   0.05
     9   6     0.04   0.00  -0.09    -0.00  -0.00   0.05    -0.08  -0.05  -0.00
    10   6     0.03   0.02   0.01     0.02   0.00  -0.04    -0.09  -0.00  -0.05
    11   6     0.05   0.02   0.05     0.02  -0.01  -0.01    -0.10  -0.01  -0.02
    12   6     0.04   0.03   0.05     0.02  -0.01  -0.01    -0.04  -0.03   0.03
    13   6     0.11  -0.02   0.04     0.07  -0.00  -0.02     0.05  -0.03   0.02
    14   6     0.03   0.03   0.08     0.00   0.00   0.01    -0.03  -0.07   0.08
    15   6     0.02   0.05   0.13    -0.01  -0.00  -0.02    -0.04  -0.06   0.09
    16   6     0.08   0.01  -0.07    -0.02   0.01  -0.00    -0.00  -0.02  -0.05
    17   6     0.00  -0.03  -0.08    -0.02   0.01   0.01     0.02  -0.00  -0.06
    18   6    -0.04  -0.09  -0.09    -0.04   0.01   0.00     0.01  -0.04  -0.06
    19   6     0.06  -0.02   0.03     0.01  -0.02   0.04    -0.11   0.06  -0.04
    20   6     0.01  -0.02  -0.05     0.02   0.01   0.00    -0.06   0.05   0.06
    21   6    -0.02  -0.00  -0.03     0.02   0.00  -0.01    -0.06   0.03   0.01
    22   8    -0.07  -0.01   0.02     0.02   0.02   0.02    -0.06   0.02  -0.02
    23   6    -0.02   0.04  -0.03     0.01  -0.01  -0.02    -0.05   0.01  -0.02
    24   1    -0.07   0.06   0.01    -0.02  -0.03  -0.02     0.26   0.00   0.13
    25   1    -0.06   0.06  -0.01    -0.02  -0.05   0.01     0.25   0.15  -0.04
    26   1    -0.04   0.05  -0.04    -0.01  -0.02   0.02     0.10  -0.01   0.01
    27   1    -0.08  -0.01   0.02     0.00   0.01  -0.01     0.15   0.07  -0.04
    28   1    -0.12   0.02   0.08     0.03  -0.10   0.01     0.13  -0.09   0.04
    29   1    -0.14  -0.07   0.02    -0.03   0.05  -0.02     0.05   0.04  -0.01
    30   1    -0.07  -0.01   0.01    -0.12  -0.05   0.06    -0.04  -0.05   0.04
    31   1    -0.09   0.04  -0.05    -0.02   0.01  -0.00     0.04   0.14  -0.06
    32   1    -0.17   0.00   0.22    -0.04   0.01   0.01     0.00   0.12   0.14
    33   1     0.09  -0.15   0.20     0.02   0.01   0.01     0.16  -0.00   0.13
    34   1    -0.09  -0.04  -0.07    -0.00  -0.03  -0.11     0.12  -0.02  -0.07
    35   1     0.03   0.04  -0.04    -0.00   0.09  -0.07     0.16   0.07  -0.04
    36   1     0.01   0.02  -0.03     0.03  -0.02   0.02     0.09  -0.01  -0.01
    37   1    -0.01   0.13  -0.01     0.01  -0.03   0.04    -0.03  -0.02   0.05
    38   1     0.12  -0.10  -0.11    -0.06   0.02   0.05    -0.12  -0.08  -0.00
    39   1     0.03   0.05  -0.21     0.02  -0.01   0.09    -0.10  -0.06  -0.01
    40   1    -0.05   0.03   0.02     0.08   0.06  -0.05    -0.06   0.04  -0.05
    41   1     0.04   0.02   0.03    -0.01  -0.02  -0.10    -0.10  -0.02  -0.10
    42   1     0.05   0.01   0.05     0.05  -0.02  -0.02    -0.13  -0.06  -0.01
    43   1     0.13  -0.03   0.03    -0.37   0.24   0.08    -0.00   0.00   0.05
    44   1     0.13  -0.03   0.08     0.51   0.27  -0.02     0.13   0.01   0.05
    45   1     0.12  -0.03  -0.01     0.08  -0.51  -0.11     0.06  -0.10  -0.04
    46   1     0.03  -0.03   0.08    -0.01   0.03   0.01    -0.05  -0.10   0.08
    47   1    -0.11   0.15   0.15    -0.01  -0.04  -0.03    -0.13  -0.04   0.10
    48   1     0.08   0.01   0.27    -0.02   0.01  -0.05    -0.01  -0.08   0.15
    49   1     0.22   0.06  -0.07    -0.04   0.01   0.00     0.10   0.01  -0.05
    50   1     0.06  -0.02  -0.17    -0.02   0.01   0.00    -0.07  -0.01  -0.11
    51   1     0.03  -0.16  -0.15    -0.08   0.04  -0.00     0.01  -0.05  -0.09
    52   1    -0.07  -0.00  -0.04    -0.04  -0.03   0.01     0.01  -0.05  -0.06
    53   1    -0.15  -0.16  -0.08    -0.00   0.04  -0.00     0.02  -0.05  -0.04
    54   1     0.10  -0.06   0.02    -0.03  -0.07   0.05    -0.12   0.15  -0.04
    55   1     0.08  -0.01   0.04     0.03   0.00   0.10    -0.15   0.04  -0.11
    56   1     0.02  -0.06  -0.10     0.02   0.00   0.00    -0.09   0.06   0.15
    57   1    -0.05   0.01  -0.04     0.01   0.04   0.01     0.03   0.02   0.06
    58   1    -0.03   0.03  -0.08     0.02  -0.01  -0.01    -0.04  -0.01  -0.06
    59   1    -0.04   0.12  -0.03     0.00  -0.02  -0.02    -0.05   0.05  -0.02
                     13                     14                     15
                      A                      A                      A
 Frequencies --    232.2184               245.9962               252.3997
 Red. masses --      1.1486                 1.3651                 1.9700
 Frc consts  --      0.0365                 0.0487                 0.0739
 IR Inten    --      0.0163                 0.0178                 0.0622
  Atom  AN      X      Y      Z        X      Y      Z        X      Y      Z
     1   6     0.03  -0.02   0.01     0.03   0.01  -0.03     0.03   0.02  -0.00
     2   6     0.01  -0.01  -0.01     0.00   0.01  -0.05     0.00  -0.00  -0.01
     3   6     0.00   0.03  -0.01    -0.07  -0.01   0.01    -0.02  -0.02   0.01
     4   6    -0.00  -0.01  -0.01     0.00   0.01  -0.03     0.01  -0.01  -0.03
     5   6    -0.04  -0.02   0.01     0.02  -0.00   0.03     0.03  -0.02   0.07
     6   6    -0.04   0.01   0.01     0.02  -0.02   0.03     0.04  -0.05   0.07
     7   6    -0.02   0.02   0.00     0.01  -0.02   0.01     0.02  -0.02  -0.06
     8   6    -0.01   0.01   0.01     0.01  -0.01  -0.01     0.01  -0.04  -0.07
     9   6     0.00   0.01   0.01     0.01  -0.01  -0.00     0.00   0.02   0.07
    10   6     0.00  -0.01  -0.00     0.02   0.02  -0.01     0.01  -0.00   0.06
    11   6    -0.00  -0.01  -0.01     0.03   0.02   0.01     0.00   0.02  -0.02
    12   6     0.00  -0.01  -0.00     0.00   0.02  -0.01    -0.01   0.02  -0.06
    13   6     0.01  -0.02  -0.01    -0.04   0.05  -0.01    -0.08   0.09  -0.05
    14   6    -0.01   0.00   0.00     0.01   0.00  -0.02     0.00  -0.02  -0.07
    15   6    -0.01   0.01   0.01     0.02  -0.00  -0.01     0.01   0.01   0.07
    16   6    -0.01   0.01  -0.00    -0.00  -0.04   0.06     0.02  -0.05   0.04
    17   6    -0.01   0.01  -0.01    -0.01  -0.02   0.01     0.01  -0.02  -0.05
    18   6    -0.00   0.02  -0.01    -0.03   0.00   0.01    -0.04   0.07  -0.05
    19   6    -0.00  -0.00  -0.01     0.03  -0.02   0.04    -0.00  -0.01   0.02
    20   6     0.01  -0.00   0.01     0.00  -0.01  -0.02    -0.01  -0.01  -0.00
    21   6     0.02  -0.00   0.01    -0.01   0.00  -0.02    -0.00  -0.01  -0.00
    22   8     0.03   0.00   0.00    -0.02  -0.00   0.00    -0.01  -0.01   0.00
    23   6     0.01  -0.01   0.00    -0.00   0.02  -0.01     0.00  -0.00  -0.00
    24   1     0.30  -0.20   0.25     0.25  -0.14   0.20    -0.05   0.08  -0.04
    25   1     0.08   0.37  -0.08     0.06   0.36  -0.11     0.04  -0.07   0.01
    26   1    -0.26  -0.23  -0.14    -0.23  -0.17  -0.17     0.11   0.08   0.04
    27   1     0.01  -0.02  -0.03     0.01   0.01  -0.07    -0.00  -0.01   0.00
    28   1    -0.23   0.33   0.10     0.11  -0.24  -0.02    -0.10   0.10   0.08
    29   1    -0.08  -0.32   0.07    -0.08   0.25  -0.10    -0.06  -0.17   0.04
    30   1     0.33   0.13  -0.21    -0.33  -0.08   0.20     0.10   0.01  -0.09
    31   1    -0.00   0.01  -0.01     0.02   0.03  -0.03    -0.03   0.04  -0.04
    32   1    -0.06  -0.01   0.03     0.00   0.03   0.05     0.02   0.05   0.11
    33   1    -0.03  -0.06   0.03     0.03  -0.04   0.04     0.05  -0.06   0.09
    34   1    -0.06   0.01   0.00     0.03  -0.01   0.03     0.02   0.02   0.16
    35   1    -0.05   0.01   0.00     0.04  -0.02   0.03     0.09  -0.16   0.11
    36   1    -0.01   0.03   0.00    -0.00  -0.02   0.01    -0.02   0.03  -0.07
    37   1    -0.01   0.01   0.01     0.01  -0.02  -0.01    -0.01  -0.10  -0.07
    38   1    -0.01   0.02   0.01     0.01  -0.01  -0.00    -0.00   0.15   0.08
    39   1     0.01   0.01   0.02     0.00  -0.01  -0.01    -0.01  -0.04   0.17
    40   1     0.01  -0.01  -0.00     0.02   0.03  -0.01     0.02  -0.06   0.06
    41   1     0.01  -0.01  -0.01     0.00   0.02  -0.02     0.00   0.03   0.11
    42   1    -0.00  -0.02  -0.01     0.06   0.03   0.00     0.01   0.08  -0.02
    43   1    -0.03  -0.00  -0.00     0.02   0.02  -0.01    -0.27   0.20   0.01
    44   1     0.06   0.00   0.00    -0.12   0.02  -0.04     0.06   0.22  -0.12
    45   1     0.02  -0.07  -0.02    -0.05   0.13   0.04    -0.09  -0.09  -0.02
    46   1    -0.01   0.00   0.00     0.00   0.01  -0.02    -0.02  -0.09  -0.08
    47   1    -0.02   0.01   0.01     0.07  -0.01  -0.01    -0.03   0.17   0.10
    48   1    -0.01   0.00   0.02     0.01   0.00  -0.03     0.02  -0.06   0.21
    49   1     0.00   0.01  -0.00    -0.05  -0.12   0.06     0.03  -0.15   0.04
    50   1    -0.01   0.01  -0.00     0.03  -0.03   0.14     0.02  -0.03   0.12
    51   1    -0.05   0.06   0.00    -0.22   0.11   0.00     0.16  -0.03  -0.01
    52   1    -0.00  -0.03  -0.02    -0.04  -0.21   0.00    -0.05   0.34   0.01
    53   1     0.05   0.06  -0.00     0.15   0.11   0.03    -0.26  -0.02  -0.14
    54   1    -0.01   0.01  -0.01     0.02  -0.09   0.05    -0.03  -0.06   0.03
    55   1    -0.01  -0.00  -0.01     0.05  -0.00   0.10     0.03  -0.00   0.07
    56   1     0.01   0.01   0.02     0.01  -0.02  -0.07    -0.00  -0.00  -0.01
    57   1     0.03  -0.01   0.01    -0.05   0.03  -0.02    -0.02   0.01  -0.00
    58   1     0.02  -0.01   0.01    -0.01   0.02  -0.01    -0.01   0.01   0.03
    59   1     0.02  -0.02  -0.00    -0.01   0.02  -0.01     0.01  -0.04  -0.01
                     16                     17                     18
                      A                      A                      A
 Frequencies --    262.2802               278.9747               289.8762
 Red. masses --      2.0323                 2.1523                 1.6234
 Frc consts  --      0.0824                 0.0987                 0.0804
 IR Inten    --      0.0079                 0.2928                 0.0172
  Atom  AN      X      Y      Z        X      Y      Z        X      Y      Z
     1   6    -0.04   0.01  -0.03     0.04   0.11  -0.04     0.04   0.02  -0.02
     2   6    -0.03  -0.00  -0.02     0.00  -0.02  -0.03    -0.01  -0.02  -0.05
     3   6    -0.04   0.00  -0.02    -0.02   0.02  -0.02    -0.08  -0.05  -0.01
     4   6    -0.01  -0.01   0.01     0.02  -0.06  -0.00    -0.01  -0.01  -0.04
     5   6    -0.01  -0.01   0.00    -0.05  -0.09   0.02    -0.01  -0.02   0.03
     6   6    -0.02  -0.03   0.07    -0.09  -0.01  -0.01    -0.02  -0.02   0.06
     7   6    -0.01   0.01  -0.05    -0.02   0.03   0.01     0.00   0.01  -0.00
     8   6    -0.01  -0.00  -0.05    -0.01   0.05   0.03    -0.01  -0.01   0.04
     9   6     0.00  -0.01  -0.05    -0.02   0.06   0.06    -0.01  -0.01   0.03
    10   6    -0.05  -0.02   0.11     0.01  -0.00  -0.07     0.01   0.02  -0.07
    11   6    -0.03   0.02   0.03    -0.02  -0.04  -0.04     0.01  -0.01   0.00
    12   6     0.01  -0.00   0.03    -0.02  -0.03  -0.02     0.01  -0.01   0.03
    13   6     0.11  -0.01   0.02    -0.05  -0.08  -0.02     0.04  -0.02   0.03
    14   6     0.01  -0.02   0.01    -0.02   0.03   0.01     0.00   0.00   0.03
    15   6     0.01  -0.03  -0.03     0.01   0.04   0.05     0.01  -0.02  -0.03
    16   6     0.00  -0.01  -0.00     0.04   0.02  -0.01    -0.00  -0.02   0.01
    17   6     0.02   0.00  -0.02     0.03  -0.00   0.01     0.00   0.01  -0.04
    18   6     0.13   0.10  -0.00     0.12   0.01   0.02     0.04   0.11  -0.03
    19   6    -0.01   0.05  -0.08    -0.04  -0.03   0.01     0.00  -0.01   0.04
    20   6    -0.01  -0.01   0.02    -0.01   0.00   0.01    -0.00   0.01  -0.01
    21   6    -0.01  -0.01   0.03     0.02  -0.01   0.01    -0.01   0.01  -0.01
    22   8    -0.01  -0.02  -0.01     0.06   0.01   0.00    -0.01   0.01   0.00
    23   6    -0.01  -0.00   0.02     0.01  -0.04   0.00    -0.01   0.00  -0.00
    24   1     0.02  -0.03   0.05     0.03   0.15   0.08    -0.16   0.16  -0.15
    25   1    -0.03   0.13  -0.05     0.07   0.20  -0.08     0.06  -0.24   0.00
    26   1    -0.11  -0.04  -0.09     0.05   0.10  -0.13     0.26   0.17   0.09
    27   1    -0.04  -0.01  -0.01    -0.06  -0.04  -0.01    -0.02  -0.02  -0.04
    28   1     0.06  -0.12  -0.07     0.11  -0.16  -0.10    -0.16   0.08   0.13
    29   1    -0.01   0.16  -0.06     0.00   0.27  -0.10    -0.16  -0.24   0.02
    30   1    -0.17  -0.03   0.09    -0.22  -0.02   0.17     0.04  -0.03  -0.12
    31   1    -0.01  -0.01   0.01     0.05  -0.04   0.00    -0.01   0.03  -0.05
    32   1     0.05  -0.01  -0.04    -0.12  -0.10   0.06    -0.02   0.03   0.06
    33   1    -0.07  -0.00  -0.04    -0.02  -0.14   0.06    -0.00  -0.07   0.04
    34   1    -0.03   0.05   0.18    -0.14  -0.02  -0.04    -0.03   0.03   0.12
    35   1    -0.02  -0.16   0.12    -0.10   0.03  -0.02    -0.02  -0.07   0.08
    36   1    -0.05   0.05  -0.05    -0.00   0.04   0.01     0.02   0.07  -0.00
    37   1    -0.01   0.03  -0.05    -0.01   0.03   0.02    -0.02  -0.00   0.04
    38   1     0.12  -0.05  -0.06    -0.12   0.16   0.07    -0.09   0.00   0.03
    39   1    -0.05  -0.01  -0.13     0.04   0.04   0.18     0.01  -0.01   0.06
    40   1    -0.16  -0.15   0.13     0.10   0.05  -0.08     0.08   0.12  -0.09
    41   1    -0.00   0.02   0.26     0.02  -0.04  -0.15    -0.02  -0.02  -0.19
    42   1    -0.10   0.05   0.04    -0.00  -0.07  -0.04     0.03  -0.06   0.00
    43   1    -0.04   0.08   0.08    -0.07  -0.09  -0.08     0.16  -0.08   0.01
    44   1     0.32   0.10   0.06    -0.06  -0.10  -0.00    -0.05  -0.09   0.05
    45   1     0.14  -0.21  -0.09    -0.06  -0.10   0.01     0.05   0.10   0.02
    46   1     0.05  -0.03   0.01    -0.05   0.02   0.01     0.01   0.03   0.04
    47   1     0.03  -0.08  -0.04    -0.04   0.09   0.06     0.06  -0.10  -0.04
    48   1     0.00  -0.01  -0.07     0.04   0.02   0.11     0.00   0.01  -0.11
    49   1    -0.01  -0.03  -0.00     0.09   0.06  -0.01    -0.03  -0.07   0.01
    50   1    -0.00  -0.00   0.02     0.03   0.01  -0.06    -0.00  -0.00   0.06
    51   1     0.15   0.13   0.11     0.34  -0.10   0.08    -0.18   0.28   0.06
    52   1     0.17   0.13  -0.08     0.16   0.25  -0.03     0.06  -0.13  -0.09
    53   1     0.17   0.13  -0.01    -0.04  -0.09   0.02     0.30   0.28  -0.04
    54   1     0.05   0.18  -0.10    -0.09  -0.05   0.02    -0.01  -0.05   0.04
    55   1    -0.06   0.00  -0.22    -0.03  -0.01   0.06     0.01   0.00   0.07
    56   1    -0.02   0.01   0.06    -0.01   0.02   0.03    -0.00  -0.00  -0.02
    57   1     0.03  -0.07   0.02     0.01   0.01   0.01    -0.02   0.04  -0.00
    58   1    -0.01   0.00   0.03     0.03  -0.04   0.03    -0.00  -0.00  -0.01
    59   1    -0.00  -0.00   0.02     0.02  -0.08  -0.00    -0.03   0.03   0.00
                     19                     20                     21
                      A                      A                      A
 Frequencies --    297.9767               303.2334               316.2926
 Red. masses --      1.9402                 1.5835                 2.4783
 Frc consts  --      0.1015                 0.0858                 0.1461
 IR Inten    --      0.0201                 0.1488                 0.7112
  Atom  AN      X      Y      Z        X      Y      Z        X      Y      Z
     1   6     0.13   0.08  -0.00     0.08   0.05  -0.02     0.01   0.01   0.02
     2   6     0.05  -0.01  -0.03     0.00   0.00  -0.06     0.01   0.01   0.02
     3   6     0.02  -0.00  -0.01    -0.05  -0.04  -0.02     0.05   0.02   0.00
     4   6     0.02  -0.02  -0.03    -0.00   0.01  -0.02    -0.00   0.00   0.00
     5   6    -0.04  -0.04   0.02    -0.01  -0.00   0.02    -0.01   0.00  -0.00
     6   6    -0.07   0.01   0.01    -0.01   0.01  -0.02    -0.01   0.00  -0.00
     7   6    -0.03   0.02   0.03    -0.01  -0.02   0.05    -0.02   0.00  -0.02
     8   6    -0.01   0.05  -0.03    -0.00  -0.01   0.03    -0.02  -0.00  -0.03
     9   6     0.01   0.02  -0.06    -0.00  -0.03  -0.03    -0.06   0.02   0.01
    10   6    -0.02  -0.02   0.08    -0.01   0.00   0.01    -0.06   0.00   0.01
    11   6    -0.01   0.01   0.00     0.02   0.01   0.02    -0.02   0.03  -0.03
    12   6    -0.01   0.00  -0.03     0.01   0.01   0.02     0.02   0.00  -0.07
    13   6    -0.02  -0.02  -0.03     0.05   0.01   0.02     0.21   0.06  -0.09
    14   6    -0.01   0.03  -0.03     0.01   0.01  -0.00     0.01   0.01  -0.04
    15   6     0.00   0.04   0.00     0.00  -0.02  -0.11     0.02   0.02  -0.01
    16   6    -0.00   0.00   0.05    -0.04  -0.00   0.03     0.01   0.01  -0.00
    17   6    -0.01   0.00   0.03    -0.03  -0.00   0.05    -0.00   0.00  -0.01
    18   6    -0.09  -0.07   0.02    -0.05   0.01   0.06    -0.03  -0.00  -0.02
    19   6     0.00   0.01  -0.05     0.03   0.01   0.00    -0.05  -0.04   0.13
    20   6     0.00  -0.02   0.01     0.01  -0.00  -0.01    -0.11  -0.01   0.01
    21   6     0.02  -0.02   0.03    -0.00   0.00   0.00    -0.02  -0.06   0.03
    22   8     0.04  -0.02   0.00    -0.01  -0.01   0.00     0.06  -0.01   0.02
    23   6     0.01  -0.02   0.02     0.00   0.01   0.01    -0.02  -0.09   0.03
    24   1    -0.05   0.22  -0.04     0.08   0.07   0.06     0.02  -0.00   0.02
    25   1     0.17  -0.11  -0.00     0.15   0.06  -0.07     0.00   0.02   0.02
    26   1     0.33   0.21   0.07     0.09   0.05  -0.01    -0.01  -0.00   0.01
    27   1     0.03  -0.02  -0.03     0.01   0.00  -0.05     0.01   0.01   0.02
    28   1     0.02  -0.00   0.01    -0.06   0.00   0.07     0.06  -0.01  -0.06
    29   1     0.00   0.00  -0.02    -0.10  -0.13  -0.02     0.09   0.08   0.00
    30   1     0.02   0.00   0.01    -0.03  -0.04  -0.08     0.02   0.02   0.03
    31   1     0.05   0.01  -0.02     0.04   0.03  -0.01    -0.01   0.00   0.00
    32   1    -0.10  -0.03   0.07    -0.06   0.02   0.07    -0.01  -0.00  -0.01
    33   1    -0.00  -0.10   0.06     0.04  -0.03   0.06    -0.02   0.01  -0.01
    34   1    -0.09  -0.01  -0.02    -0.00  -0.04  -0.08    -0.01   0.01   0.01
    35   1    -0.08   0.05  -0.00    -0.01   0.08  -0.04    -0.01  -0.01   0.00
    36   1    -0.06   0.01   0.03     0.00  -0.05   0.05    -0.03   0.00  -0.02
    37   1     0.02   0.06  -0.02     0.03   0.01   0.03    -0.01  -0.03  -0.03
    38   1     0.11  -0.05  -0.08     0.03  -0.10  -0.03    -0.08   0.08   0.02
    39   1    -0.00   0.05  -0.16    -0.02  -0.01  -0.10    -0.06  -0.00   0.07
    40   1    -0.13  -0.14   0.10    -0.04   0.01   0.01    -0.08  -0.05   0.02
    41   1     0.03   0.02   0.22    -0.02   0.01   0.02    -0.05   0.02   0.06
    42   1    -0.04   0.06   0.00     0.02   0.01   0.02     0.07   0.08  -0.04
    43   1    -0.14   0.03  -0.04     0.11  -0.02   0.02     0.47  -0.03  -0.01
    44   1     0.10   0.03  -0.01     0.01  -0.02   0.03     0.11  -0.04  -0.03
    45   1    -0.02  -0.17  -0.05     0.05   0.08  -0.01     0.25   0.29  -0.22
    46   1    -0.02   0.03  -0.03     0.03   0.07   0.00     0.01   0.01  -0.04
    47   1     0.04   0.06   0.00     0.10  -0.16  -0.13     0.04   0.06  -0.01
    48   1     0.00   0.04   0.01    -0.04   0.03  -0.26     0.01   0.01  -0.00
    49   1    -0.04  -0.05   0.05    -0.14  -0.02   0.03     0.01   0.00  -0.00
    50   1     0.02   0.01   0.11    -0.01  -0.00   0.08     0.03   0.01   0.00
    51   1    -0.34   0.06  -0.08     0.34  -0.21   0.09    -0.03  -0.01  -0.04
    52   1    -0.11  -0.38   0.03    -0.03   0.46   0.08    -0.04  -0.01   0.00
    53   1     0.14   0.05   0.08    -0.42  -0.19  -0.01    -0.04  -0.01  -0.02
    54   1     0.03   0.07  -0.06     0.05   0.02  -0.01    -0.13  -0.17   0.15
    55   1    -0.01  -0.01  -0.11     0.02   0.00  -0.02     0.05  -0.01   0.27
    56   1     0.00   0.00   0.02     0.01  -0.01  -0.03    -0.07  -0.00  -0.13
    57   1     0.02  -0.06   0.01    -0.01  -0.01  -0.01    -0.27   0.05   0.02
    58   1     0.01  -0.01   0.05    -0.01   0.01  -0.00    -0.04  -0.03   0.18
    59   1     0.04  -0.07   0.01    -0.00   0.03   0.01    -0.02  -0.25   0.03
                     22                     23                     24
                      A                      A                      A
 Frequencies --    321.1402               331.4971               363.1039
 Red. masses --      2.8166                 2.5667                 2.5099
 Frc consts  --      0.1711                 0.1662                 0.1950
 IR Inten    --      0.0879                 0.0598                 0.3074
  Atom  AN      X      Y      Z        X      Y      Z        X      Y      Z
     1   6     0.06   0.04   0.01    -0.01  -0.05  -0.05    -0.05  -0.01  -0.07
     2   6    -0.00   0.00  -0.01    -0.05   0.03  -0.09     0.04  -0.04  -0.00
     3   6     0.04   0.00  -0.04    -0.15  -0.10  -0.03    -0.06   0.00   0.07
     4   6    -0.03   0.01   0.01    -0.02   0.06   0.00     0.07  -0.05  -0.01
     5   6    -0.08   0.00  -0.02     0.04   0.09  -0.02     0.05  -0.06   0.01
     6   6    -0.09   0.03  -0.01     0.07   0.04  -0.03     0.02   0.02  -0.00
     7   6    -0.05   0.02   0.01     0.02   0.00   0.03     0.04   0.03   0.09
     8   6    -0.04  -0.05   0.03     0.02   0.03  -0.01     0.04  -0.01   0.07
     9   6     0.03  -0.10   0.01     0.01   0.04  -0.01     0.04  -0.07  -0.03
    10   6     0.02  -0.07   0.05    -0.01  -0.00   0.03     0.00  -0.08   0.04
    11   6     0.04  -0.02  -0.02    -0.02   0.01  -0.02    -0.02  -0.03  -0.05
    12   6    -0.00  -0.00  -0.03    -0.01  -0.00  -0.05    -0.01  -0.03  -0.05
    13   6     0.01   0.20  -0.02    -0.01   0.01  -0.05    -0.04   0.05  -0.05
    14   6    -0.05  -0.07   0.04    -0.01   0.01  -0.01     0.01  -0.01   0.01
    15   6    -0.07  -0.08   0.06    -0.01   0.04   0.06     0.05  -0.01  -0.02
    16   6    -0.05   0.02  -0.04    -0.00   0.01   0.04     0.09   0.08  -0.07
    17   6    -0.03   0.02   0.00    -0.00   0.01   0.05     0.06   0.01   0.04
    18   6     0.10  -0.02   0.01     0.15  -0.12   0.07    -0.06   0.09   0.03
    19   6     0.04  -0.05   0.05    -0.03  -0.00   0.01    -0.05   0.02   0.01
    20   6     0.08   0.00  -0.02    -0.04  -0.00   0.02    -0.04   0.03   0.04
    21   6     0.03   0.02  -0.05    -0.01  -0.01   0.02    -0.05   0.02  -0.02
    22   8    -0.01   0.02   0.01     0.03   0.00  -0.00    -0.01   0.05  -0.01
    23   6     0.02   0.04  -0.07    -0.01  -0.04   0.01    -0.04  -0.06  -0.01
    24   1     0.01   0.09   0.05    -0.02  -0.05  -0.08    -0.07  -0.00  -0.14
    25   1     0.12  -0.01  -0.02     0.03  -0.12  -0.07    -0.16   0.01  -0.00
    26   1     0.12   0.08   0.05    -0.01  -0.03   0.04    -0.03  -0.02  -0.16
    27   1    -0.00   0.00  -0.01    -0.01   0.05  -0.11     0.01  -0.05   0.00
    28   1     0.05  -0.03  -0.10    -0.20   0.03   0.21    -0.09   0.05   0.17
    29   1     0.09   0.05  -0.02    -0.27  -0.37   0.00    -0.20  -0.03  -0.00
    30   1     0.02  -0.00  -0.04    -0.07  -0.11  -0.21    -0.04   0.03   0.13
    31   1     0.00   0.01   0.01     0.04   0.05   0.01     0.08  -0.06  -0.00
    32   1    -0.08  -0.03  -0.03     0.07   0.09  -0.04     0.00  -0.06   0.04
    33   1    -0.08   0.01  -0.03     0.04   0.13  -0.03     0.06  -0.11   0.03
    34   1    -0.09   0.01  -0.03     0.12   0.01  -0.07     0.00  -0.04  -0.09
    35   1    -0.11   0.06  -0.02     0.06   0.09  -0.04    -0.02   0.14  -0.04
    36   1    -0.04   0.04   0.01     0.01  -0.04   0.03     0.07   0.03   0.09
    37   1    -0.06  -0.04   0.03     0.05   0.04  -0.01     0.09   0.01   0.07
    38   1     0.08  -0.17   0.00     0.04   0.04  -0.02     0.11  -0.20  -0.05
    39   1     0.02  -0.07  -0.07     0.01   0.03  -0.02     0.02  -0.01  -0.16
    40   1    -0.00  -0.13   0.06    -0.04  -0.08   0.04    -0.05  -0.19   0.05
    41   1    -0.02  -0.03   0.12     0.03   0.02   0.11     0.04  -0.04   0.15
    42   1     0.07   0.04  -0.02    -0.01   0.05  -0.02    -0.01   0.01  -0.05
    43   1     0.06   0.23   0.13    -0.02   0.02  -0.04    -0.04   0.06  -0.01
    44   1    -0.07   0.25  -0.16     0.00   0.02  -0.05    -0.08   0.07  -0.11
    45   1    -0.00   0.33   0.01    -0.01  -0.01  -0.05    -0.06   0.09  -0.01
    46   1    -0.10  -0.10   0.04    -0.05  -0.02  -0.02    -0.05   0.03   0.01
    47   1    -0.13  -0.07   0.07    -0.01   0.10   0.07     0.01  -0.04  -0.02
    48   1    -0.08  -0.10   0.09    -0.00   0.01   0.12     0.05   0.00  -0.04
    49   1     0.04   0.12  -0.04     0.01  -0.00   0.04     0.17   0.30  -0.07
    50   1    -0.13   0.03  -0.16     0.00   0.01   0.05     0.04   0.03  -0.29
    51   1     0.09   0.00   0.05     0.19  -0.15   0.04    -0.13   0.13   0.06
    52   1     0.15  -0.08  -0.09     0.22  -0.18  -0.07    -0.11   0.09   0.13
    53   1     0.20   0.00   0.09     0.22  -0.16   0.23    -0.07   0.14  -0.09
    54   1     0.00  -0.15   0.06    -0.06  -0.01   0.02    -0.10   0.03   0.01
    55   1     0.06  -0.01   0.16    -0.01  -0.00   0.03    -0.06   0.02   0.02
    56   1     0.07  -0.02   0.02    -0.03   0.01   0.00    -0.06   0.01   0.10
    57   1     0.11   0.07  -0.01    -0.05  -0.01   0.02     0.03   0.05   0.04
    58   1     0.03   0.01  -0.15    -0.01  -0.01   0.06     0.01  -0.04   0.09
    59   1     0.03   0.12  -0.07     0.01  -0.10   0.00    -0.08  -0.15  -0.00
                     25                     26                     27
                      A                      A                      A
 Frequencies --    372.0618               401.6611               416.6759
 Red. masses --      2.7821                 2.3711                 2.6789
 Frc consts  --      0.2269                 0.2254                 0.2740
 IR Inten    --      1.0584                 0.5239                 0.1490
  Atom  AN      X      Y      Z        X      Y      Z        X      Y      Z
     1   6    -0.01   0.00   0.01     0.05   0.02   0.05    -0.04  -0.01   0.01
     2   6     0.00   0.00   0.01    -0.06  -0.01  -0.02     0.01   0.02   0.03
     3   6     0.02   0.01   0.00    -0.00  -0.02  -0.08     0.03   0.02   0.03
     4   6    -0.00   0.00  -0.01    -0.04  -0.01   0.03    -0.00   0.02  -0.04
     5   6    -0.01  -0.01   0.00    -0.01  -0.00   0.00    -0.03   0.01  -0.01
     6   6    -0.02  -0.00   0.00     0.01  -0.03  -0.00    -0.05   0.04  -0.00
     7   6     0.01   0.03  -0.05    -0.02  -0.05   0.01     0.01   0.04   0.04
     8   6     0.01   0.05  -0.03     0.02  -0.08  -0.06    -0.01  -0.03   0.13
     9   6     0.12   0.03   0.01     0.01  -0.05   0.03     0.03  -0.10   0.01
    10   6     0.12  -0.10  -0.00     0.03   0.00  -0.02     0.02   0.07   0.01
    11   6     0.02  -0.10  -0.04     0.08   0.03  -0.00     0.06   0.10  -0.03
    12   6    -0.03  -0.05   0.01     0.02   0.02  -0.02    -0.00   0.06  -0.09
    13   6     0.05   0.01   0.02     0.01  -0.06  -0.03    -0.04  -0.07  -0.12
    14   6    -0.03   0.02   0.00     0.03  -0.03  -0.07    -0.05  -0.02   0.04
    15   6    -0.02  -0.00  -0.02    -0.03   0.03   0.03     0.01  -0.08   0.03
    16   6    -0.05  -0.07   0.07    -0.00   0.06  -0.07    -0.01  -0.07   0.04
    17   6     0.00   0.00  -0.03    -0.04  -0.02   0.05     0.01   0.01  -0.07
    18   6     0.00  -0.07  -0.04    -0.01   0.03   0.07     0.05  -0.00  -0.09
    19   6    -0.01   0.02   0.01     0.09   0.07   0.00     0.08   0.06   0.00
    20   6     0.02   0.07   0.06     0.01   0.03   0.01    -0.02  -0.00   0.01
    21   6    -0.08   0.09  -0.06    -0.06   0.05  -0.00    -0.02   0.01   0.06
    22   8    -0.06   0.13  -0.03    -0.08   0.03  -0.02     0.00  -0.01  -0.01
    23   6    -0.09  -0.06   0.04    -0.04  -0.02   0.10    -0.02  -0.01   0.07
    24   1    -0.00  -0.01   0.00     0.06   0.04   0.16    -0.02  -0.04  -0.06
    25   1    -0.02   0.00   0.01     0.18   0.02  -0.04    -0.08  -0.03   0.04
    26   1    -0.02  -0.00   0.00     0.07   0.04   0.11    -0.06  -0.02   0.01
    27   1    -0.00   0.00   0.02    -0.06  -0.01  -0.03     0.02   0.03   0.04
    28   1     0.02  -0.00  -0.02     0.01  -0.05  -0.14     0.03   0.01   0.01
    29   1     0.03   0.03   0.01     0.08  -0.01  -0.03     0.04   0.03   0.03
    30   1     0.01   0.01   0.02    -0.02  -0.04  -0.12     0.02   0.02   0.03
    31   1    -0.02   0.01  -0.01     0.00  -0.02   0.04    -0.04   0.03  -0.05
    32   1    -0.02  -0.00   0.01     0.02  -0.01  -0.02    -0.06   0.01   0.01
    33   1    -0.01  -0.02   0.01    -0.01   0.04  -0.01    -0.03  -0.04   0.00
    34   1    -0.04   0.04   0.05     0.03  -0.05  -0.01    -0.05   0.01  -0.04
    35   1    -0.01  -0.06   0.02     0.02  -0.02  -0.01    -0.09   0.10  -0.02
    36   1     0.00   0.03  -0.05    -0.07  -0.09   0.01     0.10   0.11   0.04
    37   1    -0.02   0.06  -0.03     0.05  -0.15  -0.05    -0.01  -0.01   0.12
    38   1     0.13   0.10   0.01    -0.02   0.04   0.04     0.08  -0.32  -0.01
    39   1     0.20   0.06   0.05     0.01  -0.09   0.11    -0.03  -0.03  -0.20
    40   1     0.15  -0.17  -0.00     0.06   0.02  -0.02     0.05   0.09   0.01
    41   1     0.19  -0.12   0.04    -0.03   0.02  -0.04    -0.08   0.10  -0.03
    42   1     0.03  -0.12  -0.04     0.11   0.02  -0.01     0.10   0.16  -0.03
    43   1     0.13   0.00   0.08     0.02  -0.10  -0.11    -0.07  -0.10  -0.26
    44   1     0.05   0.01   0.02     0.02  -0.11   0.06    -0.04  -0.13  -0.03
    45   1     0.08   0.08  -0.06     0.02  -0.10  -0.04    -0.05  -0.13  -0.09
    46   1     0.00   0.02   0.00     0.05  -0.08  -0.07    -0.17   0.02   0.04
    47   1     0.07  -0.05  -0.04    -0.14   0.19   0.06     0.03  -0.14   0.02
    48   1    -0.01   0.04  -0.09    -0.04  -0.07   0.20     0.01  -0.04  -0.03
    49   1    -0.14  -0.27   0.07     0.08   0.27  -0.07    -0.02  -0.24   0.04
    50   1    -0.02  -0.01   0.29    -0.00  -0.01  -0.29    -0.05  -0.00   0.19
    51   1     0.05  -0.12  -0.12    -0.08   0.09   0.14     0.12  -0.04  -0.08
    52   1     0.00  -0.05  -0.04    -0.01  -0.02   0.06     0.07   0.05  -0.13
    53   1    -0.06  -0.13   0.02     0.07   0.10   0.04     0.01  -0.04  -0.06
    54   1    -0.06   0.06   0.02     0.12   0.11  -0.00     0.08   0.08   0.00
    55   1    -0.08   0.05   0.00     0.08   0.06  -0.04     0.12   0.03  -0.03
    56   1    -0.04  -0.05   0.25     0.01  -0.07  -0.00     0.01  -0.04  -0.10
    57   1     0.23   0.14   0.06     0.01   0.04   0.01    -0.13  -0.04   0.01
    58   1     0.06  -0.05   0.22     0.04   0.04   0.33    -0.02   0.06   0.27
    59   1    -0.24  -0.22   0.06    -0.15  -0.26   0.11    -0.01  -0.25   0.06
                     28                     29                     30
                      A                      A                      A
 Frequencies --    422.0979               429.2305               447.3016
 Red. masses --      2.8956                 3.2566                 2.6870
 Frc consts  --      0.3040                 0.3535                 0.3167
 IR Inten    --      0.6769                 0.6439                 0.9315
  Atom  AN      X      Y      Z        X      Y      Z        X      Y      Z
     1   6    -0.00  -0.00   0.11    -0.01  -0.01  -0.09     0.00  -0.01  -0.09
     2   6    -0.10   0.07  -0.00     0.09   0.00  -0.00     0.09  -0.04   0.01
[...]
 00000095,-0.00000177,0.00000046,0.00000054,0.00000016,-0.00000014,-0.0
 0000008,0.00000035,0.00000030,-0.00000272,-0.00000053,-0.00000011,0.00
 000094,-0.00000047,0.00000041,0.00000055,-0.00000014,-0.00000002,0.000
 00040,-0.00000048,0.00000256,-0.00000122,-0.00000092,0.00000055,-0.000
 00217,0.00000106,-0.00000238,-0.00000001,0.00000110,0.00000015,0.00000
 041,-0.00000075,0.00000066,0.00000057,-0.00000036,-0.00000087,-0.00000
 436,0.00000377,-0.00002550,0.00002912,0.00000860,0.00002978,-0.0000381
 3,0.00000087,-0.00004839,0.00002941,0.00018438,-0.00004108,-0.00001610
 ,-0.00003292,-0.00018700,0.00009077,0.00046197,-0.00000924,0.00003555,
 0.00004631,0.00003181,-0.00004522,0.00000555,-0.00007618,-0.00004931,-
 0.00000741,0.00000174,0.00001032,0.00001306,-0.00000358,-0.00000238,0.
 ,-0.00000289,0.00000305,0.00000457,0.00000397,0.00000067,-0.00000225,-
 0.00000001,-0.00000712,0.00000012,-0.00000161,-0.00000252,0.00000047,0
 .00000245,-0.00000065,-0.00000281,0.00000161,0.00000043,0.00000061,-0.
 00324004,0.00059377,-0.00381013,0.00173222,0.00003411,0.00075430,-0.00
 815252,-0.00300120,0.01736861,0.10204944,0.00000033,0.00000120,0.00000
 088,-0.00000196,-0.00000388,0.00000078,0.00000141,0.00000117,-0.000001
 09,0.00000233,0.00000118,-0.00000170,-0.00000070,-0.00000116,-0.000001
 04,0.00000258,0.00000580,0.00000365,0.00000270,-0.00000465,-0.00000591
 ,0.00000276,-0.00000293,0.00001918,-0.00001179,-0.00002848,0.00000549,
 0.00009305,0.00005999,-0.00002486,-0.00045854,0.00006385,0.00097654,-0
 .00039357,0.00025878,-0.00017487,-0.00001530,0.00019101,-0.00000365,-0
 .00004528,-0.00000201,0.00000071,-0.00002199,-0.00001643,-0.00001213,0
 .00000640,0.00000128,0.00000454,-0.00000327,-0.00000446,0.00000166,0.0
 0000152,0.00000077,0.00000020,0.00055120,0.00025239,-0.00156578,-0.008
 41692,-0.05343205,0.02468266,-0.01243508,0.00122065,0.02897071,-0.0025
 2567,-0.00267595,-0.00359196,0.00136194,-0.00039709,-0.00328758,0.0000
 0049,0.00000300,-0.00000040,-0.00000020,-0.00000139,0.00000135,-0.0000
 0060,-0.00000058,-0.00000029,-0.00000007,0.,-0.00000019,-0.00000026,0.
 00000329,0.00000047,0.00000002,-0.00000083,-0.00000058,-0.00000061,-0.
 00000071,-0.00000004,0.00000074,-0.00000025,-0.00000129,-0.00000274,0.
 00000176,0.00000130,-0.00000102,0.00000277,-0.00000183,0.00000174,-0.0
 0000038,-0.00000012,-0.00000041,-0.00000033,-0.00000048,0.00000189,-0.
 00000127,-0.00000324,0.00000094,0.00000255,-0.00000942,0.00001277,0.00
 000100,-0.00000614,-0.00001327,0.00001634,-0.00001485,0.00000271,-0.00
 004152,-0.00004393,-0.00002527,-0.00001376,-0.00000418,0.00024780,-0.0
 0001105,-0.00008616,0.00000900,0.00002059,-0.00002255,0.00003400,-0.00
 001842,-0.00000552,-0.00001809,-0.00001842,-0.00007741,0.00001647,-0.0
 0001884,-0.00002074,0.00000774,0.00000721,-0.00000228,0.00000619,0.000
 00782,0.00000765,-0.00000041,-0.00000206,-0.00000157,-0.00000005,0.000
 00884,-0.00000056,0.00000172,0.00000395,-0.00000047,-0.00000309,-0.000
 00043,0.00000279,-0.00000146,-0.00000061,-0.00000150,-0.00056490,0.000
 94498,-0.00039950,0.00045527,0.00028063,-0.00044691,0.01046582,0.00363
 230,-0.02368612,0.01133372,0.05088688,0.00000022,0.00000002,-0.0000004
 3,-0.00000038,-0.00000103,-0.00000008,0.00000033,0.00000094,-0.0000017
 8,0.00000197,0.00000166,-0.00000261,0.00000065,-0.00000057,-0.00000123
 ,0.00000283,0.00000359,-0.00000061,0.00000931,0.00000098,-0.00000605,-
 0.00001923,-0.00001262,0.00000092,-0.00002261,-0.00000188,0.00004282,-
 0.00029370,-0.00001004,0.00027517,0.00142673,-0.00073478,0.00024191,-0
 .00038527,-0.00002522,-0.00008764,0.00017974,-0.00013367,0.00005709,0.
 00006196,0.00002860,-0.00002901,-0.00002880,0.00002622,-0.00000778,0.0
 0000702,0.00000246,-0.00000243,-0.00000492,0.00000101,0.00000091,0.000
 00416,-0.00000344,-0.00000009,0.00839816,0.00151579,-0.02482371,0.0995
 5097,0.01889882,-0.24506321,0.00101927,-0.00001659,0.00046734,-0.00067
 795,0.00068086,-0.00072773,0.00065854,-0.00015647,-0.00053563,0.000000
 23,0.00000046,-0.00000006,-0.00000042,0.,0.00000169,-0.00000024,-0.000
 00014,-0.00000002,-0.00000013,0.,-0.00000029,-0.00000027,0.00000062,0.
 00000038,0.00000041,-0.00000038,0.00000142,-0.00000047,0.,-0.00000015,
 -0.00000102,0.00000015,0.00000288,-0.00000210,0.00000142,0.00000058,-0
 .00000005,0.00000035,0.00000073,0.00000021,-0.00000105,-0.00000058,0.0
 0000014,-0.00000078,0.00000349,-0.00000449,0.00000265,0.00000635,0.000
 00439,-0.00000785,0.00001571,-0.00004430,0.00003580,0.00001427,-0.0000
 0520,0.00000320,-0.00000656,0.00016059,-0.00005955,0.00026052,0.000008
 60,-0.00001600,-0.00004398,-0.00070633,0.00071465,0.00061971,-0.000030
 65,0.00006644,0.00003340,-0.00000558,-0.00001617,0.00005370,-0.0001425
 7,-0.00004274,0.00006321,-0.00003616,0.00002034,0.00004104,-0.00000631
 ,-0.00001208,0.00001100,0.00000677,0.00000711,0.00000013,-0.00000548,0
 .00000319,0.00000530,-0.00000122,0.00000314,0.00000071,0.00000010,0.00
 000082,0.00000020,-0.00000261,0.00000133,0.00000066,0.00000026,-0.0000
 0053,0.00000056,-0.00444275,0.00035067,-0.00221512,0.00039422,-0.00040
 515,0.00149276,0.00147017,-0.00010205,-0.00312767,-0.10615654,-0.02074
 891,0.27223494,0.00000104,0.00000168,-0.00000395,-0.00000959,0.0000176
 0,-0.00000280,-0.00000382,-0.00000027,0.00000271,0.00004355,0.00007938
 ,0.00010255,0.00003032,-0.00004342,-0.00002569,-0.00000115,0.00003465,
 0.00000492,-0.00000564,-0.00007295,-0.00002303,-0.00000579,0.00025064,
 -0.00009919,0.00023492,-0.00018324,0.00008623,-0.00007397,-0.00146482,
 0.00048689,-0.00256883,0.00174918,-0.00399846,-0.01305115,-0.01596226,
 0.00267730,0.00061386,-0.00002572,0.00146295,0.00022364,-0.00109437,0.
 00030701,-0.00055987,-0.00026244,-0.00096052,0.00030318,0.00041013,0.0
 0048483,-0.00001258,-0.00024662,-0.00017770,0.00005421,0.00004137,0.00
 003083,-0.00033211,0.00020784,-0.00003252,-0.00194879,0.00262754,0.000
 31948,0.01081350,0.01580418,-0.00157931,0.00189219,-0.00100385,-0.0000
 0262,-0.16086857,-0.13500679,0.01333610,-0.00000005,-0.00000609,0.0000
 0142,-0.00000250,0.00000389,-0.00000502,0.00000889,-0.00000242,0.00000
 407,0.00001338,0.00001836,0.00000103,0.00000084,-0.00000779,-0.0000018
 1,-0.00000370,0.00000141,0.00000414,0.00000873,-0.00000098,0.00000059,
 -0.00000800,-0.00000013,0.00000005,0.00002475,0.00001290,0.00001058,0.
 00000377,0.00001096,0.00000818,0.00004005,0.00000694,0.00000068,-0.000
 00116,-0.00000420,0.00001261,-0.00000394,-0.00000548,-0.00001079,-0.00
 001154,-0.00000799,-0.00002613,0.00000475,0.00002587,0.00002139,-0.000
 01224,0.00010579,-0.00001204,-0.00006828,0.00000182,-0.00016056,-0.000
 44217,-0.00003271,-0.00036315,0.00032227,0.00037234,-0.00008627,0.0006
 0844,0.00035491,-0.00060131,0.00007430,0.00032362,0.00015525,0.0000336
 8,0.00004512,-0.00009747,0.00000292,0.00004158,-0.00012941,0.00002222,
 0.00010203,-0.00000319,0.00014993,0.00138213,0.00073729,0.00004463,-0.
 00003929,-0.00005128,-0.00002792,0.00001461,0.00000228,-0.00000184,0.0
 0001355,-0.00001263,-0.00001122,-0.00002209,-0.00003921,0.00002070,-0.
 00002043,0.00003584,0.00007947,-0.00006342,-0.00002104,0.00004766,-0.0
 0012632,0.00001018,0.00055491,0.00085420,0.00004072,-0.00007302,-0.000
 03972,-0.00003943,0.17281488,-0.00000083,0.00000134,0.00000079,-0.0000
 0273,-0.00000060,0.00000106,-0.00000001,0.00000107,-0.00000143,0.00001
 409,0.00001508,0.00001247,0.00000432,-0.00000791,-0.00000577,-0.000005
 04,0.00001691,0.00000980,-0.00001795,-0.00001837,-0.00004789,-0.000069
 10,0.00001321,0.00014275,-0.00002998,-0.00003435,-0.00005813,0.0001784
 5,0.00018755,0.00020906,0.00067126,0.00082020,0.00005958,0.00059059,0.
 00184662,-0.00108952,0.00024203,0.00023245,0.00025432,-0.00007667,0.00
 005038,-0.00053395,0.00075852,-0.00141991,-0.00024346,0.00019940,0.000
 12657,0.00017497,0.00003245,-0.00006080,-0.00001262,0.00000374,0.00000
 578,-0.00000581,0.00039159,0.00035008,0.00040645,0.00497477,-0.0032914
 1,-0.00064998,-0.02262536,-0.02778687,0.00305885,-0.00010272,0.0061099
 7,-0.00051610,-0.13105377,-0.20213949,0.01560952,0.00000028,0.00000161
 ,-0.00000014,-0.00000053,-0.00000076,-0.00000021,0.00000141,-0.0000007
 0,0.00000005,0.00000215,0.00000175,0.00000037,-0.00000027,0.00000148,0
 .00000024,-0.00000038,-0.00000056,0.00000021,0.00000113,-0.00000045,0.
 00000032,0.00000006,-0.00000022,-0.00000094,0.00000249,0.00000349,0.00
 000249,-0.00000038,0.00000431,0.00000009,0.00000657,0.00000114,-0.0000
 0155,-0.00000002,-0.00000141,0.00000098,0.00000065,-0.00000243,-0.0000
 0330,-0.00000285,0.00000673,-0.00002087,0.00000061,0.00000197,0.000001
 79,-0.00002794,0.00001577,-0.00000678,-0.00003811,-0.00001776,-0.00005
 058,0.00007493,-0.00000013,-0.00001598,0.00001711,0.00000567,0.0001078
 1,0.00007878,0.00034672,-0.00037995,0.00023445,0.00015073,-0.00002045,
 -0.00010990,-0.00016522,-0.00006231,0.00007616,-0.00003955,0.00001447,
 -0.00010244,0.00001535,-0.00001100,0.00182103,-0.00176401,0.00079665,-
 0.00000132,0.00000245,-0.00000182,-0.00002023,0.00003121,0.00000725,0.
 00000079,0.00000414,-0.00000107,-0.00000505,-0.00000230,0.00000283,-0.
 00000016,-0.00000103,0.00000348,-0.00003316,-0.00002762,-0.00010813,-0
 .00008755,0.00001160,-0.00008228,-0.00090508,-0.00151299,-0.00006738,0
 .00009998,0.00038993,0.00015505,0.14195264,0.22446333,-0.00000145,0.00
 000109,0.00000223,-0.00000162,0.00000126,0.00000362,0.00000031,0.00000
 124,0.00000037,0.00000393,0.00001159,-0.00000864,0.00000400,-0.0000066
 3,0.00000044,-0.00000965,0.00000029,0.00000637,0.00004249,0.00000856,-
 0.00001020,-0.00003447,-0.00007710,0.00003898,0.00015649,-0.00009464,-
 0.00002795,-0.00068217,-0.00138366,0.00082260,-0.00255018,0.00136905,-
 0.00410180,-0.01443098,-0.01924513,0.00148711,-0.00066657,-0.00114511,
 0.00136613,0.00078365,-0.00016974,0.00032705,0.00006309,0.00032435,0.0
 0055116,-0.00000937,0.00006563,-0.00013474,-0.00001062,0.00001061,0.00
 001659,-0.00001028,0.00001925,0.00001578,-0.00012983,0.00043576,-0.000
 07834,-0.00006459,0.00032594,0.00123648,0.00029490,-0.00216364,-0.0004
 1284,-0.00055929,0.00027154,-0.00116222,0.01330837,0.01544786,-0.05229
 913,0.00000036,0.00000042,-0.00000013,-0.00000001,-0.00000055,-0.00000
 241,0.00000095,-0.00000052,-0.00000051,-0.00000007,0.00000143,0.000001
 17,0.00000014,0.00000014,0.00000074,0.00000073,0.00000066,-0.00000140,
 -0.00000008,-0.00000047,-0.00000076,0.00000222,-0.00000076,-0.00000053
 ,0.00000081,-0.00000004,0.00000020,-0.00000026,0.00000340,-0.00000020,
 0.00000882,0.00000006,-0.00000401,-0.00000065,-0.00000270,0.00000109,-
 0.00000052,-0.00000183,-0.00000262,0.00001347,0.00000659,-0.00001026,-
 0.00002048,0.00001499,0.00001335,-0.00002256,0.00004653,0.00000350,0.0
 0011087,0.00001238,0.00000483,-0.00049990,-0.00005382,-0.00035807,-0.0
 0024799,-0.00001795,0.00036774,0.00012986,0.00043891,-0.00046483,0.000
 18412,0.00018000,0.00032495,0.00009344,-0.00008103,-0.00012558,-0.0000
 4757,0.00006510,0.00005858,-0.00003694,0.00014856,-0.00020506,-0.00022
 566,0.00020970,0.00013157,0.00005065,-0.00003470,-0.00001639,-0.000004
 00,0.00000113,0.00000957,0.00000080,0.00000454,-0.00000183,0.00000088,
 -0.00001135,-0.00000635,0.00000469,-0.00000424,-0.00000136,0.00003085,
 -0.00005211,-0.00001233,0.00007827,-0.00006824,0.00005491,0.00007891,0
 .00010184,0.00037686,-0.00032943,-0.00043581,0.00022494,-0.01247873,-0
 .01722453,0.05340578,0.00000040,-0.00000431,-0.00000240,0.00000617,0.0
 0001031,-0.00000138,-0.00000200,-0.00000533,0.00000746,-0.00000560,-0.
 00000802,0.00001296,0.00001403,0.00000408,0.00001159,-0.00000186,-0.00
 005556,-0.00002966,0.00007464,0.00010060,0.00013709,0.00018356,-0.0003
 9699,-0.00012535,-0.00001914,-0.00001903,0.00000231,0.00014335,0.00032
 146,-0.00004429,0.00107174,0.00024217,-0.00042400,0.00883843,-0.002033
 51,-0.02025757,-0.00269313,0.00000268,-0.00274325,0.00133538,0.0001980
 0,-0.00098056,0.00014223,0.00007608,0.00021190,-0.00004028,0.00001505,
 -0.00000348,0.00001502,0.00002668,-0.00001045,-0.00000357,-0.00000832,
 -0.00000305,-0.00010159,-0.00023733,-0.00002727,0.00034993,-0.00019785
 ,-0.00102290,-0.01169617,-0.00067432,0.01658072,-0.00108232,0.00400724
 ,-0.00300702,-0.10049388,0.00548223,0.10979453,-0.00000136,-0.00000585
 ,0.00000138,0.00000059,0.00000251,-0.00000417,0.00000021,0.00000156,0.
 00000023,-0.00000184,-0.00000083,0.00000093,0.00000115,-0.00000695,-0.
 00000165,0.00000016,0.00000270,-0.00000200,0.00000016,0.00000138,-0.00
 000080,-0.00000134,0.00000241,-0.00000037,0.00000689,-0.00000755,-0.00
 000280,0.00000326,-0.00001023,0.00000179,0.00000342,0.00000093,0.00000
 071,0.00000193,-0.00000134,0.00000423,-0.00001952,0.00001548,0.0000071
 2,0.00005096,-0.00002242,0.00002586,-0.00001854,0.00000175,-0.00000220
 ,0.00001762,0.00000710,0.00001121,0.00003558,0.00002807,0.00000667,0.0
 0007080,0.00001600,0.00007536,-0.00020420,-0.00008821,0.00010200,-0.00
 004242,0.00019060,-0.00007047,0.00046289,0.00018712,-0.00123052,-0.000
 13950,-0.00010823,0.00005295,-0.00024093,-0.00005492,0.00032547,-0.000
 10390,-0.00009834,-0.00007231,-0.00015060,-0.00003374,0.00001162,0.000
 02967,0.00000422,-0.00000467,0.00000025,-0.00002877,0.00000621,-0.0000
 0715,-0.00000539,0.00000413,0.00000531,-0.00000451,-0.00000790,0.00000
 534,0.00000171,0.00000047,-0.00010169,0.00003595,-0.00003499,-0.000006
 89,-0.00000664,-0.00001003,-0.00008672,-0.00009185,-0.00033826,0.00057
 392,0.00037696,-0.00030079,-0.00898212,0.00288710,0.01762783,0.1128032
 4,-0.00000047,0.00000039,0.00000230,0.00000135,-0.00000313,0.00000112,
 0.00000173,-0.00000033,0.00000179,-0.00000276,-0.00001512,-0.00001330,
 -0.00000719,0.00000703,0.00000273,0.00000222,0.00000301,-0.00000378,-0
 .00002014,-0.00001315,0.00000673,-0.00003980,-0.00003885,-0.00005571,-
 0.00002775,0.00005571,-0.00002500,-0.00003430,0.00000876,0.00012113,0.
 00022297,-0.00002283,-0.00118217,-0.00122008,-0.00029005,0.00130398,0.
 00062458,0.00010040,0.00071911,-0.00023724,0.00018987,0.00127349,0.000
 11967,0.00005440,0.00019483,-0.00000796,-0.00003372,-0.00008180,0.0000
 1683,0.00002810,0.00002261,-0.00002473,0.00000127,-0.00000370,0.000394
 74,0.00020635,0.00012445,-0.00148238,-0.00035775,0.00323665,0.01340563
 ,0.00230347,-0.02833487,0.00280174,-0.00297914,0.00358104,0.00721512,-
 0.05235826,-0.01988864,0.00000002,0.00000209,-0.00000059,0.00000071,-0
 .00000141,-0.00000070,-0.00000180,0.00000039,-0.00000138,-0.00000375,-
 0.00000383,0.00000063,-0.00000010,0.00000238,0.00000024,0.00000123,-0.
 00000018,-0.00000313,-0.00000237,-0.00000005,-0.00000085,0.00000516,-0
 .00000053,-0.00000428,-0.00000522,-0.00000155,-0.00000167,-0.00000184,
 -0.00000014,-0.00000294,-0.00000993,-0.00000191,0.00000060,-0.00000367
 ,0.00000194,-0.00000788,0.00002050,-0.00000517,-0.00001163,-0.00004072
 ,0.00000593,-0.00001548,-0.00000207,0.00000446,-0.00000074,-0.00000177
 ,-0.00002681,0.00000736,0.00002882,-0.00001944,0.00001441,0.00002238,-
 0.00000729,-0.00001341,-0.00039802,-0.00003449,-0.00005500,0.00021395,
 0.00022786,-0.00035156,-0.00001258,0.00045155,0.00031530,-0.00017688,0
 .00009642,0.00016488,0.00029973,0.00013079,-0.00002708,-0.00002522,0.0
 0013080,-0.00018402,-0.00027268,-0.00010315,-0.00001205,0.00004534,-0.
 00003304,-0.00002304,-0.00000194,0.00001110,-0.00000677,0.00000124,-0.
 00000006,0.00000148,0.00000285,0.00000116,0.00000528,-0.00000202,0.000
 00299,-0.00001129,-0.00001709,0.00008614,0.00002259,0.00004864,-0.0000
 2828,0.00000203,0.00010017,0.00046019,0.00039534,-0.00035600,-0.001571
 99,-0.00001865,-0.01112304,0.00306028,0.02274593,-0.01003380,0.0503164
 5,0.00000139,-0.00000274,-0.00000454,0.00000263,0.00000380,-0.00000293
 ,-0.00000149,-0.00000102,-0.00000115,-0.00000164,0.00000279,0.00000993
 ,0.00000931,0.00000163,-0.00000258,0.00000794,-0.00000614,-0.00001582,
 -0.00001629,0.00000434,0.00005185,-0.00028447,-0.00020356,0.00022466,0
 .00005156,-0.00000759,-0.00002248,-0.00033775,0.00009774,0.00023186,0.
 00184538,0.00070470,0.00012044,0.01068142,-0.00101242,-0.02466264,-0.0
 0562955,-0.00004254,-0.00319743,0.00204987,-0.00092102,0.00046215,-0.0
 0016602,0.00035087,-0.00000221,0.00001545,0.00003040,0.00003592,-0.000
 00285,0.00000461,-0.00001204,0.00003234,-0.00002570,-0.00000446,-0.000
 31823,-0.00014701,-0.00009083,0.00050613,0.00015005,-0.00059191,0.0006
 4937,0.00050676,0.00066323,-0.00058695,-0.00058836,-0.00086328,0.10599
 311,-0.01514687,-0.23421810,-0.00000035,-0.00000316,0.00000104,-0.0000
 0062,0.00000204,0.00000287,-0.00000017,0.00000078,0.00000108,0.0000003
 9,0.00000048,-0.00000122,0.00000014,-0.00000351,-0.00000034,-0.0000001
 4,0.00000059,0.00000390,0.00000034,0.00000096,0.00000029,-0.00000751,0
 .00000260,0.00000811,0.00000222,-0.00000256,0.00000041,0.00000303,-0.0
 0000428,0.00000458,0.00000153,-0.00000210,0.00000149,0.00000175,-0.000
 00042,0.00000556,-0.00003758,0.00001874,0.00002324,0.00018327,-0.00006
 488,0.00027395,-0.00006408,0.00000581,0.00002014,0.00001261,0.00000352
 ,0.00001262,0.00017192,0.00006771,0.00026781,-0.00004760,0.00000222,0.
 00002473,-0.00077412,-0.00053748,0.00081212,-0.00004586,0.00002575,0.0
 0035633,0.00089983,0.00009268,-0.00168416,0.00001584,-0.00009700,0.000
 41555,-0.00101376,0.00048747,0.00073543,-0.00000570,-0.00022547,0.0001
 7817,0.00014647,0.00019187,-0.00013073,-0.00004495,0.00004032,0.000029
 44,-0.00000612,-0.00000259,0.00000540,-0.00000599,-0.00000226,0.000002
 66,-0.00000227,0.00000245,-0.00000521,0.00000054,0.00000156,0.00000742
 ,-0.00001517,0.00016515,0.00015654,-0.00000354,-0.00003878,0.00001483,
 -0.00004343,-0.00015917,0.00022201,-0.00026057,0.00001300,0.00050799,0
 .00069716,0.00019019,-0.00140419,-0.11425817,0.01607508,0.26102250\\-0
 .00001770,-0.00003159,0.00003209,0.00001107,0.00003906,0.00000516,0.00
 000171,-0.00005310,-0.00002522,-0.00000583,-0.00002103,0.00002817,-0.0
 0002083,0.00003961,-0.00002686,-0.00002162,-0.00000544,0.00000204,0.00
 004791,-0.00000172,-0.00001595,-0.00001412,0.00003954,-0.00001771,-0.0
 0002854,0.00000355,0.00001642,-0.00000603,0.00001765,-0.00003385,-0.00
 002259,-0.00000306,-0.00000022,0.00000550,-0.00002602,0.00001852,0.000
 00940,-0.00002012,0.00000832,0.00003145,0.00000136,-0.00000832,0.00000
 390,-0.00003023,-0.00001515,-0.00002602,0.00001769,-0.00000523,-0.0000
 2467,0.00000757,-0.00001454,0.00000116,-0.00000757,0.00001206,0.000009
 41,-0.00003009,-0.00000029,-0.00002088,-0.00001267,-0.00002236,-0.0000
 0423,0.00000334,-0.00000549,0.00005092,-0.00000523,0.00000206,0.000003
 91,-0.00001515,0.00000765,0.00000770,0.00000627,0.00000827,0.00001294,
 -0.00002124,-0.00000636,-0.00000199,0.00000386,-0.00000120,-0.00000049
 ,0.00000070,-0.00001393,0.00000807,0.00000322,-0.00000815,-0.00000167,
 0.00000415,0.00000905,-0.00001073,0.00000406,0.00000530,-0.00000309,0.
 00000665,-0.00000349,0.00000982,-0.00000348,-0.00000037,0.00000591,0.0
 0001042,-0.00000634,0.00000985,-0.00000534,0.00000366,-0.00001367,0.00
 000686,0.00001180,-0.00000486,0.00001692,0.00000109,-0.00001108,0.0000
 2323,0.00000616,0.00000038,0.00001101,0.00000519,0.00000580,-0.0000134
 9,0.00000623,-0.00000282,0.00001338,0.00001057,0.00000104,-0.00000051,
 0.00000948,0.00000363,0.00000170,-0.00000497,0.00000481,0.00001081,0.0
 0000645,0.00001778,-0.00000501,-0.00000270,0.00001251,0.00000282,0.000
 00703,-0.00000814,-0.00000510,0.00000169,-0.00001807,0.00000301,0.0000
 2541,-0.00000096,-0.00001178,-0.00000185,-0.00000038,-0.00000040,-0.00
 000995,0.00000119,-0.00001089,-0.00000168,-0.00000069,0.00002335,0.000
 00241,0.00001167,0.00000513,-0.00000311,0.00000105,0.00000918,-0.00000
 928,-0.00001375,0.00000811,0.00001413,0.00000405,0.00000116,0.00000443
 ,-0.00000476,0.00000243,-0.00000034,0.00000710,0.00000470,-0.00000546,
 0.00000125,0.00000033,0.00000407,0.00000732,-0.00001261,-0.00000456\\\
 @


 MOM AND DAD WENT TO ALPHA CENTAURI AND ALL
 I GOT WAS THIS DUMB T-SHIRT.
 Job cpu time:       0 days  0 hours 18 minutes 44.1 seconds.
 Elapsed time:       0 days  0 hours 20 minutes 49.2 seconds.
 File lengths (MBytes):  RWF=   1168 Int=      0 D2E=      0 Chk=     16 Scr=      1
 Normal termination of Gaussian 16 at Fri Feb 23 17:39:02 2024.
