 Entering Gaussian System, Link 0=g16
 Input=/Volumes/SSD-PMU3/b3lyp_6-31gd_freq/AGCCOKROZDYAMR-KVPKETBZSA-N_calculating/gaussianinput0.gjf
 Output=/Volumes/SSD-PMU3/b3lyp_6-31gd_freq/AGCCOKROZDYAMR-KVPKETBZSA-N_calculating/gaussianinput0.log
 Initial command:
 /Applications/g16/l1.exe "/Users/macmini_m1_2022/PycharmProjects/sphere_model/sphere_model_lib/Gau-54089.inp" -scrdir="/Users/macmini_m1_2022/PycharmProjects/sphere_model/sphere_model_lib/"
 Entering Link 1 = /Applications/g16/l1.exe PID=     54090.
  
 Copyright (c) 1988,1990,1992,1993,1995,1998,2003,2009,2016,
            Gaussian, Inc.  All Rights Reserved.
  
 This is part of the Gaussian(R) 16 program.  It is based on
 the Gaussian(R) 09 system (copyright 2009, Gaussian, Inc.),
 the Gaussian(R) 03 system (copyright 2003, Gaussian, Inc.),
 the Gaussian(R) 98 system (copyright 1998, Gaussian, Inc.),
 the Gaussian(R) 94 system (copyright 1995, Gaussian, Inc.),
 the Gaussian 92(TM) system (copyright 1992, Gaussian, Inc.),
 the Gaussian 90(TM) system (copyright 1990, Gaussian, Inc.),
 the Gaussian 88(TM) system (copyright 1988, Gaussian, Inc.),
 the Gaussian 86(TM) system (copyright 1986, Carnegie Mellon
 University), and the Gaussian 82(TM) system (copyright 1983,
 Carnegie Mellon University). Gaussian is a federally registered
 trademark of Gaussian, Inc.
  
 This software contains proprietary and confidential information,
 including trade secrets, belonging to Gaussian, Inc.
  
 This software is provided under written license and may be
 used, copied, transmitted, or stored only in accord with that
 written license.
  
 The following legend is applicable only to US Government
 contracts under FAR:
  
                    RESTRICTED RIGHTS LEGEND
  
 Use, reproduction and disclosure by the US Government is
 subject to restrictions as set forth in subparagraphs (a)
 and (c) of the Commercial Computer Software - Restricted
 Rights clause in FAR 52.227-19.
  
 Gaussian, Inc.
 340 Quinnipiac St., Bldg. 40, Wallingford CT 06492
  
  
 ---------------------------------------------------------------
 Warning -- This program may not be used in any manner that
 competes with the business of Gaussian, Inc. or will provide
 assistance to any competitor of Gaussian, Inc.  The licensee
 of this program is prohibited from giving any competitor of
 Gaussian, Inc. access to this program.  By using this program,
 the user acknowledges that Gaussian, Inc. is engaged in the
 business of creating and licensing software in the field of
 computational chemistry and represents and warrants to the
 licensee that it is not a competitor of Gaussian, Inc. and that
 it will not use this program in any manner prohibited above.
 ---------------------------------------------------------------
  

 Cite this work as:
 Gaussian 16, Revision A.03,
 M. J. Frisch, G. W. Trucks, H. B. Schlegel, G. E. Scuseria, 
 M. A. Robb, J. R. Cheeseman, G. Scalmani, V. Barone, 
 G. A. Petersson, H. Nakatsuji, X. Li, M. Caricato, A. V. Marenich, 
 J. Bloino, B. G. Janesko, R. Gomperts, B. Mennucci, H. P. Hratchian, 
 J. V. Ortiz, A. F. Izmaylov, J. L. Sonnenberg, D. Williams-Young, 
 F. Ding, F. Lipparini, F. Egidi, J. Goings, B. Peng, A. Petrone, 
 T. Henderson, D. Ranasinghe, V. G. Zakrzewski, J. Gao, N. Rega, 
 G. Zheng, W. Liang, M. Hada, M. Ehara, K. Toyota, R. Fukuda, 
 J. Hasegawa, M. Ishida, T. Nakajima, Y. Honda, O. Kitao, H. Nakai, 
 T. Vreven, K. Throssell, J. A. Montgomery, Jr., J. E. Peralta, 
 F. Ogliaro, M. J. Bearpark, J. J. Heyd, E. N. Brothers, K. N. Kudin, 
 V. N. Staroverov, T. A. Keith, R. Kobayashi, J. Normand, 
 K. Raghavachari, A. P. Rendell, J. C. Burant, S. S. Iyengar, 
 J. Tomasi, M. Cossi, J. M. Millam, M. Klene, C. Adamo, R. Cammi, 
 J. W. Ochterski, R. L. Martin, K. Morokuma, O. Farkas, 
 J. B. Foresman, and D. J. Fox, Gaussian, Inc., Wallingford CT, 2016.
 
 ******************************************
 Gaussian 16:  EM64M-G16RevA.03 25-Dec-2016
                21-Feb-2024 
 ******************************************
 %nprocshared=8
 Will use up to    8 processors via shared memory.
 %mem=4GB
 %chk= 0.chk
 ---------------------
 # freq b3lyp/6-31g(d)
 ---------------------
 1/10=4,30=1,38=1/1,3;
 2/12=2,17=6,18=5,40=1/2;
 3/5=1,6=6,7=1,11=2,25=1,30=1,71=2,74=-5,140=1/1,2,3;
 4//1;
 5/5=2,38=5,98=1/2;
 8/6=4,10=90,11=11/1;
 11/6=1,8=1,9=11,15=111,16=1/1,2,10;
 10/6=1/2;
 6/7=2,8=2,9=2,10=2,28=1/1;
 7/8=1,10=1,25=1/1,2,3,16;
 1/10=4,30=1/3;
 99//99;
 ---------
 good luck
 ---------
 Symbolic Z-matrix:
 Charge =  0 Multiplicity = 1
 O                     1.21133   0.        0. 
 C                     0.        0.        0. 
 C                    -0.93265  -1.20958  -0.01306 
 C                    -2.14215  -0.66197   0.7755 
 C                    -1.50215  -1.28672  -1.47207 
 C                    -2.1242   -2.65868  -1.7629 
 C                    -2.47813  -0.03965  -1.53493 
 C                    -3.94067  -0.34157  -1.88509 
 C                    -2.32125   0.58757  -0.1192 
 C                    -0.92333   1.23312  -0.01306 
 H                    -0.45308  -2.12807   0.3308 
 H                    -3.00496  -1.3353    0.76624 
 H                    -1.90691  -0.41793   1.81819 
 H                    -0.68545  -1.14444  -2.19017 
 H                    -1.35547  -3.43761  -1.7064 
 H                    -2.55795  -2.69606  -2.76818 
 H                    -2.91374  -2.92001  -1.0499 
 H                    -2.10376   0.66605  -2.28765 
 H                    -4.51702   0.59046  -1.91888 
 H                    -4.42023  -0.99795  -1.15033 
 H                    -4.03338  -0.81966  -2.8662 
 H                    -3.14138   1.25771   0.15511 
 H                    -0.66437   1.91555  -0.83021 
 H                    -0.79719   1.78411   0.9285 
 

 GradGradGradGradGradGradGradGradGradGradGradGradGradGradGradGradGradGrad
 Berny optimization.
 Initialization pass.
 Trust Radius=3.00D-01 FncErr=1.00D-07 GrdErr=1.00D-07 EigMax=2.50D+02 EigMin=1.00D-04
 Number of steps in this run=      2 maximum allowed number of steps=      2.
 GradGradGradGradGradGradGradGradGradGradGradGradGradGradGradGradGradGrad

                          Input orientation:                          
 ---------------------------------------------------------------------
 Center     Atomic      Atomic             Coordinates (Angstroms)
 Number     Number       Type             X           Y           Z
 ---------------------------------------------------------------------
      1          8           0        1.211330    0.000000    0.000000
      2          6           0        0.000000    0.000000    0.000000
      3          6           0       -0.932653   -1.209580   -0.013059
      4          6           0       -2.142147   -0.661968    0.775498
      5          6           0       -1.502145   -1.286720   -1.472068
      6          6           0       -2.124198   -2.658677   -1.762901
      7          6           0       -2.478128   -0.039649   -1.534931
      8          6           0       -3.940670   -0.341570   -1.885086
      9          6           0       -2.321250    0.587565   -0.119203
     10          6           0       -0.923326    1.233122   -0.013059
     11          1           0       -0.453078   -2.128074    0.330799
     12          1           0       -3.004957   -1.335300    0.766243
     13          1           0       -1.906907   -0.417929    1.818194
     14          1           0       -0.685454   -1.144437   -2.190166
     15          1           0       -1.355465   -3.437605   -1.706401
     16          1           0       -2.557953   -2.696059   -2.768175
     17          1           0       -2.913735   -2.920007   -1.049897
     18          1           0       -2.103764    0.666045   -2.287653
     19          1           0       -4.517020    0.590462   -1.918878
     20          1           0       -4.420234   -0.997946   -1.150332
     21          1           0       -4.033384   -0.819661   -2.866200
     22          1           0       -3.141375    1.257714    0.155107
     23          1           0       -0.664366    1.915552   -0.830213
     24          1           0       -0.797190    1.784106    0.928503
 ---------------------------------------------------------------------
                    Distance matrix (angstroms):
                    1          2          3          4          5
     1  O    0.000000
     2  C    1.211330   0.000000
     3  C    2.461690   1.527448   0.000000
     4  C    3.505054   2.372423   1.544207   0.000000
     5  C    3.344485   2.465577   1.568113   2.418981   0.000000
     6  C    4.615423   3.832571   2.565465   3.229650   1.534210
     7  C    3.996209   2.915254   2.464412   2.416246   1.584828
     8  C    5.496665   4.381678   3.647752   3.227390   2.647696
     9  C    3.583094   2.397424   2.273587   1.547223   2.452370
    10  C    2.465262   1.540549   2.442720   2.387198   2.968727
    11  H    2.721834   2.200774   1.091724   2.280390   2.249166
    12  H    4.488567   3.376377   2.217557   1.094487   2.696450
    13  H    3.633717   2.667731   2.220218   1.096407   3.427018
    14  H    3.115181   2.564451   2.192064   3.339146   1.096765
    15  H    4.617074   4.070162   2.830242   3.805634   2.168579
    16  H    5.398057   4.634075   3.527305   4.107072   2.186518
    17  H    5.161868   4.256592   2.815187   3.004356   2.199646
    18  H    4.082502   3.178489   3.172262   3.338860   2.200094
    19  H    6.069986   4.943097   4.440719   3.803717   3.579514
    20  H    5.833839   4.675214   3.674425   3.001897   2.949940
    21  H    6.032742   5.015489   4.231664   4.106532   2.927272
    22  H    4.533425   3.387350   3.315761   2.251338   3.436411
    23  H    2.806569   2.190885   3.241322   3.377241   3.371705
    24  H    2.842412   2.163484   3.141185   2.795639   3.961019
                    6          7          8          9         10
     6  C    0.000000
     7  C    2.652649   0.000000
     8  C    2.946775   1.533882   0.000000
     9  C    3.643990   1.556372   2.569855   0.000000
    10  C    4.432848   2.520605   3.884392   1.543438   0.000000
    11  H    2.730890   3.455907   4.501671   3.326750   3.411306
    12  H    2.987245   2.692891   2.982047   2.224608   3.396659
    13  H    4.229942   3.422402   4.225672   2.221757   2.654598
    14  H    2.132009   2.205350   3.366616   3.156667   3.232517
    15  H    1.095843   3.582720   4.037406   4.433276   4.986967
    16  H    1.095498   2.929808   2.869734   4.225549   5.069628
    17  H    1.095462   2.953214   2.898357   3.676995   4.720725
    18  H    3.365941   1.097608   2.133441   2.180742   2.624650
    19  H    4.038172   2.168303   1.096360   2.839057   4.118227
    20  H    2.899146   2.199551   1.095753   2.825386   4.301095
    21  H    2.871278   2.190780   1.095332   3.529544   4.693271
    22  H    4.477893   2.231429   2.712742   1.094052   2.224551
    23  H    4.891277   2.758473   4.116008   2.239274   1.095679
    24  H    5.361243   3.495732   4.724008   2.202761   1.098195
                   11         12         13         14         15
    11  H    0.000000
    12  H    2.707432   0.000000
    13  H    2.692686   1.775918   0.000000
    14  H    2.716027   3.762563   4.252847   0.000000
    15  H    2.584445   3.640670   4.673896   2.437532   0.000000
    16  H    3.789030   3.813606   5.162220   2.499576   1.767267
    17  H    2.930582   2.412049   3.937009   3.068892   1.768364
    18  H    4.169911   3.760826   4.251086   2.301945   4.211621
    19  H    5.382110   3.633837   4.668538   4.214780   5.125027
    20  H    4.382838   2.406258   3.932605   3.879600   3.956508
    21  H    4.975072   3.810274   5.160120   3.430909   3.920461
    22  H    4.326820   2.667549   2.664123   4.159589   5.357304
    23  H    4.212304   4.312201   3.742072   3.348649   5.468237
    24  H    3.972507   3.825083   2.621446   4.279596   5.875428
                   16         17         18         19         20
    16  H    0.000000
    17  H    1.768958   0.000000
    18  H    3.426504   3.879157   0.000000
    19  H    3.919243   3.955887   2.442440   0.000000
    20  H    2.994845   2.444165   3.070570   1.767221   0.000000
    21  H    2.389011   2.993998   2.503093   1.766287   1.767948
    22  H    4.951594   4.353988   2.719152   2.576633   2.903042
    23  H    5.348675   5.337654   2.399430   4.217108   4.764188
    24  H    6.069398   5.524718   3.647034   4.834201   5.018746
                   21         22         23         24
    21  H    0.000000
    22  H    3.773521   0.000000
    23  H    4.793424   2.745757   0.000000
    24  H    5.626040   2.523972   1.768616   0.000000
 Stoichiometry    C9H14O
 Framework group  C1[X(C9H14O)]
 Deg. of freedom    66
 Full point group                 C1      NOp   1
 Largest Abelian subgroup         C1      NOp   1
 Largest concise Abelian subgroup C1      NOp   1
                         Standard orientation:                         
 ---------------------------------------------------------------------
 Center     Atomic      Atomic             Coordinates (Angstroms)
 Number     Number       Type             X           Y           Z
 ---------------------------------------------------------------------
      1          8           0       -2.750905    0.788988   -0.557747
      2          6           0       -1.761718    0.218853   -0.153053
      3          6           0       -0.579301    0.824085    0.601055
      4          6           0       -0.145510   -0.368057    1.481511
      5          6           0        0.589629    0.902348   -0.441277
      6          6           0        1.703054    1.846893    0.029805
      7          6           0        0.988222   -0.618942   -0.637441
      8          6           0        2.448652   -0.980131   -0.338308
      9          6           0       -0.012275   -1.356835    0.298943
     10          6           0       -1.424467   -1.275194   -0.318512
     11          1           0       -0.815651    1.774857    1.082752
     12          1           0        0.794239   -0.192502    2.014385
     13          1           0       -0.905415   -0.667518    2.212931
     14          1           0        0.207341    1.301952   -1.388413
     15          1           0        1.316142    2.868690    0.114070
     16          1           0        2.536836    1.867767   -0.680469
     17          1           0        2.106352    1.563570    1.008128
     18          1           0        0.790038   -0.906098   -1.678117
     19          1           0        2.615422   -2.047590   -0.524652
     20          1           0        2.724176   -0.781515    0.703476
     21          1           0        3.143827   -0.423833   -0.976285
     22          1           0        0.300305   -2.372597    0.558695
     23          1           0       -1.490518   -1.584272   -1.367617
     24          1           0       -2.153565   -1.870949    0.246753
 ---------------------------------------------------------------------
 Rotational constants (GHZ):           2.1695085           1.1946014           0.9690324
 Standard basis: 6-31G(d) (6D, 7F)
 There are   178 symmetry adapted cartesian basis functions of A   symmetry.
 There are   178 symmetry adapted basis functions of A   symmetry.
   178 basis functions,   336 primitive gaussians,   178 cartesian basis functions
    38 alpha electrons       38 beta electrons
       nuclear repulsion energy       565.4612527972 Hartrees.
 NAtoms=   24 NActive=   24 NUniq=   24 SFac= 1.00D+00 NAtFMM=   60 NAOKFM=F Big=F
 Integral buffers will be    131072 words long.
 Raffenetti 2 integral format.
 Two-electron integral symmetry is turned on.
 One-electron integrals computed using PRISM.
 NBasis=   178 RedAO= T EigKep=  1.39D-03  NBF=   178
 NBsUse=   178 1.00D-06 EigRej= -1.00D+00 NBFU=   178
 ExpMin= 1.61D-01 ExpMax= 5.48D+03 ExpMxC= 8.25D+02 IAcc=3 IRadAn=         5 AccDes= 0.00D+00
 Harris functional with IExCor=  402 and IRadAn=       5 diagonalized for initial guess.
 HarFok:  IExCor=  402 AccDes= 0.00D+00 IRadAn=         5 IDoV= 1 UseB2=F ITyADJ=14
 ICtDFT=  3500011 ScaDFX=  1.000000  1.000000  1.000000  1.000000
 FoFCou: FMM=F IPFlag=           0 FMFlag=      100000 FMFlg1=           0
         NFxFlg=           0 DoJE=T BraDBF=F KetDBF=T FulRan=T
         wScrn=  0.000000 ICntrl=       500 IOpCl=  0 I1Cent=   200000004 NGrid=           0
         NMat0=    1 NMatS0=      1 NMatT0=    0 NMatD0=    1 NMtDS0=    0 NMtDT0=    0
 Petite list used in FoFCou.
 Requested convergence on RMS density matrix=1.00D-08 within 128 cycles.
 Requested convergence on MAX density matrix=1.00D-06.
 Requested convergence on             energy=1.00D-06.
 No special actions if energy rises.
 Integral accuracy reduced to 1.0D-05 until final iterations.
 Initial convergence to 1.0D-05 achieved.  Increase integral accuracy.
 SCF Done:  E(RB3LYP) =  -426.606910140     A.U. after   13 cycles
            NFock= 13  Conv=0.89D-08     -V/T= 2.0096
 DoSCS=F DFT=T ScalE2(SS,OS)=  1.000000  1.000000
 Range of M.O.s used for correlation:     1   178
 NBasis=   178 NAE=    38 NBE=    38 NFC=     0 NFV=     0
 NROrb=    178 NOA=    38 NOB=    38 NVA=   140 NVB=   140
 Symmetrizing basis deriv contribution to polar:
 IMax=3 JMax=2 DiffMx= 0.00D+00
 G2DrvN: will do    25 centers at a time, making    1 passes.
 Calling FoFCou, ICntrl=  3107 FMM=F I1Cent=   0 AccDes= 0.00D+00.
 End of G2Drv F.D. properties file   721 does not exist.
 End of G2Drv F.D. properties file   722 does not exist.
 End of G2Drv F.D. properties file   788 does not exist.
          IDoAtm=111111111111111111111111
          Differentiating once with respect to electric field.
                with respect to dipole field.
          Differentiating once with respect to nuclear coordinates.
 Keep R1 ints in memory in canonical form, NReq=134943929.
          There are    75 degrees of freedom in the 1st order CPHF.  IDoFFX=6 NUNeed=     3.
     72 vectors produced by pass  0 Test12= 7.09D-15 1.33D-09 XBig12= 6.61D+01 2.09D+00.
 AX will form    72 AO Fock derivatives at one time.
     72 vectors produced by pass  1 Test12= 7.09D-15 1.33D-09 XBig12= 8.88D+00 6.43D-01.
     72 vectors produced by pass  2 Test12= 7.09D-15 1.33D-09 XBig12= 1.08D-01 5.74D-02.
     72 vectors produced by pass  3 Test12= 7.09D-15 1.33D-09 XBig12= 4.19D-04 2.34D-03.
     72 vectors produced by pass  4 Test12= 7.09D-15 1.33D-09 XBig12= 4.40D-07 6.79D-05.
     36 vectors produced by pass  5 Test12= 7.09D-15 1.33D-09 XBig12= 2.74D-10 1.25D-06.
      3 vectors produced by pass  6 Test12= 7.09D-15 1.33D-09 XBig12= 1.80D-13 4.33D-08.
      1 vectors produced by pass  7 Test12= 7.09D-15 1.33D-09 XBig12= 1.32D-16 1.44D-09.
 InvSVY:  IOpt=1 It=  1 EMax= 8.88D-15
 Solved reduced A of dimension   400 with    75 vectors.
 Isotropic polarizability for W=    0.000000       88.76 Bohr**3.
 End of Minotr F.D. properties file   721 does not exist.
 End of Minotr F.D. properties file   722 does not exist.
 End of Minotr F.D. properties file   788 does not exist.

 **********************************************************************

            Population analysis using the SCF density.

 **********************************************************************

 Orbital symmetries:
       Occupied  (A) (A) (A) (A) (A) (A) (A) (A) (A) (A) (A) (A)
                 (A) (A) (A) (A) (A) (A) (A) (A) (A) (A) (A) (A)
                 (A) (A) (A) (A) (A) (A) (A) (A) (A) (A) (A) (A)
                 (A) (A)
       Virtual   (A) (A) (A) (A) (A) (A) (A) (A) (A) (A) (A) (A)
                 (A) (A) (A) (A) (A) (A) (A) (A) (A) (A) (A) (A)
                 (A) (A) (A) (A) (A) (A) (A) (A) (A) (A) (A) (A)
                 (A) (A) (A) (A) (A) (A) (A) (A) (A) (A) (A) (A)
                 (A) (A) (A) (A) (A) (A) (A) (A) (A) (A) (A) (A)
                 (A) (A) (A) (A) (A) (A) (A) (A) (A) (A) (A) (A)
                 (A) (A) (A) (A) (A) (A) (A) (A) (A) (A) (A) (A)
                 (A) (A) (A) (A) (A) (A) (A) (A) (A) (A) (A) (A)
                 (A) (A) (A) (A) (A) (A) (A) (A) (A) (A) (A) (A)
                 (A) (A) (A) (A) (A) (A) (A) (A) (A) (A) (A) (A)
                 (A) (A) (A) (A) (A) (A) (A) (A) (A) (A) (A) (A)
                 (A) (A) (A) (A) (A) (A) (A) (A)
 The electronic state is 1-A.
 Alpha  occ. eigenvalues --  -19.13190 -10.26564 -10.19947 -10.19530 -10.19453
 Alpha  occ. eigenvalues --  -10.19096 -10.19036 -10.18826 -10.18098 -10.18007
 Alpha  occ. eigenvalues --   -1.03101  -0.87874  -0.77341  -0.75179  -0.70609
 Alpha  occ. eigenvalues --   -0.67363  -0.65395  -0.56914  -0.54633  -0.52303
 Alpha  occ. eigenvalues --   -0.50222  -0.47045  -0.45796  -0.43358  -0.41259
 Alpha  occ. eigenvalues --   -0.40378  -0.39949  -0.39278  -0.38773  -0.38217
 Alpha  occ. eigenvalues --   -0.36647  -0.35533  -0.34164  -0.33409  -0.31575
 Alpha  occ. eigenvalues --   -0.31154  -0.30568  -0.22960
 Alpha virt. eigenvalues --   -0.00860   0.07280   0.09592   0.11118   0.13003
 Alpha virt. eigenvalues --    0.13111   0.13913   0.14476   0.15585   0.16423
 Alpha virt. eigenvalues --    0.17093   0.18277   0.19155   0.19530   0.19668
 Alpha virt. eigenvalues --    0.20444   0.21421   0.22523   0.23230   0.23636
 Alpha virt. eigenvalues --    0.26875   0.27526   0.28754   0.31298   0.33121
 Alpha virt. eigenvalues --    0.35716   0.48505   0.50020   0.52404   0.55258
 Alpha virt. eigenvalues --    0.55937   0.56804   0.59178   0.59934   0.60800
 Alpha virt. eigenvalues --    0.62115   0.63087   0.64240   0.65680   0.67999
 Alpha virt. eigenvalues --    0.69516   0.70888   0.72132   0.74300   0.76364
 Alpha virt. eigenvalues --    0.78594   0.79303   0.82390   0.82622   0.84640
 Alpha virt. eigenvalues --    0.86052   0.87073   0.87252   0.88475   0.88822
 Alpha virt. eigenvalues --    0.89846   0.90307   0.92530   0.93283   0.95139
 Alpha virt. eigenvalues --    0.95560   0.96970   0.97500   0.98537   1.00050
 Alpha virt. eigenvalues --    1.02350   1.03038   1.08965   1.10320   1.14964
 Alpha virt. eigenvalues --    1.21025   1.23677   1.30354   1.35427   1.41333
 Alpha virt. eigenvalues --    1.44315   1.47277   1.52337   1.57300   1.60694
 Alpha virt. eigenvalues --    1.63557   1.65647   1.67537   1.71906   1.73647
 Alpha virt. eigenvalues --    1.74175   1.76556   1.78677   1.82960   1.83361
 Alpha virt. eigenvalues --    1.84865   1.88636   1.91135   1.92330   1.95030
 Alpha virt. eigenvalues --    1.96569   1.97541   1.99018   2.02405   2.03401
 Alpha virt. eigenvalues --    2.05386   2.09732   2.11040   2.17324   2.19041
 Alpha virt. eigenvalues --    2.20131   2.22804   2.26837   2.27839   2.29957
 Alpha virt. eigenvalues --    2.32707   2.35007   2.35090   2.40669   2.42278
 Alpha virt. eigenvalues --    2.45549   2.47860   2.51878   2.55362   2.58543
 Alpha virt. eigenvalues --    2.62042   2.67177   2.69196   2.71513   2.75068
 Alpha virt. eigenvalues --    2.75746   2.83749   2.83873   3.02763   3.06867
 Alpha virt. eigenvalues --    4.09399   4.13893   4.27169   4.30102   4.38735
 Alpha virt. eigenvalues --    4.44602   4.51822   4.65502   4.68906   4.85691
          Condensed to atoms (all electrons):
               1          2          3          4          5          6
     1  O    8.007387   0.580593  -0.062335   0.002225  -0.002584  -0.000026
     2  C    0.580593   4.513431   0.357378  -0.050635  -0.025269   0.002523
     3  C   -0.062335   0.357378   5.226324   0.314068   0.372627  -0.040255
     4  C    0.002225  -0.050635   0.314068   5.194473  -0.066093  -0.004573
     5  C   -0.002584  -0.025269   0.372627  -0.066093   4.993354   0.370376
     6  C   -0.000026   0.002523  -0.040255  -0.004573   0.370376   5.097135
     7  C   -0.000006  -0.017316  -0.063913  -0.071072   0.358997  -0.035669
     8  C   -0.000001   0.000418   0.000679  -0.002779  -0.036622  -0.013002
     9  C    0.003253  -0.048491  -0.005447   0.338705  -0.066816   0.000889
    10  C   -0.074158   0.304289  -0.177392  -0.055638  -0.008153  -0.000115
    11  H    0.001513  -0.029983   0.351805  -0.032628  -0.033808  -0.004113
    12  H   -0.000059   0.003947  -0.027847   0.367976  -0.006534   0.001966
    13  H    0.000083  -0.003800  -0.033080   0.368479   0.005605   0.000013
    14  H    0.002086  -0.001048  -0.052890   0.007292   0.371544  -0.045103
    15  H   -0.000001   0.000029  -0.004050  -0.000164  -0.028722   0.371580
    16  H    0.000000  -0.000105   0.004554  -0.000079  -0.027768   0.369653
    17  H   -0.000000   0.000111  -0.005632   0.002503  -0.033627   0.373820
    18  H   -0.000005  -0.000328   0.003465   0.006789  -0.037064   0.003518
    19  H    0.000000  -0.000005  -0.000062  -0.000135   0.004447   0.000293
    20  H    0.000000  -0.000005   0.000351   0.002556  -0.004948   0.001502
    21  H   -0.000000  -0.000015   0.000069  -0.000092  -0.004841   0.000948
    22  H   -0.000058   0.003916   0.004375  -0.033506   0.006613  -0.000177
    23  H    0.000390  -0.020665   0.004782   0.005639  -0.000338   0.000018
    24  H   -0.000535  -0.019585   0.003279  -0.000901   0.000284   0.000005
               7          8          9         10         11         12
     1  O   -0.000006  -0.000001   0.003253  -0.074158   0.001513  -0.000059
     2  C   -0.017316   0.000418  -0.048491   0.304289  -0.029983   0.003947
     3  C   -0.063913   0.000679  -0.005447  -0.177392   0.351805  -0.027847
     4  C   -0.071072  -0.002779   0.338705  -0.055638  -0.032628   0.367976
     5  C    0.358997  -0.036622  -0.066816  -0.008153  -0.033808  -0.006534
     6  C   -0.035669  -0.013002   0.000889  -0.000115  -0.004113   0.001966
     7  C    4.968760   0.369756   0.391054  -0.027172   0.006000  -0.002839
     8  C    0.369756   5.103111  -0.041557   0.003629  -0.000135   0.000735
     9  C    0.391054  -0.041557   5.029014   0.321155   0.003941  -0.030693
    10  C   -0.027172   0.003629   0.321155   5.391130   0.009258   0.004147
    11  H    0.006000  -0.000135   0.003941   0.009258   0.590271  -0.000810
    12  H   -0.002839   0.000735  -0.030693   0.004147  -0.000810   0.574882
    13  H    0.005449  -0.000007  -0.033923  -0.000702  -0.000605  -0.033718
    14  H   -0.035392   0.003458   0.002732   0.001908   0.001169  -0.000016
    15  H    0.004355   0.000296  -0.000062  -0.000013   0.003117   0.000079
    16  H   -0.004687   0.000883   0.000056   0.000018   0.000105  -0.000205
    17  H   -0.004798   0.001488   0.000300   0.000003  -0.000034   0.003126
    18  H    0.371899  -0.046327  -0.047629  -0.006009  -0.000151   0.000029
    19  H   -0.029014   0.370613  -0.004423   0.000077   0.000003   0.000088
    20  H   -0.033560   0.373759  -0.005802   0.000081  -0.000033   0.003159
    21  H   -0.026312   0.369468   0.004436  -0.000128   0.000002  -0.000154
    22  H   -0.041401  -0.003041   0.365725  -0.031268  -0.000146  -0.001618
    23  H   -0.006530   0.000105  -0.029455   0.352439  -0.000107  -0.000158
    24  H    0.004236  -0.000170  -0.030678   0.348448  -0.000250   0.000046
              13         14         15         16         17         18
     1  O    0.000083   0.002086  -0.000001   0.000000  -0.000000  -0.000005
     2  C   -0.003800  -0.001048   0.000029  -0.000105   0.000111  -0.000328
     3  C   -0.033080  -0.052890  -0.004050   0.004554  -0.005632   0.003465
     4  C    0.368479   0.007292  -0.000164  -0.000079   0.002503   0.006789
     5  C    0.005605   0.371544  -0.028722  -0.027768  -0.033627  -0.037064
     6  C    0.000013  -0.045103   0.371580   0.369653   0.373820   0.003518
     7  C    0.005449  -0.035392   0.004355  -0.004687  -0.004798   0.371899
     8  C   -0.000007   0.003458   0.000296   0.000883   0.001488  -0.046327
     9  C   -0.033923   0.002732  -0.000062   0.000056   0.000300  -0.047629
    10  C   -0.000702   0.001908  -0.000013   0.000018   0.000003  -0.006009
    11  H   -0.000605   0.001169   0.003117   0.000105  -0.000034  -0.000151
    12  H   -0.033718  -0.000016   0.000079  -0.000205   0.003126   0.000029
    13  H    0.580198  -0.000185  -0.000006   0.000004  -0.000124  -0.000194
    14  H   -0.000185   0.611309  -0.003801  -0.002876   0.005435  -0.008163
    15  H   -0.000006  -0.003801   0.568308  -0.029977  -0.031295  -0.000127
    16  H    0.000004  -0.002876  -0.029977   0.571135  -0.031648   0.000204
    17  H   -0.000124   0.005435  -0.031295  -0.031648   0.575133  -0.000076
    18  H   -0.000194  -0.008163  -0.000127   0.000204  -0.000076   0.627846
    19  H   -0.000006  -0.000126  -0.000006  -0.000039  -0.000030  -0.003828
    20  H   -0.000125  -0.000080  -0.000027   0.000058   0.000406   0.005605
    21  H    0.000004   0.000217  -0.000038   0.002346   0.000059  -0.002981
    22  H   -0.000709  -0.000140   0.000004   0.000005  -0.000041   0.001017
    23  H   -0.000047  -0.000100  -0.000000  -0.000002  -0.000000   0.005658
    24  H    0.002780  -0.000023  -0.000000  -0.000000   0.000000   0.000166
              19         20         21         22         23         24
     1  O    0.000000   0.000000  -0.000000  -0.000058   0.000390  -0.000535
     2  C   -0.000005  -0.000005  -0.000015   0.003916  -0.020665  -0.019585
     3  C   -0.000062   0.000351   0.000069   0.004375   0.004782   0.003279
     4  C   -0.000135   0.002556  -0.000092  -0.033506   0.005639  -0.000901
     5  C    0.004447  -0.004948  -0.004841   0.006613  -0.000338   0.000284
     6  C    0.000293   0.001502   0.000948  -0.000177   0.000018   0.000005
     7  C   -0.029014  -0.033560  -0.026312  -0.041401  -0.006530   0.004236
     8  C    0.370613   0.373759   0.369468  -0.003041   0.000105  -0.000170
     9  C   -0.004423  -0.005802   0.004436   0.365725  -0.029455  -0.030678
    10  C    0.000077   0.000081  -0.000128  -0.031268   0.352439   0.348448
    11  H    0.000003  -0.000033   0.000002  -0.000146  -0.000107  -0.000250
    12  H    0.000088   0.003159  -0.000154  -0.001618  -0.000158   0.000046
    13  H   -0.000006  -0.000125   0.000004  -0.000709  -0.000047   0.002780
    14  H   -0.000126  -0.000080   0.000217  -0.000140  -0.000100  -0.000023
    15  H   -0.000006  -0.000027  -0.000038   0.000004  -0.000000  -0.000000
    16  H   -0.000039   0.000058   0.002346   0.000005  -0.000002  -0.000000
    17  H   -0.000030   0.000406   0.000059  -0.000041  -0.000000   0.000000
    18  H   -0.003828   0.005605  -0.002981   0.001017   0.005658   0.000166
    19  H    0.575875  -0.031636  -0.030504   0.003410   0.000003  -0.000003
    20  H   -0.031636   0.576682  -0.031812   0.000022   0.000007   0.000004
    21  H   -0.030504  -0.031812   0.571943   0.000034  -0.000008   0.000002
    22  H    0.003410   0.000022   0.000034   0.606862   0.000518  -0.003472
    23  H    0.000003   0.000007  -0.000008   0.000518   0.547562  -0.024331
    24  H   -0.000003   0.000004   0.000002  -0.003472  -0.024331   0.552622
 Mulliken charges:
               1
     1  O   -0.457761
     2  C    0.450617
     3  C   -0.170852
     4  C   -0.292410
     5  C   -0.100659
     6  C   -0.451205
     7  C   -0.080825
     8  C   -0.454755
     9  C   -0.116283
    10  C   -0.355833
    11  H    0.135621
    12  H    0.144471
    13  H    0.144615
    14  H    0.142794
    15  H    0.150519
    16  H    0.148365
    17  H    0.144922
    18  H    0.126685
    19  H    0.145006
    20  H    0.143836
    21  H    0.147357
    22  H    0.123076
    23  H    0.164623
    24  H    0.168076
 Sum of Mulliken charges =  -0.00000
 Mulliken charges with hydrogens summed into heavy atoms:
               1
     1  O   -0.457761
     2  C    0.450617
     3  C   -0.035231
     4  C   -0.003324
     5  C    0.042135
     6  C   -0.007400
     7  C    0.045860
     8  C   -0.018555
     9  C    0.006793
    10  C   -0.023135
 APT charges:
               1
     1  O   -0.673987
     2  C    0.779413
     3  C   -0.114162
     4  C    0.059441
     5  C    0.114245
     6  C    0.064225
     7  C    0.096204
     8  C    0.061162
     9  C    0.088706
    10  C   -0.061679
    11  H   -0.028976
    12  H   -0.020085
    13  H   -0.031296
    14  H   -0.060268
    15  H   -0.020748
    16  H   -0.028960
    17  H   -0.013910
    18  H   -0.072728
    19  H   -0.026399
    20  H   -0.014347
    21  H   -0.025219
    22  H   -0.049972
    23  H   -0.009121
    24  H   -0.011539
 Sum of APT charges =   0.00000
 APT charges with hydrogens summed into heavy atoms:
               1
     1  O   -0.673987
     2  C    0.779413
     3  C   -0.143138
     4  C    0.008059
     5  C    0.053977
     6  C    0.000608
     7  C    0.023476
     8  C   -0.004803
     9  C    0.038734
    10  C   -0.082339
 Electronic spatial extent (au):  <R**2>=           1379.1652
 Charge=             -0.0000 electrons
 Dipole moment (field-independent basis, Debye):
    X=              2.7096    Y=             -1.3088    Z=              0.7958  Tot=              3.1126
 Quadrupole moment (field-independent basis, Debye-Ang):
   XX=            -70.5259   YY=            -60.6959   ZZ=            -60.3164
   XY=              4.5694   XZ=             -3.0788   YZ=              0.8484
 Traceless Quadrupole moment (field-independent basis, Debye-Ang):
   XX=             -6.6798   YY=              3.1502   ZZ=              3.5297
   XY=              4.5694   XZ=             -3.0788   YZ=              0.8484
 Octapole moment (field-independent basis, Debye-Ang**2):
  XXX=             20.4837  YYY=              1.6533  ZZZ=             -2.9201  XYY=             -1.8915
  XXY=            -11.7147  XXZ=              8.0037  XZZ=             -2.4514  YZZ=              0.2386
  YYZ=             -0.0948  XYZ=             -2.5690
 Hexadecapole moment (field-independent basis, Debye-Ang**3):
 XXXX=          -1097.6185 YYYY=           -539.5577 ZZZZ=           -265.5103 XXXY=             31.2226
 XXXZ=            -25.1522 YYYX=             -6.9006 YYYZ=              0.1026 ZZZX=              6.1942
 ZZZY=             -0.8156 XXYY=           -265.8651 XXZZ=           -209.2154 YYZZ=           -135.8596
 XXYZ=              3.6880 YYXZ=             -2.5353 ZZXY=              0.7172
 N-N= 5.654612527972D+02 E-N=-2.120562418000D+03  KE= 4.225438251776D+02
  Exact polarizability:  98.620   0.168  89.573   0.726   0.119  78.097
 Approx polarizability: 135.805  -4.742 126.593   4.990  -1.928 120.512
 Calling FoFJK, ICntrl=    100127 FMM=F ISym2X=0 I1Cent= 0 IOpClX= 0 NMat=1 NMatS=1 NMatT=0.
 Full mass-weighted force constant matrix:
 Low frequencies ---   -9.0571   -6.7924    0.0006    0.0007    0.0008    1.5464
 Low frequencies ---   82.1597  133.1644  218.2617
 Diagonal vibrational polarizability:
        5.6341455       4.2952892      10.6078765
 Harmonic frequencies (cm**-1), IR intensities (KM/Mole), Raman scattering
 activities (A**4/AMU), depolarization ratios for plane and unpolarized
 incident light, reduced masses (AMU), force constants (mDyne/A),
 and normal coordinates:
                      1                      2                      3
                      A                      A                      A
 Frequencies --     82.1593               133.1634               218.2616
 Red. masses --      3.4876                 4.3953                 1.0841
 Frc consts  --      0.0139                 0.0459                 0.0304
 IR Inten    --      2.0428                 2.7856                 0.0446
  Atom  AN      X      Y      Z        X      Y      Z        X      Y      Z
     1   8    -0.08   0.04   0.21     0.22   0.15  -0.19     0.01   0.03   0.01
     2   6    -0.01   0.04   0.02     0.04   0.01   0.06     0.00   0.01   0.00
     3   6     0.03  -0.02  -0.01     0.01  -0.10   0.18     0.00  -0.01   0.01
     4   6    -0.02  -0.07  -0.05     0.06  -0.16   0.06    -0.01  -0.02   0.01
     5   6     0.01  -0.04  -0.05    -0.10  -0.03   0.04    -0.00  -0.02  -0.00
     6   6    -0.02   0.05  -0.17    -0.12   0.09  -0.17    -0.03   0.00   0.02
     7   6     0.07  -0.03   0.02    -0.04  -0.00   0.01     0.00  -0.02   0.01
     8   6     0.04   0.01   0.25    -0.03   0.07   0.04     0.02   0.03  -0.03
     9   6    -0.02  -0.03  -0.09    -0.01  -0.07  -0.02    -0.00  -0.01   0.00
    10   6     0.01   0.06  -0.15    -0.05  -0.01   0.06     0.00   0.01  -0.02
    11   1     0.08  -0.03   0.02     0.05  -0.13   0.25     0.02  -0.01   0.01
    12   1    -0.02  -0.12  -0.02     0.09  -0.20   0.02    -0.01  -0.03   0.01
    13   1    -0.04  -0.07  -0.08     0.10  -0.21   0.08    -0.01  -0.01   0.00
    14   1    -0.05  -0.13  -0.07    -0.27  -0.08   0.09    -0.00  -0.03  -0.01
    15   1    -0.07   0.04  -0.24    -0.21   0.05  -0.12     0.02   0.05  -0.33
    16   1    -0.05   0.03  -0.21    -0.25   0.16  -0.32     0.14  -0.23   0.21
    17   1     0.03   0.14  -0.17     0.08   0.15  -0.24    -0.29   0.22   0.19
    18   1     0.23  -0.06  -0.00    -0.00   0.01  -0.00    -0.01  -0.04   0.01
    19   1     0.09   0.01   0.30     0.05   0.09   0.01    -0.05  -0.06   0.37
    20   1    -0.12   0.04   0.28    -0.07   0.05   0.06     0.18   0.44  -0.15
    21   1     0.12   0.01   0.34    -0.04   0.14   0.09    -0.05  -0.26  -0.35
    22   1    -0.08  -0.06  -0.12    -0.02  -0.10  -0.11    -0.02  -0.02  -0.00
    23   1     0.08   0.20  -0.20    -0.14  -0.02   0.07     0.02   0.03  -0.02
    24   1    -0.02  -0.02  -0.29    -0.03   0.03   0.13    -0.01  -0.00  -0.04
                      4                      5                      6
                      A                      A                      A
 Frequencies --    259.6538               277.0754               298.1360
 Red. masses --      1.4821                 1.8812                 1.6960
 Frc consts  --      0.0589                 0.0851                 0.0888
 IR Inten    --      0.1511                 0.1435                 0.0327
  Atom  AN      X      Y      Z        X      Y      Z        X      Y      Z
     1   8    -0.01  -0.01  -0.00    -0.01   0.00  -0.01    -0.01  -0.01  -0.01
     2   6     0.00   0.01  -0.01    -0.02  -0.01   0.01    -0.01  -0.00   0.01
     3   6    -0.02   0.01   0.04     0.01  -0.01  -0.04    -0.02   0.00   0.03
     4   6    -0.09  -0.01   0.06     0.07  -0.01  -0.06    -0.05  -0.02   0.03
     5   6    -0.01  -0.01   0.04    -0.01   0.01  -0.05    -0.02  -0.00   0.02
     6   6     0.06  -0.04  -0.06     0.06  -0.11   0.05     0.11  -0.12  -0.06
     7   6    -0.00  -0.01   0.06    -0.02   0.02  -0.07    -0.03   0.01   0.01
     8   6     0.03   0.04  -0.06    -0.03   0.13   0.10     0.01   0.15  -0.01
     9   6    -0.01   0.00   0.05    -0.00  -0.00  -0.07    -0.01  -0.01   0.02
    10   6     0.04   0.02  -0.07    -0.07  -0.03   0.07     0.00   0.00  -0.01
    11   1    -0.03   0.01   0.03     0.02  -0.01  -0.02    -0.02  -0.00   0.04
    12   1    -0.13  -0.02   0.13     0.09  -0.01  -0.11    -0.07  -0.04   0.07
    13   1    -0.15  -0.01  -0.01     0.11  -0.01  -0.01    -0.08  -0.03  -0.01
    14   1    -0.03  -0.02   0.05     0.01   0.09  -0.02    -0.03   0.01   0.03
    15   1     0.03  -0.08   0.28     0.10  -0.12   0.33     0.34  -0.01  -0.36
    16   1    -0.17   0.17  -0.32    -0.02   0.04  -0.04     0.20  -0.49   0.04
    17   1     0.39  -0.23  -0.25     0.17  -0.34  -0.07    -0.08   0.02   0.06
    18   1    -0.04  -0.02   0.07     0.06  -0.01  -0.08    -0.02   0.00   0.01
    19   1    -0.01  -0.00   0.17     0.01   0.07   0.46     0.19   0.23  -0.26
    20   1     0.20   0.28  -0.15    -0.09   0.46   0.05    -0.07  -0.05   0.05
    21   1    -0.07  -0.11  -0.30    -0.01  -0.05  -0.03    -0.05   0.41   0.16
    22   1    -0.03  -0.00   0.07     0.03  -0.00  -0.09    -0.01  -0.01   0.01
    23   1     0.17   0.09  -0.10    -0.22  -0.12   0.11     0.03   0.03  -0.02
    24   1    -0.02  -0.03  -0.20     0.01   0.03   0.23    -0.01  -0.01  -0.04
                      7                      8                      9
                      A                      A                      A
 Frequencies --    301.3950               373.1714               416.8468
 Red. masses --      2.5469                 2.4080                 4.2685
 Frc consts  --      0.1363                 0.1976                 0.4370
 IR Inten    --      0.5414                 0.1937                 2.6830
  Atom  AN      X      Y      Z        X      Y      Z        X      Y      Z
     1   8     0.02   0.12   0.04     0.02  -0.01  -0.03    -0.19  -0.05  -0.16
     2   6    -0.00   0.04  -0.01     0.00   0.01   0.05    -0.18   0.10   0.06
     3   6     0.01  -0.02  -0.08    -0.04   0.02   0.06    -0.08   0.01   0.10
     4   6    -0.02   0.04  -0.00     0.15   0.08   0.03     0.08  -0.04  -0.01
     5   6    -0.00  -0.13  -0.08    -0.12  -0.02  -0.05    -0.02  -0.04   0.06
     6   6    -0.14  -0.07   0.07    -0.09  -0.14   0.02    -0.00  -0.05  -0.02
     7   6     0.04  -0.13   0.02    -0.04   0.00  -0.02     0.16  -0.02   0.05
     8   6     0.12   0.11  -0.05    -0.07  -0.02   0.03     0.24  -0.07  -0.01
     9   6    -0.01  -0.04   0.06     0.04   0.04   0.03     0.03   0.03  -0.07
    10   6    -0.02   0.02   0.01     0.12   0.06  -0.10    -0.06   0.16   0.06
    11   1     0.09   0.03  -0.15     0.00   0.04   0.04     0.11   0.02   0.19
    12   1    -0.02   0.06   0.00     0.24   0.15  -0.15     0.16   0.04  -0.17
    13   1    -0.03   0.10   0.00     0.31   0.06   0.18     0.24  -0.16   0.10
    14   1     0.05  -0.16  -0.12    -0.15  -0.00  -0.03    -0.02  -0.10   0.04
    15   1    -0.31  -0.15   0.24     0.01  -0.11   0.09     0.07  -0.02  -0.03
    16   1    -0.10   0.20   0.12    -0.06  -0.18   0.06    -0.05  -0.13  -0.08
    17   1    -0.15  -0.17   0.05    -0.16  -0.26   0.01     0.05  -0.04  -0.04
    18   1     0.03  -0.21   0.05    -0.04  -0.06  -0.00     0.22   0.03   0.02
    19   1     0.39   0.18  -0.23    -0.13  -0.04   0.06     0.17  -0.07  -0.08
    20   1     0.12   0.02  -0.04    -0.12  -0.04   0.05     0.37  -0.12  -0.04
    21   1    -0.05   0.39   0.00     0.01  -0.08   0.07     0.19  -0.09  -0.08
    22   1    -0.09  -0.05   0.13     0.03   0.04   0.04    -0.12  -0.02  -0.11
    23   1     0.00  -0.00   0.01     0.36   0.28  -0.18    -0.27   0.13   0.08
    24   1    -0.05   0.04  -0.00     0.03  -0.10  -0.39     0.06   0.14   0.21
                     10                     11                     12
                      A                      A                      A
 Frequencies --    459.1449               494.7934               581.7500
 Red. masses --      2.5024                 2.8768                 2.4717
 Frc consts  --      0.3108                 0.4150                 0.4929
 IR Inten    --      2.0007                 6.2053                 1.5165
  Atom  AN      X      Y      Z        X      Y      Z        X      Y      Z
     1   8     0.05   0.11   0.05     0.00   0.17   0.04     0.05   0.01  -0.06
     2   6    -0.01  -0.02   0.02    -0.10  -0.10  -0.08    -0.13  -0.09   0.25
     3   6    -0.08  -0.01  -0.01    -0.13  -0.07  -0.05     0.03   0.01  -0.02
     4   6    -0.13  -0.00   0.00     0.09   0.06  -0.03    -0.04   0.03  -0.00
     5   6    -0.10   0.03  -0.05    -0.02   0.04   0.09     0.05   0.02  -0.08
     6   6    -0.07  -0.10  -0.03     0.07   0.03  -0.01     0.05   0.04   0.01
     7   6     0.08   0.10  -0.04     0.02   0.03   0.08     0.03   0.00  -0.04
     8   6     0.07  -0.07   0.01     0.06  -0.01   0.00     0.04  -0.01  -0.00
     9   6     0.13   0.07  -0.04    -0.02  -0.02   0.03    -0.03   0.02  -0.01
    10   6     0.07  -0.05   0.05    -0.06  -0.17  -0.06    -0.09  -0.07   0.03
    11   1    -0.12  -0.01  -0.04    -0.31  -0.10  -0.09     0.07   0.04  -0.05
    12   1    -0.29   0.04   0.27     0.25   0.21  -0.36    -0.09  -0.06   0.12
    13   1    -0.30  -0.14  -0.23     0.36   0.08   0.25    -0.15   0.07  -0.10
    14   1    -0.14   0.03  -0.03     0.04   0.02   0.05     0.05   0.03  -0.08
    15   1     0.10  -0.04   0.02     0.18   0.07  -0.06     0.03   0.03   0.05
    16   1    -0.05  -0.21  -0.01    -0.02  -0.12  -0.12     0.10   0.10   0.07
    17   1    -0.13  -0.23  -0.04     0.17   0.07  -0.04    -0.01  -0.01   0.02
    18   1     0.10   0.06  -0.04     0.05   0.08   0.07     0.04  -0.03  -0.04
    19   1    -0.15  -0.10   0.01     0.01  -0.01  -0.05     0.06  -0.01   0.01
    20   1     0.05  -0.14   0.03     0.18  -0.05  -0.02     0.01   0.00   0.00
    21   1     0.22  -0.22   0.04     0.00  -0.02  -0.06     0.05  -0.00   0.02
    22   1     0.20   0.09  -0.03     0.03   0.01   0.08     0.01   0.04   0.02
    23   1    -0.06  -0.18   0.10     0.08  -0.21  -0.06     0.11   0.50  -0.15
    24   1     0.22  -0.06   0.24    -0.03  -0.24  -0.11    -0.01  -0.55  -0.39
                     13                     14                     15
                      A                      A                      A
 Frequencies --    625.8947               692.4267               746.2609
 Red. masses --      3.3860                 3.1477                 2.7911
 Frc consts  --      0.7815                 0.8892                 0.9158
 IR Inten    --      0.4998                 0.6216                 0.3294
  Atom  AN      X      Y      Z        X      Y      Z        X      Y      Z
     1   8     0.14  -0.13   0.06     0.10  -0.05   0.04     0.01   0.01  -0.02
     2   6     0.15  -0.06   0.03     0.06  -0.05   0.07    -0.03   0.01   0.07
     3   6     0.04   0.06  -0.01    -0.12   0.05   0.05     0.04   0.03  -0.09
     4   6    -0.02   0.05  -0.05    -0.07   0.17  -0.06     0.01  -0.01  -0.13
     5   6    -0.10   0.10  -0.03     0.02  -0.13   0.20     0.07  -0.13   0.10
     6   6    -0.07  -0.05  -0.02    -0.01  -0.03   0.02    -0.06  -0.09  -0.01
     7   6     0.03   0.08   0.13     0.01  -0.10  -0.15    -0.01   0.11   0.20
     8   6     0.12  -0.02   0.02     0.02  -0.01  -0.02    -0.13   0.05   0.02
     9   6    -0.17  -0.01  -0.05    -0.01   0.05  -0.12     0.05   0.02  -0.08
    10   6    -0.14   0.02  -0.05    -0.01   0.03  -0.03     0.04  -0.01   0.03
    11   1    -0.11   0.03  -0.03    -0.19   0.10  -0.09     0.17   0.06  -0.09
    12   1     0.09  -0.13  -0.19    -0.06   0.29  -0.12    -0.00  -0.02  -0.12
    13   1     0.02   0.23   0.06     0.03   0.01  -0.01    -0.01  -0.01  -0.15
    14   1    -0.14   0.02  -0.05     0.07  -0.02   0.22     0.22  -0.22   0.00
    15   1     0.14   0.02   0.09    -0.16  -0.06  -0.20    -0.23  -0.14  -0.14
    16   1    -0.04  -0.16   0.02    -0.19  -0.06  -0.18    -0.15  -0.03  -0.12
    17   1    -0.16  -0.26  -0.05     0.26   0.32   0.01     0.09   0.13  -0.01
    18   1     0.17   0.11   0.09    -0.01   0.06  -0.19     0.08   0.21   0.16
    19   1    -0.05  -0.02  -0.14     0.24  -0.01   0.14    -0.33   0.06  -0.18
    20   1     0.42  -0.15  -0.03    -0.24   0.15   0.02     0.23  -0.09  -0.05
    21   1     0.02  -0.06  -0.12     0.07   0.05   0.09    -0.27   0.01  -0.17
    22   1    -0.17  -0.00  -0.03    -0.08   0.08   0.06     0.13   0.03  -0.13
    23   1    -0.29   0.08  -0.05    -0.21   0.08  -0.03    -0.04   0.12  -0.00
    24   1    -0.22   0.17   0.01     0.07   0.04   0.09     0.19  -0.17   0.05
                     16                     17                     18
                      A                      A                      A
 Frequencies --    756.4269               809.1158               829.4757
 Red. masses --      4.2952                 3.0545                 2.3359
 Frc consts  --      1.4480                 1.1782                 0.9469
 IR Inten    --      4.7110                 5.1549                 0.5820
  Atom  AN      X      Y      Z        X      Y      Z        X      Y      Z
     1   8    -0.02  -0.01   0.00    -0.08   0.02  -0.03    -0.00   0.01  -0.00
     2   6    -0.03  -0.09  -0.09    -0.01   0.10  -0.05    -0.03  -0.02   0.03
     3   6     0.11  -0.13   0.01     0.21   0.12   0.08    -0.00   0.08   0.17
     4   6     0.04   0.04   0.29     0.01   0.07  -0.06    -0.02   0.05   0.02
     5   6     0.12  -0.14   0.00    -0.04   0.02   0.12     0.05  -0.03  -0.09
     6   6    -0.05  -0.09  -0.03    -0.09  -0.06  -0.00     0.05   0.02  -0.03
     7   6     0.06   0.19  -0.07     0.00   0.02  -0.07    -0.02  -0.07   0.06
     8   6     0.01   0.04  -0.02     0.07  -0.01  -0.01    -0.04  -0.02   0.02
     9   6    -0.06   0.18  -0.01    -0.03  -0.07   0.01    -0.04   0.12  -0.10
    10   6    -0.15   0.00  -0.08    -0.03  -0.21  -0.02     0.05  -0.11  -0.12
    11   1     0.08   0.02  -0.30     0.43   0.10   0.23     0.03   0.08   0.19
    12   1     0.07  -0.04   0.27     0.00  -0.19   0.04     0.06  -0.16  -0.06
    13   1     0.01   0.09   0.28    -0.13   0.28  -0.12     0.04  -0.04   0.05
    14   1     0.04  -0.06   0.07    -0.12   0.10   0.19    -0.04  -0.13  -0.09
    15   1    -0.29  -0.18  -0.11    -0.06  -0.04  -0.06    -0.08  -0.04   0.10
    16   1    -0.02   0.07   0.00    -0.16  -0.13  -0.09     0.22   0.23   0.19
    17   1    -0.05   0.07   0.02    -0.00   0.01  -0.02    -0.17  -0.10   0.03
    18   1     0.05   0.20  -0.07    -0.01   0.16  -0.10     0.06  -0.16   0.07
    19   1    -0.22   0.00   0.00     0.04  -0.03   0.07     0.10   0.02  -0.07
    20   1    -0.07  -0.04   0.02    -0.07   0.01   0.02     0.15   0.02  -0.03
    21   1     0.21  -0.11   0.06     0.19  -0.06   0.08    -0.27   0.12  -0.11
    22   1    -0.02   0.13  -0.26     0.11   0.03   0.23    -0.02   0.15  -0.01
    23   1    -0.10  -0.11  -0.05     0.14  -0.22  -0.03    -0.18  -0.42  -0.01
    24   1    -0.12   0.01  -0.03    -0.10  -0.20  -0.11     0.30  -0.04   0.28
                     19                     20                     21
                      A                      A                      A
 Frequencies --    898.6428               921.8595               930.8170
 Red. masses --      2.2486                 2.5718                 2.3155
 Frc consts  --      1.0699                 1.2877                 1.1820
 IR Inten    --      6.9836                 1.8980                 1.1597
  Atom  AN      X      Y      Z        X      Y      Z        X      Y      Z
     1   8     0.01  -0.01   0.01     0.01  -0.01   0.02    -0.00   0.01   0.01
     2   6     0.05   0.07   0.02     0.01  -0.04  -0.06     0.04   0.05  -0.02
     3   6    -0.12   0.03   0.09     0.01  -0.03   0.01    -0.08   0.22  -0.05
     4   6    -0.10  -0.03  -0.07     0.01  -0.10  -0.14     0.02  -0.11   0.14
     5   6     0.10  -0.07  -0.08     0.03   0.01   0.02     0.01   0.02   0.01
     6   6     0.04  -0.03  -0.04    -0.03  -0.04  -0.00    -0.02  -0.03  -0.01
     7   6     0.04   0.12  -0.04    -0.03   0.00  -0.02    -0.04  -0.01  -0.01
     8   6     0.02   0.06  -0.03     0.05  -0.03   0.00     0.04  -0.03   0.01
     9   6    -0.04  -0.08   0.08    -0.11   0.26   0.08    -0.05  -0.03  -0.08
    10   6     0.00  -0.05   0.02     0.01   0.03   0.09     0.03  -0.07   0.07
    11   1    -0.04  -0.01   0.21    -0.07  -0.10   0.09    -0.23   0.38  -0.43
    12   1     0.05   0.12  -0.38     0.08  -0.37  -0.17     0.12  -0.27   0.00
    13   1     0.19  -0.07   0.21     0.05  -0.32  -0.20     0.14  -0.27   0.20
    14   1     0.09  -0.09  -0.08     0.03   0.08   0.04     0.15   0.01  -0.05
    15   1    -0.25  -0.14  -0.01    -0.10  -0.06  -0.07    -0.08  -0.04  -0.04
    16   1     0.17   0.25   0.13    -0.07  -0.02  -0.05    -0.05   0.01  -0.04
    17   1    -0.11   0.01   0.04     0.02   0.06   0.00     0.00   0.03   0.00
    18   1     0.01   0.12  -0.03    -0.13  -0.08   0.02    -0.01   0.08  -0.05
    19   1    -0.29  -0.00   0.02     0.19  -0.01   0.04     0.15  -0.01   0.03
    20   1    -0.10  -0.08   0.03     0.00   0.05   0.00     0.03   0.04  -0.00
    21   1     0.30  -0.16   0.09     0.01   0.06   0.03    -0.01   0.03   0.01
    22   1     0.09  -0.00   0.24    -0.15   0.31   0.28     0.01  -0.07  -0.30
    23   1     0.08   0.00   0.01     0.42  -0.01   0.08     0.20   0.04   0.02
    24   1    -0.19   0.08  -0.09    -0.00  -0.14  -0.10     0.03  -0.21  -0.09
                     22                     23                     24
                      A                      A                      A
 Frequencies --    951.0814               988.3278              1021.4563
 Red. masses --      1.8603                 1.7415                 1.4519
 Frc consts  --      0.9915                 1.0022                 0.8925
 IR Inten    --      0.4626                 1.5139                 7.0766
  Atom  AN      X      Y      Z        X      Y      Z        X      Y      Z
     1   8     0.01   0.01  -0.01    -0.02   0.00   0.01     0.00   0.01  -0.00
     2   6    -0.05  -0.02   0.07     0.04   0.04  -0.08    -0.04  -0.06  -0.00
     3   6     0.05  -0.05  -0.07     0.01  -0.08   0.04    -0.03   0.03   0.03
     4   6    -0.09  -0.02   0.02    -0.05   0.07   0.01     0.10   0.04  -0.02
     5   6    -0.02   0.00  -0.00     0.01  -0.01   0.01    -0.01   0.02  -0.03
     6   6    -0.00   0.02   0.02     0.01   0.00  -0.03     0.04  -0.05   0.02
     7   6     0.00   0.03  -0.02    -0.01  -0.00  -0.03    -0.03   0.00  -0.03
     8   6     0.03   0.02  -0.02    -0.00  -0.03   0.05     0.03   0.04   0.03
     9   6    -0.13  -0.02  -0.00    -0.05  -0.01  -0.10    -0.05  -0.06   0.01
    10   6     0.17   0.04  -0.00     0.04  -0.01   0.15     0.04   0.04   0.00
    11   1     0.19  -0.01  -0.08     0.03  -0.15   0.18    -0.23  -0.05   0.11
    12   1     0.13  -0.15  -0.32    -0.07   0.35  -0.06    -0.06  -0.15   0.31
    13   1     0.05   0.35   0.31    -0.01   0.16   0.09    -0.20   0.14  -0.28
    14   1    -0.01   0.06   0.02    -0.16   0.00   0.08     0.12   0.20  -0.01
    15   1     0.09   0.05  -0.02    -0.03  -0.02   0.05    -0.30  -0.16  -0.16
    16   1    -0.08  -0.10  -0.07     0.11   0.09   0.10    -0.02   0.17  -0.04
    17   1     0.08   0.03  -0.01    -0.11  -0.07   0.00     0.11   0.26   0.08
    18   1    -0.08   0.02  -0.00     0.21   0.09  -0.10     0.13  -0.05  -0.05
    19   1    -0.05  -0.01   0.05     0.10   0.02  -0.09    -0.23   0.02  -0.10
    20   1    -0.11  -0.01   0.02     0.25  -0.00  -0.03     0.21  -0.14   0.02
    21   1     0.19  -0.06   0.08    -0.25   0.08  -0.13     0.07  -0.10  -0.06
    22   1    -0.34  -0.11  -0.11    -0.07  -0.08  -0.38    -0.26  -0.14  -0.06
    23   1     0.04  -0.18   0.07     0.39   0.14   0.08     0.14  -0.14   0.05
    24   1     0.40  -0.01   0.24    -0.01  -0.23  -0.15    -0.00   0.10   0.03
                     25                     26                     27
                      A                      A                      A
 Frequencies --   1026.3933              1035.2557              1061.4725
 Red. masses --      1.5514                 1.5314                 1.8889
 Frc consts  --      0.9629                 0.9670                 1.2539
 IR Inten    --      1.5618                12.7555                 8.6718
  Atom  AN      X      Y      Z        X      Y      Z        X      Y      Z
     1   8     0.00   0.01  -0.00     0.00  -0.01  -0.00     0.00  -0.01  -0.00
     2   6    -0.02  -0.02   0.01     0.03   0.06   0.03     0.01   0.03   0.03
     3   6    -0.01  -0.00   0.00     0.01  -0.03  -0.02    -0.04  -0.01   0.03
     4   6     0.01   0.01  -0.01    -0.06  -0.03   0.03    -0.01  -0.01   0.04
     5   6     0.10   0.10  -0.00    -0.04   0.02  -0.07     0.12   0.08  -0.07
     6   6    -0.05  -0.08  -0.05     0.02  -0.04   0.06    -0.11  -0.02   0.04
     7   6    -0.05   0.04   0.07    -0.10   0.00  -0.01     0.14  -0.02  -0.05
     8   6     0.04  -0.07  -0.04     0.06  -0.02   0.06    -0.10  -0.01   0.01
     9   6     0.02  -0.03   0.00     0.04   0.04   0.00    -0.04  -0.01   0.02
    10   6     0.01   0.02  -0.02    -0.02  -0.03  -0.03     0.00  -0.03  -0.01
    11   1    -0.17  -0.19   0.30     0.21  -0.03   0.07    -0.02  -0.08   0.17
    12   1    -0.03   0.09   0.04     0.01   0.18  -0.16    -0.01   0.02   0.03
    13   1    -0.06   0.23   0.01     0.08   0.00   0.18     0.00  -0.00   0.05
    14   1     0.24   0.05  -0.08     0.05   0.37   0.04     0.37   0.12  -0.15
    15   1    -0.20  -0.13  -0.05    -0.17  -0.09  -0.21     0.18   0.10  -0.11
    16   1    -0.02   0.05  -0.00    -0.16   0.02  -0.15    -0.34  -0.36  -0.24
    17   1    -0.12  -0.04  -0.01     0.27   0.33   0.07     0.19  -0.00  -0.08
    18   1    -0.34   0.18   0.09    -0.09  -0.31   0.07     0.33   0.02  -0.10
    19   1     0.41  -0.05   0.19     0.03   0.00  -0.08     0.02   0.03  -0.10
    20   1    -0.25   0.19  -0.01     0.27  -0.08   0.01     0.05   0.05  -0.04
    21   1     0.03   0.12   0.13    -0.05  -0.01  -0.06    -0.30   0.10  -0.11
    22   1     0.09  -0.07  -0.26     0.34   0.10  -0.12    -0.09   0.00   0.14
    23   1    -0.08   0.02  -0.01    -0.11   0.02  -0.04     0.08  -0.13   0.02
    24   1     0.05   0.01   0.04    -0.04   0.02   0.01    -0.08   0.07  -0.01
                     28                     29                     30
                      A                      A                      A
 Frequencies --   1084.8522              1100.5644              1136.8693
 Red. masses --      1.5663                 1.4559                 1.2321
 Frc consts  --      1.0861                 1.0390                 0.9382
 IR Inten    --      3.6422                 1.1470                 0.9311
  Atom  AN      X      Y      Z        X      Y      Z        X      Y      Z
     1   8    -0.02   0.02  -0.00     0.00   0.00  -0.01     0.01  -0.01  -0.00
     2   6    -0.02  -0.05  -0.04    -0.04  -0.01   0.08    -0.00   0.02   0.04
     3   6     0.06   0.01  -0.01    -0.01  -0.03  -0.03     0.02   0.01  -0.05
     4   6    -0.06  -0.01   0.02     0.01   0.00  -0.01     0.01  -0.02   0.01
     5   6     0.02   0.10   0.05    -0.01  -0.03   0.01     0.03   0.07   0.03
     6   6     0.00  -0.07  -0.06     0.02   0.00  -0.02    -0.01  -0.03  -0.04
     7   6     0.07  -0.04  -0.04    -0.04   0.09  -0.05    -0.00  -0.03   0.02
     8   6    -0.05  -0.00   0.02     0.01  -0.08   0.05     0.00   0.02  -0.01
     9   6     0.05  -0.03   0.02    -0.02  -0.04   0.04    -0.02   0.00   0.02
    10   6     0.02   0.04   0.01     0.05   0.01  -0.03    -0.02  -0.01  -0.04
    11   1    -0.21  -0.01  -0.11     0.14   0.11  -0.24     0.21   0.04  -0.03
    12   1     0.10  -0.21  -0.20    -0.01  -0.02   0.02    -0.14   0.56   0.07
    13   1     0.08   0.03   0.19    -0.00  -0.08  -0.05     0.14  -0.49  -0.05
    14   1    -0.17   0.28   0.20    -0.12   0.01   0.07    -0.08   0.18   0.12
    15   1    -0.28  -0.18  -0.04    -0.03  -0.02   0.02    -0.10  -0.07   0.01
    16   1     0.10   0.19   0.08     0.08   0.08   0.06     0.05   0.06   0.05
    17   1    -0.17   0.02   0.04    -0.05  -0.02   0.01    -0.12  -0.04  -0.00
    18   1     0.18  -0.06  -0.06     0.10   0.38  -0.16    -0.01   0.04  -0.00
    19   1    -0.02   0.02  -0.08     0.36  -0.01  -0.03    -0.09   0.00   0.00
    20   1     0.10  -0.00  -0.02     0.19   0.12  -0.04    -0.01  -0.04   0.01
    21   1    -0.18   0.04  -0.08    -0.31   0.17  -0.08     0.06  -0.04   0.00
    22   1     0.01   0.04   0.34     0.15   0.05   0.17    -0.38  -0.11   0.02
    23   1    -0.29   0.29  -0.05     0.11  -0.23   0.04     0.09  -0.23   0.02
    24   1     0.13  -0.07   0.04    -0.25   0.39  -0.01     0.10  -0.07   0.05
                     31                     32                     33
                      A                      A                      A
 Frequencies --   1164.8271              1167.6754              1193.3601
 Red. masses --      2.2166                 1.7169                 2.2023
 Frc consts  --      1.7720                 1.3792                 1.8479
 IR Inten    --      1.1698                14.9787                23.5043
  Atom  AN      X      Y      Z        X      Y      Z        X      Y      Z
     1   8     0.01  -0.01   0.01    -0.03  -0.01  -0.01    -0.00  -0.03  -0.02
     2   6     0.02  -0.00  -0.03     0.07   0.14  -0.00     0.05   0.18   0.13
     3   6    -0.01   0.02   0.01    -0.02  -0.12   0.01    -0.02  -0.04  -0.11
     4   6     0.00  -0.02  -0.00     0.06   0.04   0.03     0.05  -0.08   0.01
     5   6    -0.17   0.00  -0.08    -0.00  -0.01  -0.05    -0.04   0.01   0.09
     6   6     0.09  -0.05   0.06     0.01  -0.00   0.02     0.03  -0.01  -0.04
     7   6     0.17   0.05   0.09    -0.06   0.04   0.03     0.07  -0.05  -0.02
     8   6    -0.07  -0.07  -0.08     0.03  -0.02   0.00    -0.03   0.01  -0.01
     9   6     0.00   0.01  -0.01    -0.06  -0.03  -0.04    -0.03   0.07   0.01
    10   6    -0.04  -0.01   0.02     0.03  -0.04  -0.00    -0.04  -0.05  -0.05
    11   1     0.27   0.09  -0.00    -0.20  -0.05  -0.22    -0.51  -0.23   0.03
    12   1    -0.01   0.05   0.00    -0.01  -0.02   0.17    -0.00   0.02   0.06
    13   1    -0.01   0.05   0.02    -0.04  -0.14  -0.14    -0.15   0.46   0.02
    14   1    -0.15   0.03  -0.07     0.01   0.03  -0.05    -0.09  -0.08   0.08
    15   1    -0.21  -0.14  -0.15    -0.01  -0.00  -0.04    -0.12  -0.08   0.06
    16   1     0.01   0.23  -0.04    -0.03  -0.00  -0.03     0.14   0.13   0.09
    17   1     0.20   0.36   0.13     0.07   0.05   0.01    -0.14  -0.02   0.03
    18   1     0.17   0.06   0.09    -0.06   0.29  -0.03     0.10  -0.14  -0.00
    19   1     0.23  -0.05   0.13     0.09  -0.01   0.04    -0.07   0.01  -0.02
    20   1    -0.39   0.23  -0.05     0.01   0.03  -0.00    -0.05  -0.01  -0.00
    21   1    -0.11   0.17   0.09     0.02   0.03   0.03    -0.01  -0.01  -0.01
    22   1    -0.23  -0.07  -0.03    -0.15   0.08   0.52     0.20   0.12  -0.10
    23   1     0.10  -0.04   0.02    -0.28   0.24  -0.07     0.19  -0.30   0.01
    24   1    -0.01  -0.09  -0.03     0.34  -0.31   0.10    -0.01  -0.01   0.03
                     34                     35                     36
                      A                      A                      A
 Frequencies --   1211.8516              1241.3693              1265.8727
 Red. masses --      1.6541                 1.6008                 1.6982
 Frc consts  --      1.4312                 1.4534                 1.6033
 IR Inten    --      1.1902                 1.5748                 2.9747
  Atom  AN      X      Y      Z        X      Y      Z        X      Y      Z
     1   8     0.02  -0.01   0.02    -0.00  -0.01   0.00     0.01   0.00   0.01
     2   6     0.01  -0.02  -0.05     0.03   0.02  -0.02     0.01   0.01  -0.02
     3   6    -0.04   0.09  -0.07    -0.05   0.01   0.08    -0.15  -0.05  -0.04
     4   6     0.03  -0.08   0.03     0.03  -0.02  -0.08     0.06   0.01   0.02
     5   6    -0.06  -0.05   0.03     0.07  -0.05  -0.01     0.02   0.04   0.06
     6   6     0.02   0.02  -0.00    -0.03   0.02  -0.00    -0.00  -0.01  -0.05
     7   6    -0.02   0.04  -0.10     0.03   0.09  -0.04     0.03  -0.01   0.01
     8   6     0.00  -0.02   0.05    -0.02  -0.03   0.02    -0.01   0.01  -0.02
     9   6     0.01   0.03   0.09     0.01  -0.03   0.11    -0.07   0.03  -0.02
    10   6    -0.02   0.00  -0.04    -0.04   0.02  -0.03     0.08  -0.08   0.02
    11   1     0.22  -0.14   0.50    -0.02   0.23  -0.34     0.65   0.11   0.03
    12   1    -0.03   0.15   0.06    -0.04   0.04   0.03     0.01  -0.13   0.15
    13   1    -0.03   0.16   0.07    -0.08   0.22  -0.11    -0.10   0.12  -0.11
    14   1     0.19  -0.24  -0.15    -0.26   0.25   0.25     0.09   0.20   0.10
    15   1     0.02   0.01   0.04     0.08   0.05   0.02    -0.04  -0.03   0.06
    16   1     0.05   0.03   0.04    -0.01  -0.08   0.01     0.09   0.07   0.06
    17   1    -0.01  -0.01   0.00    -0.00  -0.08  -0.04    -0.15  -0.08  -0.01
    18   1     0.06   0.21  -0.16    -0.14  -0.35   0.11    -0.00  -0.24   0.08
    19   1     0.07   0.01  -0.08     0.12   0.00  -0.04    -0.04   0.00   0.01
    20   1     0.19   0.01  -0.01     0.07   0.07  -0.02    -0.05  -0.01  -0.00
    21   1    -0.14   0.03  -0.07    -0.14   0.07  -0.02     0.04  -0.01   0.02
    22   1    -0.19  -0.04   0.07    -0.11  -0.17  -0.31     0.04   0.07  -0.03
    23   1    -0.26   0.15  -0.06    -0.07  -0.03  -0.02    -0.25   0.31  -0.07
    24   1     0.29  -0.26   0.09     0.26  -0.27   0.06    -0.18   0.21  -0.01
                     37                     38                     39
                      A                      A                      A
 Frequencies --   1287.5628              1316.8536              1327.8766
 Red. masses --      1.5299                 1.3952                 1.5029
 Frc consts  --      1.4943                 1.4255                 1.5613
 IR Inten    --      0.6561                 0.3169                 5.2949
  Atom  AN      X      Y      Z        X      Y      Z        X      Y      Z
     1   8     0.02  -0.02   0.01    -0.01   0.01  -0.01     0.00   0.01   0.00
     2   6     0.01   0.00  -0.01    -0.02  -0.03  -0.00    -0.02  -0.07  -0.03
     3   6    -0.07  -0.05   0.05     0.06   0.01   0.07     0.01   0.05   0.03
     4   6    -0.01  -0.03   0.00     0.01  -0.10  -0.02     0.04  -0.10  -0.01
     5   6    -0.00   0.05   0.02    -0.03   0.02   0.02     0.03  -0.02  -0.03
     6   6     0.00  -0.01  -0.03     0.00  -0.01  -0.00    -0.02   0.00   0.01
     7   6    -0.04  -0.05   0.01     0.01   0.04  -0.03    -0.02  -0.04   0.04
     8   6     0.01   0.02   0.01     0.01  -0.01   0.02     0.01   0.01  -0.04
     9   6     0.09  -0.01  -0.05     0.01   0.03  -0.06    -0.11  -0.01  -0.01
    10   6    -0.10   0.08  -0.00     0.05  -0.05   0.02     0.02   0.06   0.00
    11   1     0.39   0.21  -0.24    -0.15   0.13  -0.27     0.00   0.08  -0.03
    12   1     0.03  -0.13  -0.04    -0.11   0.46   0.02    -0.13   0.43   0.12
    13   1    -0.08   0.36   0.08    -0.06   0.29   0.06    -0.07   0.21   0.01
    14   1     0.31   0.04  -0.11     0.23  -0.22  -0.18    -0.16   0.15   0.11
    15   1    -0.03  -0.02   0.02    -0.01  -0.01   0.02     0.05   0.03  -0.02
    16   1     0.04   0.06   0.02    -0.00   0.01  -0.00    -0.01  -0.02   0.01
    17   1    -0.08  -0.03  -0.00    -0.01   0.02   0.01     0.06   0.00  -0.02
    18   1    -0.06   0.19  -0.06    -0.24  -0.26   0.10     0.35   0.12  -0.07
    19   1    -0.06   0.01  -0.01    -0.00   0.01  -0.05    -0.02  -0.02   0.07
    20   1     0.05  -0.06   0.02     0.06   0.02   0.00    -0.13  -0.01   0.00
    21   1     0.03  -0.04  -0.02    -0.05   0.01  -0.02     0.09  -0.02   0.03
    22   1     0.00   0.04   0.27    -0.29   0.02   0.26     0.55   0.24   0.18
    23   1     0.35  -0.29   0.08    -0.08   0.13  -0.02     0.01   0.05   0.01
    24   1     0.15  -0.22  -0.00    -0.21   0.20  -0.05     0.17  -0.05   0.08
                     40                     41                     42
                      A                      A                      A
 Frequencies --   1344.8158              1350.5385              1394.0081
 Red. masses --      1.4559                 1.6040                 1.3092
 Frc consts  --      1.5514                 1.7237                 1.4989
 IR Inten    --      2.6798                 0.4499                 2.2645
  Atom  AN      X      Y      Z        X      Y      Z        X      Y      Z
     1   8    -0.00   0.00  -0.00     0.01  -0.00   0.00    -0.00  -0.00  -0.00
     2   6     0.01   0.00   0.01    -0.01  -0.02   0.00     0.00   0.01   0.01
     3   6    -0.03   0.02  -0.00    -0.03   0.06  -0.08     0.04  -0.00   0.02
     4   6     0.00  -0.06  -0.01     0.01  -0.01   0.05    -0.01  -0.00  -0.01
     5   6     0.05  -0.04  -0.07     0.04  -0.08  -0.01    -0.06  -0.09   0.01
     6   6    -0.01   0.00   0.02    -0.01   0.03   0.00    -0.01   0.04  -0.05
     7   6    -0.01  -0.08   0.04    -0.00   0.09   0.02    -0.05   0.02   0.03
     8   6     0.02   0.02   0.01     0.01  -0.03   0.00     0.01  -0.02  -0.04
     9   6     0.08   0.08   0.00     0.03  -0.04  -0.13     0.04   0.02   0.02
    10   6     0.01  -0.06   0.01    -0.03   0.03   0.02    -0.00  -0.02  -0.00
    11   1    -0.04   0.02   0.01    -0.01  -0.16   0.37    -0.14  -0.03  -0.02
    12   1     0.01   0.00  -0.03     0.01  -0.06   0.09     0.02   0.01  -0.07
    13   1    -0.07   0.31   0.06     0.01   0.06   0.09     0.00   0.00   0.01
    14   1    -0.37   0.25   0.22    -0.25   0.25   0.24     0.53   0.57   0.05
    15   1     0.06   0.04  -0.05     0.03   0.04   0.00     0.06   0.05   0.13
    16   1    -0.03  -0.02  -0.00    -0.01  -0.10   0.00     0.12  -0.03   0.10
    17   1     0.10   0.01  -0.02     0.01  -0.09  -0.04    -0.08  -0.09  -0.06
    18   1    -0.13   0.57  -0.11    -0.19  -0.36   0.18     0.44  -0.05  -0.04
    19   1    -0.11   0.00   0.01     0.02  -0.02  -0.01     0.01  -0.04   0.07
    20   1    -0.02  -0.07   0.04    -0.03   0.08  -0.01    -0.12   0.05  -0.01
    21   1    -0.02  -0.02  -0.05    -0.06   0.08   0.02     0.02   0.07   0.06
    22   1    -0.35  -0.07  -0.05    -0.15   0.06   0.50    -0.17  -0.05  -0.04
    23   1    -0.07   0.12  -0.04     0.19  -0.15   0.05    -0.01   0.04  -0.02
    24   1    -0.20   0.16  -0.04    -0.04  -0.02  -0.05    -0.05   0.05   0.02
                     43                     44                     45
                      A                      A                      A
 Frequencies --   1398.9186              1436.0284              1445.9545
 Red. masses --      1.3862                 1.2757                 1.2161
 Frc consts  --      1.5983                 1.5500                 1.4980
 IR Inten    --      3.6640                 2.9921                 3.2745
  Atom  AN      X      Y      Z        X      Y      Z        X      Y      Z
     1   8    -0.00  -0.00  -0.00     0.00  -0.00  -0.00     0.00  -0.00  -0.00
     2   6     0.01   0.01   0.01     0.00   0.00   0.00    -0.00   0.00   0.00
     3   6    -0.03  -0.01  -0.01    -0.01  -0.01  -0.01     0.00   0.01  -0.01
     4   6    -0.00  -0.01  -0.00    -0.00   0.01   0.00     0.00  -0.00   0.01
     5   6     0.07   0.05   0.01     0.03   0.03   0.01     0.00  -0.01  -0.00
     6   6     0.01   0.00   0.03    -0.08  -0.07  -0.02    -0.06  -0.05  -0.03
     7   6    -0.13   0.04   0.01    -0.04   0.01  -0.01     0.01   0.00   0.00
     8   6    -0.01  -0.01  -0.05     0.09  -0.03   0.01    -0.10   0.02  -0.02
     9   6     0.06   0.02   0.01     0.01  -0.00   0.00     0.01   0.00  -0.01
    10   6    -0.01  -0.02  -0.01    -0.00   0.00  -0.00     0.00   0.00   0.00
    11   1     0.06   0.02  -0.03     0.02  -0.00  -0.00    -0.02  -0.02   0.03
    12   1     0.02  -0.05  -0.03     0.01  -0.04  -0.01     0.03   0.01  -0.05
    13   1    -0.02   0.11   0.03    -0.00  -0.00  -0.00    -0.05   0.00  -0.04
    14   1    -0.28  -0.37  -0.02    -0.07  -0.15  -0.02    -0.01   0.03   0.02
    15   1    -0.13  -0.05  -0.10     0.41   0.12   0.09     0.33   0.10   0.09
    16   1    -0.11  -0.09  -0.10     0.15   0.31   0.23     0.16   0.24   0.23
    17   1    -0.02  -0.08   0.02     0.26   0.34  -0.03     0.24   0.28  -0.04
    18   1     0.67  -0.25  -0.07     0.14  -0.10  -0.01    -0.01  -0.02   0.02
    19   1     0.16  -0.02   0.14    -0.34  -0.07  -0.07     0.40   0.07   0.11
    20   1    -0.00  -0.02  -0.04    -0.32   0.14   0.07     0.40  -0.14  -0.11
    21   1     0.16  -0.01   0.13    -0.24   0.21  -0.13     0.32  -0.21   0.21
    22   1    -0.24  -0.06   0.04    -0.03  -0.02   0.01    -0.03   0.00   0.03
    23   1     0.01   0.03  -0.02     0.00  -0.01   0.00    -0.01  -0.02   0.01
    24   1    -0.04   0.04   0.02     0.01  -0.01   0.00    -0.02  -0.00  -0.03
                     46                     47                     48
                      A                      A                      A
 Frequencies --   1481.4326              1520.5839              1521.9445
 Red. masses --      1.0904                 1.0444                 1.0493
 Frc consts  --      1.4099                 1.4228                 1.4320
 IR Inten    --      8.7219                 7.3920                 0.2166
  Atom  AN      X      Y      Z        X      Y      Z        X      Y      Z
     1   8    -0.00   0.00  -0.00     0.00  -0.00   0.00    -0.00   0.00   0.00
     2   6    -0.00  -0.01  -0.00     0.00   0.00   0.00     0.00  -0.00  -0.00
     3   6     0.00   0.00  -0.00    -0.00  -0.00  -0.00    -0.00   0.00   0.00
     4   6    -0.00   0.01  -0.01    -0.00   0.00   0.00     0.00  -0.00   0.00
     5   6    -0.00   0.00   0.00    -0.01   0.01   0.00     0.01   0.00  -0.02
     6   6    -0.00  -0.00  -0.00    -0.03   0.03  -0.01     0.01   0.00  -0.04
     7   6     0.01   0.00  -0.00     0.00   0.02   0.00    -0.01  -0.01   0.02
     8   6    -0.01  -0.00   0.01     0.01   0.03   0.01    -0.01  -0.01   0.03
     9   6     0.00  -0.01  -0.00     0.00  -0.00   0.00     0.00   0.00  -0.00
    10   6    -0.06  -0.05  -0.03    -0.00  -0.00  -0.00     0.00  -0.00   0.00
    11   1    -0.01  -0.01   0.01     0.01   0.00  -0.01     0.01   0.01   0.00
    12   1    -0.04  -0.03   0.08     0.01  -0.02  -0.01     0.01  -0.00  -0.01
    13   1     0.08  -0.02   0.07    -0.01  -0.01  -0.01    -0.01   0.01  -0.01
    14   1    -0.00  -0.01  -0.00    -0.00  -0.04  -0.02    -0.06  -0.01   0.00
    15   1     0.02   0.01   0.00    -0.27  -0.08  -0.04    -0.10  -0.08   0.50
    16   1     0.00   0.02   0.00     0.27  -0.26   0.32    -0.00  -0.32  -0.04
    17   1     0.01   0.02   0.00     0.41  -0.09  -0.21    -0.05   0.36   0.11
    18   1    -0.05  -0.01   0.01     0.01  -0.03   0.01     0.06   0.02  -0.00
    19   1     0.02   0.01  -0.03     0.25   0.05   0.03     0.09   0.09  -0.48
    20   1     0.02   0.01  -0.00    -0.27  -0.30   0.14    -0.13   0.34  -0.02
    21   1     0.01  -0.02  -0.00    -0.12  -0.24  -0.36     0.16  -0.27  -0.03
    22   1     0.00  -0.01   0.01    -0.01  -0.00   0.01    -0.01  -0.00   0.00
    23   1     0.51   0.44  -0.19     0.01   0.00  -0.00    -0.01  -0.01   0.00
    24   1     0.18   0.29   0.60     0.00   0.00   0.01    -0.01  -0.00  -0.02
                     49                     50                     51
                      A                      A                      A
 Frequencies --   1532.7666              1539.1042              1546.0246
 Red. masses --      1.0776                 1.0494                 1.0637
 Frc consts  --      1.4916                 1.4646                 1.4979
 IR Inten    --      0.1474                 2.7601                14.7520
  Atom  AN      X      Y      Z        X      Y      Z        X      Y      Z
     1   8     0.00  -0.00   0.00     0.00  -0.00  -0.00     0.00  -0.00   0.00
     2   6     0.00   0.01   0.00    -0.00   0.00   0.00     0.00   0.00  -0.00
     3   6     0.00  -0.01  -0.00     0.00  -0.01  -0.00    -0.00  -0.01  -0.00
     4   6    -0.01   0.01  -0.07    -0.00   0.00  -0.01    -0.01   0.01  -0.05
     5   6    -0.00  -0.01   0.01    -0.01   0.01   0.01    -0.00   0.01  -0.01
     6   6     0.00  -0.02   0.01    -0.02   0.02   0.02    -0.01   0.01  -0.02
     7   6    -0.01   0.01   0.01    -0.00  -0.02   0.01     0.00  -0.01  -0.01
     8   6    -0.00   0.02   0.02    -0.01  -0.03   0.02    -0.00  -0.01  -0.03
     9   6     0.00   0.01  -0.00    -0.00   0.01   0.00    -0.00   0.01   0.00
    10   6     0.01   0.00   0.01     0.00  -0.00   0.00     0.01   0.00   0.00
    11   1    -0.01  -0.01  -0.01     0.01   0.00  -0.02     0.01   0.00  -0.02
    12   1    -0.25  -0.13   0.44    -0.04  -0.02   0.06    -0.21  -0.11   0.36
    13   1     0.38   0.05   0.37     0.05   0.01   0.05     0.30   0.04   0.30
    14   1     0.04   0.04   0.01     0.02  -0.01  -0.01    -0.02  -0.03  -0.02
    15   1     0.19   0.07  -0.15    -0.12   0.00  -0.37    -0.18  -0.08   0.27
    16   1    -0.10   0.26  -0.11     0.17   0.05   0.23     0.13  -0.31   0.13
    17   1    -0.14  -0.05   0.05     0.30  -0.32  -0.21     0.16   0.18  -0.03
    18   1     0.06  -0.02   0.01     0.01   0.03  -0.01    -0.03   0.02  -0.01
    19   1     0.22   0.07  -0.17    -0.14   0.03  -0.37    -0.19  -0.08   0.27
    20   1    -0.17  -0.05   0.06     0.10   0.49  -0.12     0.23  -0.06  -0.07
    21   1     0.03  -0.28  -0.20     0.19  -0.01   0.24    -0.03   0.30   0.22
    22   1    -0.02   0.01  -0.01     0.01   0.01  -0.02     0.01   0.01  -0.02
    23   1    -0.07  -0.05   0.02    -0.02  -0.01   0.00    -0.04  -0.02   0.01
    24   1    -0.03  -0.03  -0.08    -0.01  -0.00  -0.02    -0.01  -0.02  -0.04
                     52                     53                     54
                      A                      A                      A
 Frequencies --   1849.1448              3035.2666              3046.8750
 Red. masses --     12.3352                 1.0857                 1.0354
 Frc consts  --     24.8506                 5.8930                 5.6634
 IR Inten    --    249.9007                11.2550                11.2522
  Atom  AN      X      Y      Z        X      Y      Z        X      Y      Z
     1   8    -0.43   0.25  -0.17    -0.00   0.00  -0.00    -0.00  -0.00  -0.00
     2   6     0.66  -0.38   0.27     0.00  -0.00   0.00     0.00   0.00   0.00
     3   6    -0.04   0.02  -0.02    -0.00   0.00   0.00    -0.00   0.00   0.00
     4   6    -0.02   0.01  -0.01     0.00   0.00  -0.00    -0.00   0.00  -0.00
     5   6    -0.02   0.00   0.01     0.01  -0.01   0.03     0.00   0.00   0.00
     6   6     0.00  -0.00  -0.01    -0.00   0.00  -0.01    -0.02  -0.02  -0.01
     7   6     0.00  -0.00  -0.00    -0.01  -0.02  -0.07    -0.00   0.00   0.00
     8   6     0.00  -0.00  -0.00    -0.00   0.00   0.01     0.04  -0.01   0.01
     9   6    -0.01   0.02  -0.01    -0.00   0.00  -0.00    -0.00   0.00  -0.00
    10   6    -0.04   0.02  -0.02     0.00   0.00   0.00     0.00   0.00  -0.00
    11   1     0.18  -0.01   0.08     0.00  -0.00  -0.00     0.00  -0.01  -0.00
    12   1    -0.02  -0.01  -0.00     0.00   0.00   0.00     0.01   0.00   0.00
    13   1     0.02  -0.02   0.02    -0.01  -0.00   0.01    -0.00  -0.00   0.00
    14   1     0.05  -0.01  -0.01    -0.17   0.17  -0.41    -0.01   0.00  -0.01
    15   1    -0.00  -0.00   0.00     0.00  -0.00  -0.00    -0.12   0.30   0.02
    16   1     0.02   0.02   0.02    -0.00   0.00   0.00     0.25   0.00  -0.22
    17   1    -0.01  -0.00  -0.00     0.02  -0.02   0.06     0.12  -0.10   0.31
    18   1    -0.00  -0.01   0.00     0.16   0.22   0.82    -0.00  -0.01  -0.03
    19   1     0.00   0.00   0.00     0.00  -0.05  -0.01    -0.06   0.48   0.09
    20   1    -0.00   0.00  -0.00    -0.02  -0.02  -0.09    -0.11  -0.09  -0.45
    21   1     0.00  -0.00   0.00     0.02   0.02  -0.02    -0.27  -0.23   0.26
    22   1    -0.03   0.02  -0.01     0.01  -0.02   0.00     0.01  -0.02   0.01
    23   1     0.06  -0.11   0.02     0.00  -0.01  -0.04    -0.00  -0.00  -0.00
    24   1     0.04  -0.07  -0.02    -0.01  -0.01   0.01    -0.01  -0.01   0.01
                     55                     56                     57
                      A                      A                      A
 Frequencies --   3052.7882              3053.3830              3056.4343
 Red. masses --      1.0415                 1.0612                 1.0817
 Frc consts  --      5.7190                 5.8290                 5.9540
 IR Inten    --     24.0623                28.2196                31.5496
  Atom  AN      X      Y      Z        X      Y      Z        X      Y      Z
     1   8     0.00  -0.00   0.00    -0.00  -0.00  -0.00     0.00  -0.00   0.00
     2   6     0.00  -0.00  -0.00    -0.00   0.00   0.00    -0.00  -0.00  -0.00
     3   6    -0.00   0.00  -0.00     0.00   0.00   0.00     0.00  -0.00  -0.00
     4   6     0.00  -0.00   0.01     0.00   0.00  -0.00     0.00   0.00  -0.01
     5   6    -0.01   0.01  -0.02     0.00  -0.00   0.00    -0.02   0.03  -0.06
     6   6    -0.02  -0.03  -0.01    -0.01  -0.01  -0.00     0.01  -0.00   0.01
     7   6    -0.00  -0.00  -0.01     0.00   0.00  -0.00    -0.01  -0.01  -0.04
     8   6    -0.02   0.01  -0.00    -0.01   0.00  -0.00     0.01  -0.00   0.01
     9   6     0.00  -0.00   0.00    -0.00   0.01  -0.00    -0.00   0.00  -0.00
[...]
 56189,-0.00213491,-0.09499651,0.00008443,0.00039075,0.00026503,-0.0001
 8663,0.00039128,0.00000766,-0.00000758,-0.00003025,0.00002732,-0.00003
 298,-0.00008879,0.00015081,0.00018576,-0.00004121,0.00042635,0.0003165
 2,-0.00008736,-0.00015835,0.00017135,0.00000073,-0.00007004,0.00008265
 ,0.00045920,0.00012920,-0.00911970,-0.00119949,-0.02220599,0.09434929,
 -0.00099273,-0.00057037,0.00047698,0.00077772,0.00190072,-0.00196682,-
 0.00330627,-0.00655345,-0.00086229,-0.00033354,0.00028013,0.00034928,-
 0.01158286,-0.00078525,-0.02893012,-0.00218382,-0.04834307,-0.00454989
 ,0.00012922,0.00129742,-0.00012474,0.00044020,-0.00061283,-0.00023118,
 -0.00003060,0.00028606,-0.00012995,0.00002297,-0.00007555,0.00057070,-
 0.00010470,0.00021861,0.00007227,0.00021329,0.00000422,0.00000706,0.00
 014929,-0.00001148,-0.00003027,0.00051044,0.00132046,0.00059342,0.0078
 8371,0.00092290,0.02237497,0.00337402,0.05200190,-0.00046774,-0.000267
 98,0.00005856,0.00064508,0.00073160,-0.00047571,-0.00106164,-0.0016128
 0,0.00106204,-0.00007618,0.00026559,0.00034634,-0.00116192,-0.00058208
 ,-0.00458847,-0.09422771,-0.00483056,-0.27260863,-0.00068890,0.0001631
 3,0.00006700,-0.00044595,0.00044296,-0.00081408,0.00010756,0.00003602,
 -0.00011045,-0.00009576,-0.00018932,0.00029318,0.00026402,0.00005398,0
 .00019904,-0.00017106,0.00011514,0.00011990,-0.00004023,-0.00006286,-0
 .00000680,-0.00018626,-0.00040186,0.00068380,0.00008408,0.00068486,-0.
 00051364,0.10587597,0.00542116,0.29415247,0.00020681,-0.00001716,-0.00
 008548,-0.00032747,0.00018292,0.00011848,0.00041864,0.00034917,0.00085
 765,-0.00041239,-0.00015057,-0.00009879,-0.01024656,-0.00349083,0.0079
 4789,-0.18492171,-0.04212601,0.12398597,-0.00007326,0.00068490,-0.0004
 1016,-0.00053117,0.00026006,0.00021623,0.00034930,-0.00015388,0.000242
 10,0.00003948,0.00014975,-0.00006814,-0.00026427,0.00005153,-0.0001653
 8,0.00076852,0.00001634,-0.00014833,0.00019567,0.00012155,-0.00008585,
 0.00008165,-0.00288634,-0.00093746,-0.01641943,-0.00577162,0.01583639,
 0.01076917,0.00375829,-0.00890160,0.20010215,0.00026913,-0.00000660,-0
 .00012736,-0.00014952,0.00021372,0.00045459,0.00074259,0.00133002,0.00
 062062,-0.00053971,-0.00038243,-0.00020677,-0.02281860,-0.00643922,0.0
 2123528,-0.04183397,-0.06247408,0.03836531,-0.00046917,0.00127306,0.00
 041262,0.00020980,-0.00046636,0.00024449,0.00000068,-0.00009589,0.0001
 3762,-0.00002850,0.00006866,-0.00007749,0.00001823,0.00005168,-0.00031
 850,0.00051277,-0.00030519,-0.00079896,0.00033615,0.00025096,-0.000029
 03,-0.00285148,-0.00561152,-0.00165120,0.01613938,0.00616401,-0.016709
 54,0.00090662,-0.00066137,-0.00007897,0.04793326,0.06708528,0.00015585
 ,0.00012490,-0.00009047,-0.00017069,-0.00034566,0.00029371,-0.00011462
 ,0.00060565,0.00060175,0.00017889,-0.00045027,0.00001443,-0.00568559,-
 0.00073682,0.00496505,0.12361359,0.03913314,-0.16361018,0.00062368,0.0
 0021914,0.00019274,0.00070355,-0.00015902,-0.00056556,-0.00017108,-0.0
 0000780,0.00002180,-0.00003457,0.00005493,-0.00012471,0.00000659,0.000
 13802,0.00004565,-0.00014929,-0.00070038,-0.00049694,-0.00009573,0.000
 12678,0.00005886,-0.00111892,-0.00158748,0.00082623,-0.00265143,-0.001
 37902,0.00160620,0.02307416,0.00629504,-0.01920106,-0.13754951,-0.0410
 9958,0.17463125,-0.00006826,-0.00022909,0.00009949,0.00013540,0.000664
 97,-0.00029665,-0.00096418,0.00142579,-0.00077797,-0.00049514,0.000461
 59,-0.00088195,0.00447616,0.01424973,-0.01169914,-0.00148594,0.0007514
 2,-0.00085371,-0.07742266,-0.05731026,0.06093098,-0.01602811,-0.022331
 61,0.02267442,0.00024020,0.00050367,-0.00186133,0.00046917,0.00023394,
 -0.00195499,-0.00028951,-0.00007042,-0.00051360,-0.00000737,0.00014108
 ,-0.00011197,0.00008786,0.00021339,-0.00018467,0.00131657,0.00054166,-
 0.00044735,0.00021494,0.00051060,0.00013480,-0.00001015,-0.00008380,0.
 00016271,0.00003074,0.00021730,-0.00015107,0.09344431,0.00026572,0.000
 27891,-0.00016247,-0.00042334,-0.00089513,0.00036715,0.00117581,-0.001
 52939,0.00043464,-0.00009714,-0.00114352,-0.00279739,-0.00787514,-0.01
 659101,0.01526662,0.00314543,-0.00126531,0.00089418,-0.05650340,-0.154
 52740,0.11321285,-0.00381269,-0.00463553,0.00528183,0.00384169,0.00913
 138,-0.01066875,0.00034027,0.00123719,-0.00075445,0.00027878,0.0000930
 1,0.00067948,0.00012115,-0.00001254,-0.00012679,-0.00022904,0.00084157
 ,-0.00028388,0.00002237,0.00108685,-0.00043316,-0.00028194,-0.00106010
 ,-0.00029410,-0.00013433,-0.00000576,-0.00015276,-0.00006783,0.0002758
 7,0.00004148,0.06082563,0.16645603,-0.00029030,-0.00030713,0.00005851,
 -0.00003191,0.00115366,-0.00016446,0.00025696,-0.00055126,-0.00041009,
 -0.00076185,-0.00346445,-0.00547368,0.00054637,-0.00244934,0.00123720,
 -0.00002843,-0.00051579,0.00014432,0.05939811,0.11216069,-0.16689048,-
 0.00393725,-0.00536762,0.00626917,0.00757544,0.01842796,-0.02182429,0.
 00200648,0.00157197,0.00109142,-0.00017481,-0.00000340,0.00003651,0.00
 015192,-0.00016129,0.00026262,-0.00052782,0.00174287,-0.00097224,-0.00
 055279,-0.00020733,0.00122758,0.00005876,-0.00008965,-0.00007853,0.000
 02491,0.00003391,-0.00001480,-0.00003683,-0.00002322,-0.00003544,-0.06
 227058,-0.11965338,0.18338116,-0.00006246,-0.00028398,-0.00000830,0.00
 032613,0.00080347,0.00008205,-0.00083928,0.00080746,0.00032533,0.00009
 067,-0.00004422,0.00006659,-0.00414523,-0.00356543,-0.00127004,0.00002
 236,-0.00119908,-0.00001686,-0.01873405,0.02832636,-0.00160368,-0.1166
 9616,0.11542926,-0.00335347,0.00078983,0.00100510,0.00122243,0.0001544
 5,-0.00034481,0.00019228,-0.00012303,-0.00012374,-0.00050689,0.0000739
 1,0.00000010,-0.00001564,0.00007956,-0.00002855,-0.00004100,-0.0008996
 3,0.00078579,-0.00017361,0.00018434,0.00014948,-0.00000142,0.00004005,
 -0.00007951,0.00018908,0.00021284,0.00012063,-0.00026574,0.00118250,-0
 .00007625,0.00068319,0.12893152,0.00009060,0.00009434,-0.00001087,-0.0
 0018559,-0.00021545,0.00004391,-0.00009186,0.00050198,-0.00011891,-0.0
 0027445,-0.00007291,0.00017747,-0.00171062,-0.00000969,-0.00095328,0.0
 0018670,-0.00036886,0.00006568,-0.00497409,0.00654601,-0.00041413,0.11
 601231,-0.24205852,0.00696854,0.00002605,0.00027992,-0.00011764,-0.000
 08102,0.00031740,0.00020757,-0.00010406,0.00001406,-0.00011590,0.00015
 360,0.00006897,-0.00011135,0.00010853,0.00007116,0.00001630,-0.0000252
 5,0.00009340,0.00007411,0.00027368,0.00008414,0.00004198,-0.00004654,0
 .00017715,0.00032091,0.00006449,0.00026443,-0.00029042,0.00059778,0.00
 090111,-0.00003000,-0.12594447,0.26149496,0.00006820,-0.00007926,-0.00
 001633,0.00006011,0.00018772,0.00002072,-0.00000869,0.00006339,0.00003
 578,0.00017839,0.00028466,-0.00037754,-0.00117667,-0.00083723,0.000568
 62,0.00020498,-0.00018882,-0.00064883,-0.00405959,0.00637863,-0.001382
 09,-0.00309653,0.00691563,-0.05000519,-0.00050276,0.00120511,0.0006415
 0,0.00006737,-0.00019599,0.00007145,-0.00004117,0.00000565,-0.00006812
 ,-0.00014322,-0.00018987,0.00006536,-0.00013893,-0.00005146,-0.0000144
 2,-0.00029450,0.00022686,-0.00012264,0.00001790,0.00001083,0.00025483,
 0.00002534,0.00020821,0.00040290,-0.00010090,-0.00020139,0.00014178,0.
 00043618,-0.00039029,0.00022711,0.00510975,-0.00659311,0.04876966,0.00
 010511,0.00016115,-0.00001253,0.00008431,-0.00046002,0.00006385,-0.000
 01791,0.00028072,0.00008857,-0.00068823,-0.00056425,-0.00018562,0.0011
 7081,-0.00075314,0.00045625,-0.00038666,0.00015615,0.00027342,-0.01329
 622,-0.02037507,0.02333099,-0.09621471,-0.06608118,0.07488155,0.001279
 77,0.00038157,0.00105410,0.00000961,0.00005983,-0.00001327,0.00001170,
 0.00001788,-0.00008694,0.00013436,0.00068338,-0.00077600,0.00035241,0.
 00030522,-0.00005357,0.00028676,0.00014480,-0.00002202,0.00032735,0.00
 009859,-0.00021459,0.00000179,0.00001700,-0.00004287,-0.00004239,0.001
 16707,-0.00029583,-0.00639148,-0.00137870,-0.00216387,0.00795903,0.009
 62142,-0.01280792,0.10449238,0.00004316,0.00000948,0.00000571,0.000155
 92,-0.00002816,-0.00002619,-0.00002806,0.00033328,0.00003308,-0.000206
 03,-0.00020803,-0.00001729,0.00035775,-0.00006202,-0.00038367,0.000212
 28,-0.00057973,0.00013637,-0.00299848,-0.00412081,0.00337569,-0.066439
 41,-0.14368147,0.10643367,-0.00008224,0.00021401,0.00089334,0.00002706
 ,-0.00018212,-0.00010614,-0.00001131,-0.00001291,-0.00010326,0.0002631
 7,0.00056816,0.00001613,0.00009454,0.00009159,-0.00007096,-0.00012248,
 -0.00000097,-0.00004284,0.00002578,0.00015223,-0.00004618,0.00001129,0
 .00001454,-0.00011059,0.00104451,-0.00059648,-0.00016275,-0.00133952,0
 .00101193,-0.00066827,-0.01265280,-0.01646280,0.01993587,0.07419663,0.
 15397681,0.00008169,-0.00007506,0.00000498,-0.00010562,0.00015095,-0.0
 0003367,-0.00009426,-0.00017767,0.00000398,-0.00045237,0.00021289,-0.0
 0002609,0.00038106,0.00050698,0.00022048,0.00000575,0.00073855,-0.0006
 1697,-0.00268295,-0.00567124,0.00645625,0.07539171,0.10584029,-0.17026
 633,0.00041923,-0.00028246,0.00041320,-0.00000526,-0.00002899,0.000176
 75,0.00003787,-0.00001602,0.00005642,-0.00064670,0.00000523,-0.0005656
 8,0.00010813,-0.00010793,0.00007221,0.00001990,-0.00015503,-0.00001877
 ,-0.00033144,-0.00018650,0.00012898,0.00017732,0.00009855,-0.00016822,
 -0.00035938,-0.00008865,0.00085398,-0.00204815,-0.00080726,0.00068095,
 -0.00084482,-0.00056046,-0.00030035,-0.08153110,-0.11865912,0.18244336
 ,-0.00018173,0.00026738,0.00002349,0.00034783,-0.00072448,0.00004488,0
 .00038636,0.00009186,0.00007575,-0.00000371,-0.00052700,0.00019434,0.0
 0134838,-0.00013507,-0.00008031,-0.00041833,0.00046802,-0.00023333,-0.
 00128929,-0.01424668,-0.03100391,-0.04993511,-0.00827381,-0.01610302,-
 0.00662711,-0.00077086,0.00091026,0.00023693,-0.00037163,-0.00200149,-
 0.00004495,0.00008013,0.00004586,0.00003530,0.00021582,-0.00008251,-0.
 00001693,0.00017947,-0.00009857,-0.00006246,-0.00006380,0.00004351,0.0
 0010456,-0.00007900,0.00020242,-0.00023056,0.00116233,0.00011288,0.000
 02851,0.00002537,0.00015742,0.00140097,0.00018046,0.00068629,0.0010270
 0,0.00631949,0.01613393,0.00057840,0.00738804,0.01221552,0.05381474,-0
 .00019146,0.00008920,0.00003775,0.00017528,-0.00018445,-0.00009070,-0.
 00007273,0.00003267,-0.00004763,-0.00024192,-0.00021954,-0.00000519,0.
 00007377,-0.00001542,0.00036645,0.00044709,-0.00044040,0.00002440,-0.0
 0024803,-0.00321309,-0.00508591,-0.00831284,-0.09902929,-0.10342207,-0
 .00129043,0.00012176,0.00041933,0.00001108,0.00027855,-0.00039699,-0.0
 0001799,0.00003111,0.00000047,0.00005163,0.00022401,-0.00014783,0.0000
 2051,0.00012469,-0.00007936,-0.00012872,0.00006224,0.00000089,-0.00004
 213,0.00008574,-0.00000674,0.00095493,-0.00073756,0.00021652,-0.000009
 16,0.00000366,0.00013374,0.00010634,-0.00008158,0.00000882,-0.00250689
 ,-0.01200069,-0.02634573,0.00219455,0.00978548,0.01919684,0.00922877,0
 .10491246,-0.00023331,0.00017755,-0.00001010,0.00014314,-0.00043839,0.
 00011138,0.00013007,0.00015827,0.00005342,0.00023041,-0.00009442,0.000
 28540,0.00007527,-0.00067039,0.00001960,0.00032414,-0.00057909,-0.0007
 6212,-0.00045489,-0.00168698,-0.00566066,-0.01646676,-0.10262236,-0.26
 213129,-0.00170187,-0.00049338,0.00140261,0.00020728,0.00013910,-0.000
 64370,-0.00009106,0.00006300,-0.00001729,0.00000126,-0.00019990,0.0001
 2520,-0.00007951,-0.00002963,-0.00000435,-0.00010652,0.00018471,-0.000
 03112,0.00033907,0.00013395,0.00041635,0.00009837,0.00024033,0.0011344
 8,-0.00010578,-0.00001549,-0.00018296,-0.00041404,-0.00005120,0.000706
 62,0.00094908,0.00097359,0.00206949,-0.00137575,-0.01022864,-0.0195164
 5,0.01871669,0.11484761,0.28245108,-0.00194567,0.00236907,0.00003075,-
 0.00349779,-0.00535777,-0.00018807,0.00094985,0.00002417,-0.00008257,0
 .00021383,-0.00076182,-0.00041813,0.00049637,-0.00076598,-0.00128786,0
 .00017597,-0.00022740,0.00016276,0.00314621,-0.00326778,-0.00147987,0.
 00052186,-0.00040426,-0.00057968,-0.19914914,0.12248916,0.05095169,-0.
 01760188,0.01783551,0.00552072,0.00020029,-0.00005973,0.00011871,0.000
 34641,0.00037262,-0.00039314,-0.00007924,0.00027472,-0.00023800,0.0001
 0962,-0.00011109,-0.00000828,-0.00001048,-0.00009146,0.00002871,0.0000
 3966,0.00010743,0.00005294,-0.00000408,0.00001724,-0.00002155,-0.00004
 565,0.00014771,0.00026395,0.00043369,-0.00009156,0.00002437,0.00009064
 ,0.00000356,0.00016605,0.00017008,-0.00009989,0.00007771,0.21426510,-0
 .00117720,0.00203280,0.00006353,-0.00301107,-0.00412294,-0.00022604,0.
 00099965,-0.00449837,0.00232122,0.01643225,-0.01079193,-0.00897100,0.0
 0067350,-0.00068779,-0.00095422,0.00038145,-0.00011025,-0.00006912,0.0
 0684327,-0.00625574,-0.00105701,0.00069815,0.00036651,0.00052801,0.121
 67268,-0.14815921,-0.04024534,-0.01273498,0.01235478,0.00374055,0.0013
 3284,0.00005046,-0.00087453,-0.00053008,0.00048238,-0.00053700,-0.0001
 2461,0.00065453,0.00036580,0.00020460,-0.00041575,-0.00013814,-0.00014
 752,-0.00012150,-0.00004541,-0.00002675,-0.00005904,-0.00009826,-0.000
 02647,0.00000139,0.00004222,-0.00003069,-0.00004114,-0.00034435,-0.000
 56271,0.00029220,-0.00037828,-0.00012641,-0.00030472,0.00000302,-0.000
 18889,0.00021995,0.00023557,-0.13216308,0.15852380,-0.00018249,-0.0000
 2151,0.00007064,-0.00136980,0.00090620,0.00024000,-0.00088494,0.003587
 64,-0.00304289,-0.01622783,0.01008835,0.00682224,-0.00101596,-0.001488
 23,-0.00456135,0.00127296,-0.00048224,0.00012336,0.02075322,-0.0175133
 9,-0.00472488,0.00133857,0.00001796,0.00181312,0.05127476,-0.04165487,
 -0.06667275,-0.00141044,0.00128866,0.00007106,-0.00093426,0.00026362,0
 .00113443,0.00062830,-0.00074928,0.00047434,0.00007695,-0.00087970,0.0
 0029902,0.00044855,-0.00067427,0.00009198,-0.00022906,-0.00049980,-0.0
 0004978,0.00001469,0.00006629,-0.00001933,-0.00012360,-0.00004057,0.00
 005910,0.00011786,0.00040759,-0.00047494,-0.00076545,0.00039532,-0.000
 33282,-0.00035427,-0.00007531,0.00004105,0.00011922,0.00042470,0.00018
 129,-0.05267441,0.04623113,0.06806389,-0.00061150,-0.00102375,0.002889
 10,0.00678568,0.00951097,-0.01916909,-0.00101608,0.00210163,0.00219980
 ,-0.00678475,-0.00269993,-0.00082116,0.00060241,0.00079521,-0.00021864
 ,0.00001603,-0.00016766,0.00029984,0.00136422,0.00077108,0.00232567,0.
 00001912,0.00030282,0.00004386,-0.00242099,-0.01762195,0.02175194,-0.0
 6273331,-0.03663682,0.04249491,0.00035315,0.00031564,0.00005854,0.0005
 4513,-0.00184725,0.00099664,-0.00009890,0.00023823,-0.00004457,-0.0000
 2110,0.00001355,-0.00010169,0.00000183,-0.00001693,-0.00001559,0.00009
 056,0.00010445,0.00002043,0.00006161,0.00005758,-0.00000388,0.00033558
 ,0.00022755,-0.00114204,-0.00004965,-0.00001404,0.00001436,0.00018134,
 0.00010258,0.00001829,0.00005050,0.00003011,-0.00001805,-0.00020407,0.
 00039641,0.00012671,0.06252471,-0.00037854,0.00250644,-0.00248766,-0.0
 0742597,-0.01604583,0.01902368,0.00087629,-0.00271406,-0.00123383,-0.0
 0154172,-0.00122663,-0.00066475,-0.00023638,-0.00076652,0.00045732,-0.
 00015249,0.00011659,-0.00043052,0.00015260,-0.00002470,0.00151174,0.00
 007692,0.00029876,-0.00034847,-0.00035155,-0.00600614,0.00560313,-0.03
 814235,-0.14587685,0.12741092,-0.00037556,-0.00065199,-0.00029274,0.00
 034678,-0.00041241,0.00049831,0.00015735,0.00011564,0.00019140,0.00010
 420,-0.00017372,-0.00020617,0.00000158,0.00007335,0.00003090,-0.000059
 95,-0.00011343,-0.00007958,0.00008089,0.00006999,0.00001758,-0.0001679
 2,0.00022901,-0.00109527,-0.00000498,-0.00001728,0.00001621,0.00022167
 ,0.00008350,0.00002020,-0.00000373,-0.00002543,-0.00000179,-0.00022301
 ,0.00002505,-0.00006808,0.04323863,0.15885729,-0.00104755,0.00018252,0
 .00074650,0.00068558,-0.00287299,0.00066862,0.00009915,-0.00072848,-0.
 00084834,-0.00008296,-0.00069933,0.00034446,0.00003546,-0.00018885,0.0
 0011002,-0.00001732,-0.00003200,0.00001744,-0.00081724,-0.00097265,0.0
 0107246,0.00003264,-0.00004284,0.00020221,-0.00052543,-0.00294674,0.00
 204945,0.04531790,0.12541983,-0.19680046,-0.00000297,-0.00002247,-0.00
 003963,-0.00015345,-0.00010333,0.00041446,-0.00004197,-0.00026161,0.00
 035240,-0.00003054,-0.00001569,0.00001616,-0.00001308,0.00001643,-0.00
 000181,-0.00000443,0.00000960,0.00000303,-0.00001170,0.00000151,0.0000
 0520,-0.00005836,0.00014509,0.00039527,0.00003602,-0.00000615,-0.00000
 152,-0.00004541,-0.00006368,-0.00002496,0.00005519,0.00000160,0.000026
 25,0.00037074,0.00027812,-0.00006215,-0.04974178,-0.13495098,0.2123034
 2,-0.00088408,-0.00052389,-0.00367204,0.00298428,0.00865258,0.02193516
 ,-0.00089759,0.00168509,-0.00196690,0.00107438,0.00177923,-0.00080001,
 -0.00097719,0.00012964,-0.00039976,0.00004121,-0.00002581,-0.00002771,
 -0.00595885,-0.00265258,0.00109978,0.00056715,-0.00109646,-0.00177110,
 -0.00213432,-0.01657244,-0.02799099,-0.04715312,-0.01351235,-0.0187288
 9,0.00051473,0.00037405,-0.00014993,0.00014201,0.00025307,0.00009784,0
 .00032204,-0.00021149,0.00049495,0.00013324,-0.00021210,0.00003444,0.0
 0002421,-0.00008386,0.00001114,-0.00001537,0.00004747,0.00005305,-0.00
 002237,0.00001715,-0.00003423,-0.00012594,0.00030723,0.00026611,0.0000
 4161,0.00008891,0.00002999,-0.00002817,-0.00004593,0.00007953,-0.00071
 937,-0.00013187,-0.00024494,0.00137844,0.00121564,0.00000072,0.0010084
 8,0.00380723,0.00596152,0.05068461,0.00023706,0.00186110,0.00263299,-0
 .00415693,-0.01468336,-0.02319633,0.00280000,-0.00244387,0.00392251,-0
 .00047724,0.00023357,-0.00134192,0.00048023,0.00150538,0.00038688,0.00
 011580,-0.00008305,0.00028819,-0.00168217,0.00003989,0.00098566,0.0002
 6564,-0.00009931,-0.00066340,-0.00051505,-0.00542014,-0.00798777,-0.01
 452944,-0.11048858,-0.11732951,-0.00076980,-0.00079252,0.00013054,-0.0
 0001282,0.00023307,0.00032874,-0.00019135,-0.00040171,0.00072321,-0.00
 000149,0.00001695,-0.00001357,-0.00001380,0.00001631,0.00001961,0.0000
 1500,0.00010504,0.00001577,0.00000226,-0.00001362,-0.00001342,0.000118
 42,0.00024553,-0.00016814,-0.00001022,0.00000496,0.00001267,0.00003114
 ,-0.00000080,0.00004288,-0.00022221,-0.00002407,-0.00004206,-0.0000163
 8,0.00056451,0.00046979,0.00182190,0.01167936,0.01785307,0.01671148,0.
 11794538,0.00009374,-0.00018891,0.00101167,0.00037576,0.00081905,0.000
 51682,-0.00007748,-0.00018335,-0.00103185,0.00069620,0.00040200,0.0003
 2502,-0.00005208,0.00014342,0.00001203,0.00005767,-0.00006862,-0.00000
 126,-0.00141929,0.00034447,0.00023467,0.00031896,-0.00044295,0.0000094
 6,-0.00015735,0.00030577,-0.00178623,-0.02304269,-0.11096777,-0.238061
 76,0.00001986,0.00002499,-0.00001662,0.00000990,-0.00010381,0.00026928
 ,0.00017986,-0.00001082,0.00039749,-0.00002248,0.00005751,0.00000834,0
 .00000891,-0.00005061,0.00000102,-0.00001334,0.00000749,-0.00000156,-0
 .00001583,-0.00000533,-0.00001042,-0.00003092,-0.00015501,0.00062050,0
 .00001111,0.00003683,0.00000062,-0.00016714,-0.00006497,-0.00001509,-0
 .00013448,-0.00005098,-0.00002312,-0.00039754,0.00012954,0.00045537,-0
 .00196362,-0.01292155,-0.02094850,0.02572227,0.12294360,0.25803414\\0.
 00009989,-0.00000802,0.00002652,-0.00000588,0.00004982,-0.00000032,-0.
 00001896,-0.00001468,-0.00014617,-0.00004583,0.00000612,0.00003794,0.0
 0007370,-0.00006937,0.00005401,-0.00002059,0.00000231,0.00001451,-0.00
 003912,0.00006437,-0.00002687,-0.00002328,-0.00002610,0.00000496,-0.00
 002177,-0.00001212,-0.00001198,0.00001417,-0.00002166,0.00007042,0.000
 00846,0.00002119,0.00001466,-0.00000513,0.00000360,-0.00000894,-0.0000
 0100,-0.00000225,-0.00001218,-0.00001340,0.00000757,-0.00001593,-0.000
 00002,0.00000850,-0.00000226,-0.00000147,0.00000634,-0.00000361,-0.000
 00280,0.00001790,0.00002017,0.00000970,-0.00001670,-0.00001122,-0.0000
 0332,-0.00000156,0.00000859,0.00001981,-0.00001395,0.00001049,-0.00000
 148,0.00000740,0.00000314,-0.00001718,-0.00000048,0.00000713,-0.000002
 12,-0.00000875,-0.00000648,-0.00000237,0.00000054,-0.00002659\\\@


 NO SCIENCE HAS EVER MADE MORE RAPID PROGRESS IN A
 SHORTER TIME THAN CHEMISTRY.
   -- MARTIN HEINRICH KLOPROTH, 1791
 (FIRST PROFESSOR OF CHEMISTRY AT THE UNIVERSITY OF BERLIN)
 Job cpu time:       0 days  0 hours  1 minutes 57.6 seconds.
 Elapsed time:       0 days  0 hours  2 minutes  1.3 seconds.
 File lengths (MBytes):  RWF=     95 Int=      0 D2E=      0 Chk=      5 Scr=      1
 Normal termination of Gaussian 16 at Wed Feb 21 19:32:42 2024.
