 Entering Gaussian System, Link 0=g16
 Input=/Volumes/SSD-PMU3/b3lyp_6-31gd_freq/DSSYKIVIOFKYAU-XCBNKYQSSA-N_calculating/gaussianinput0.gjf
 Output=/Volumes/SSD-PMU3/b3lyp_6-31gd_freq/DSSYKIVIOFKYAU-XCBNKYQSSA-N_calculating/gaussianinput0.log
 Initial command:
 /Applications/g16/l1.exe "/Users/macmini_m1_2022/PycharmProjects/sphere_model/sphere_model_lib/Gau-59247.inp" -scrdir="/Users/macmini_m1_2022/PycharmProjects/sphere_model/sphere_model_lib/"
 Entering Link 1 = /Applications/g16/l1.exe PID=     59248.
  
 Copyright (c) 1988,1990,1992,1993,1995,1998,2003,2009,2016,
            Gaussian, Inc.  All Rights Reserved.
  
 This is part of the Gaussian(R) 16 program.  It is based on
 the Gaussian(R) 09 system (copyright 2009, Gaussian, Inc.),
 the Gaussian(R) 03 system (copyright 2003, Gaussian, Inc.),
 the Gaussian(R) 98 system (copyright 1998, Gaussian, Inc.),
 the Gaussian(R) 94 system (copyright 1995, Gaussian, Inc.),
 the Gaussian 92(TM) system (copyright 1992, Gaussian, Inc.),
 the Gaussian 90(TM) system (copyright 1990, Gaussian, Inc.),
 the Gaussian 88(TM) system (copyright 1988, Gaussian, Inc.),
 the Gaussian 86(TM) system (copyright 1986, Carnegie Mellon
 University), and the Gaussian 82(TM) system (copyright 1983,
 Carnegie Mellon University). Gaussian is a federally registered
 trademark of Gaussian, Inc.
  
 This software contains proprietary and confidential information,
 including trade secrets, belonging to Gaussian, Inc.
  
 This software is provided under written license and may be
 used, copied, transmitted, or stored only in accord with that
 written license.
  
 The following legend is applicable only to US Government
 contracts under FAR:
  
                    RESTRICTED RIGHTS LEGEND
  
 Use, reproduction and disclosure by the US Government is
 subject to restrictions as set forth in subparagraphs (a)
 and (c) of the Commercial Computer Software - Restricted
 Rights clause in FAR 52.227-19.
  
 Gaussian, Inc.
 340 Quinnipiac St., Bldg. 40, Wallingford CT 06492
  
  
 ---------------------------------------------------------------
 Warning -- This program may not be used in any manner that
 competes with the business of Gaussian, Inc. or will provide
 assistance to any competitor of Gaussian, Inc.  The licensee
 of this program is prohibited from giving any competitor of
 Gaussian, Inc. access to this program.  By using this program,
 the user acknowledges that Gaussian, Inc. is engaged in the
 business of creating and licensing software in the field of
 computational chemistry and represents and warrants to the
 licensee that it is not a competitor of Gaussian, Inc. and that
 it will not use this program in any manner prohibited above.
 ---------------------------------------------------------------
  

 Cite this work as:
 Gaussian 16, Revision A.03,
 M. J. Frisch, G. W. Trucks, H. B. Schlegel, G. E. Scuseria, 
 M. A. Robb, J. R. Cheeseman, G. Scalmani, V. Barone, 
 G. A. Petersson, H. Nakatsuji, X. Li, M. Caricato, A. V. Marenich, 
 J. Bloino, B. G. Janesko, R. Gomperts, B. Mennucci, H. P. Hratchian, 
 J. V. Ortiz, A. F. Izmaylov, J. L. Sonnenberg, D. Williams-Young, 
 F. Ding, F. Lipparini, F. Egidi, J. Goings, B. Peng, A. Petrone, 
 T. Henderson, D. Ranasinghe, V. G. Zakrzewski, J. Gao, N. Rega, 
 G. Zheng, W. Liang, M. Hada, M. Ehara, K. Toyota, R. Fukuda, 
 J. Hasegawa, M. Ishida, T. Nakajima, Y. Honda, O. Kitao, H. Nakai, 
 T. Vreven, K. Throssell, J. A. Montgomery, Jr., J. E. Peralta, 
 F. Ogliaro, M. J. Bearpark, J. J. Heyd, E. N. Brothers, K. N. Kudin, 
 V. N. Staroverov, T. A. Keith, R. Kobayashi, J. Normand, 
 K. Raghavachari, A. P. Rendell, J. C. Burant, S. S. Iyengar, 
 J. Tomasi, M. Cossi, J. M. Millam, M. Klene, C. Adamo, R. Cammi, 
 J. W. Ochterski, R. L. Martin, K. Morokuma, O. Farkas, 
 J. B. Foresman, and D. J. Fox, Gaussian, Inc., Wallingford CT, 2016.
 
 ******************************************
 Gaussian 16:  EM64M-G16RevA.03 25-Dec-2016
                22-Feb-2024 
 ******************************************
 %nprocshared=8
 Will use up to    8 processors via shared memory.
 %mem=4GB
 %chk= 0.chk
 ---------------------
 # freq b3lyp/6-31g(d)
 ---------------------
 1/10=4,30=1,38=1/1,3;
 2/12=2,17=6,18=5,40=1/2;
 3/5=1,6=6,7=1,11=2,25=1,30=1,71=2,74=-5,140=1/1,2,3;
 4//1;
 5/5=2,38=5,98=1/2;
 8/6=4,10=90,11=11/1;
 11/6=1,8=1,9=11,15=111,16=1/1,2,10;
 10/6=1/2;
 6/7=2,8=2,9=2,10=2,28=1/1;
 7/8=1,10=1,25=1/1,2,3,16;
 1/10=4,30=1/3;
 99//99;
 ---------
 good luck
 ---------
 Symbolic Z-matrix:
 Charge =  0 Multiplicity = 1
 O                     1.21202   0.        0. 
 C                     0.        0.        0. 
 C                    -0.91977  -1.23038  -0.01097 
 C                    -0.2305   -2.52195   0.3917 
 C                    -2.12925  -0.69298   0.83829 
 C                    -1.76174  -0.39081   2.30371 
 C                    -3.35588  -1.62038   0.85552 
 C                    -1.51057  -1.21618  -1.4618 
 C                    -2.49341  -0.00506  -1.46799 
 C                    -2.31798   0.58531  -0.04793 
 C                    -0.91865   1.23466  -0.01097 
 H                    -0.905    -3.38079   0.29844 
 H                     0.64255  -2.70024  -0.24502 
 H                     0.12979  -2.47832   1.42536 
 H                    -2.56966   0.16542   2.79479 
 H                    -0.84204   0.19139   2.41559 
 H                    -1.62121  -1.32266   2.86338 
 H                    -4.19887  -1.11889   1.34743 
 H                    -3.6914   -1.92651  -0.13827 
 H                    -3.14217  -2.53185   1.42593 
 H                    -2.02609  -2.16267  -1.65674 
 H                    -0.71916  -1.128    -2.21382 
 H                    -3.52423  -0.324    -1.64915 
 H                    -2.24718   0.72964  -2.24188 
 H                    -3.12916   1.24911   0.26776 
 H                    -0.73936   1.83776   0.88578 
 H                    -0.70161   1.87342  -0.87458 
 

 GradGradGradGradGradGradGradGradGradGradGradGradGradGradGradGradGradGrad
 Berny optimization.
 Initialization pass.
 Trust Radius=3.00D-01 FncErr=1.00D-07 GrdErr=1.00D-07 EigMax=2.50D+02 EigMin=1.00D-04
 Number of steps in this run=      2 maximum allowed number of steps=      2.
 GradGradGradGradGradGradGradGradGradGradGradGradGradGradGradGradGradGrad

                          Input orientation:                          
 ---------------------------------------------------------------------
 Center     Atomic      Atomic             Coordinates (Angstroms)
 Number     Number       Type             X           Y           Z
 ---------------------------------------------------------------------
      1          8           0        1.212018    0.000000    0.000000
      2          6           0        0.000000    0.000000    0.000000
      3          6           0       -0.919766   -1.230376   -0.010972
      4          6           0       -0.230501   -2.521953    0.391697
      5          6           0       -2.129253   -0.692977    0.838290
      6          6           0       -1.761736   -0.390812    2.303706
      7          6           0       -3.355881   -1.620379    0.855515
      8          6           0       -1.510573   -1.216178   -1.461795
      9          6           0       -2.493405   -0.005059   -1.467986
     10          6           0       -2.317976    0.585307   -0.047931
     11          6           0       -0.918653    1.234656   -0.010972
     12          1           0       -0.904997   -3.380789    0.298443
     13          1           0        0.642549   -2.700244   -0.245018
     14          1           0        0.129792   -2.478320    1.425361
     15          1           0       -2.569659    0.165420    2.794791
     16          1           0       -0.842035    0.191387    2.415588
     17          1           0       -1.621207   -1.322655    2.863384
     18          1           0       -4.198868   -1.118894    1.347433
     19          1           0       -3.691397   -1.926508   -0.138271
     20          1           0       -3.142174   -2.531854    1.425929
     21          1           0       -2.026088   -2.162669   -1.656741
     22          1           0       -0.719155   -1.127998   -2.213823
     23          1           0       -3.524228   -0.324002   -1.649150
     24          1           0       -2.247184    0.729640   -2.241879
     25          1           0       -3.129160    1.249114    0.267758
     26          1           0       -0.739358    1.837762    0.885776
     27          1           0       -0.701608    1.873418   -0.874580
 ---------------------------------------------------------------------
                    Distance matrix (angstroms):
                    1          2          3          4          5
     1  O    0.000000
     2  C    1.212018   0.000000
     3  C    2.461392   1.536201   0.000000
     4  C    2.931644   2.562578   1.518354   0.000000
     5  C    3.513835   2.390955   1.572546   2.673922   0.000000
     6  C    3.781932   2.926347   2.602214   3.246879   1.540719
     7  C    4.921711   3.823542   2.614873   3.285721   1.537852
     8  C    3.320909   2.428531   1.566570   2.603664   2.438626
     9  C    3.985620   2.893454   2.469946   3.861853   2.434080
    10  C    3.578511   2.391212   2.291956   3.769070   1.566848
    11  C    2.462571   1.538967   2.465032   3.840287   2.429520
    12  H    4.000069   3.512524   2.172609   1.096011   3.002427
    13  H    2.770496   2.786435   2.157804   1.095176   3.589647
    14  H    3.056949   2.861917   2.173014   1.095526   2.938603
    15  H    4.705242   3.800180   3.541567   4.297499   2.181444
    16  H    3.176606   2.565291   2.813476   3.439814   2.219662
    17  H    4.239758   3.546364   2.960145   3.079223   2.180736
    18  H    5.687283   4.549505   3.551085   4.316242   2.173462
    19  H    5.270107   4.166169   2.860549   3.551510   2.217107
    20  H    5.234744   4.279815   2.949174   3.089915   2.180091
    21  H    4.231697   3.395138   2.191272   2.747602   2.897554
    22  H    3.146875   2.586615   2.214335   2.995101   3.390135
    23  H    5.025604   3.904466   3.207548   4.454737   2.875666
    24  H    4.186224   3.257028   3.252791   4.644953   3.394877
    25  H    4.525241   3.379885   3.332714   4.757997   2.257662
    26  H    2.823090   2.169935   3.201589   4.417031   2.887681
    27  H    2.817188   2.183309   3.229079   4.598335   3.399776
                    6          7          8          9         10
     6  C    0.000000
     7  C    2.479998   0.000000
     8  C    3.863070   2.989727   0.000000
     9  C    3.861322   2.958341   1.559746   0.000000
    10  C    2.606225   2.599714   2.428221   1.547858   0.000000
    11  C    2.951384   3.852545   2.908925   2.477827   1.543089
    12  H    3.700682   3.068584   2.854943   4.127816   4.224500
    13  H    4.196434   4.285408   2.884256   4.312062   4.427008
    14  H    2.950772   3.634653   3.552389   4.622731   4.189029
    15  H    1.096949   2.751002   4.598804   4.266866   2.884565
    16  H    1.094223   3.469257   4.178789   4.224661   2.898707
    17  H    1.096047   2.670070   4.327904   4.610592   3.549868
    18  H    2.717384   1.097314   3.889493   3.475028   2.896394
    19  H    3.470620   1.092656   2.648071   2.625889   2.864203
    20  H    2.694469   1.096280   3.568203   3.896195   3.545174
    21  H    4.346780   2.893762   1.095265   2.215693   3.197630
    22  H    4.694517   4.076224   1.095292   2.228279   3.191039
    23  H    4.328500   2.825293   2.210404   1.094139   2.201315
    24  H    4.706741   4.042975   2.222011   1.095134   2.199830
    25  H    2.950303   2.937831   3.418895   2.233818   1.094677
    26  H    2.832371   4.336571   3.928411   3.465958   2.220920
    27  H    4.043774   4.716462   3.247283   2.662958   2.226033
                   11         12         13         14         15
    11  C    0.000000
    12  H    4.625825   0.000000
    13  H    4.239760   1.775779   0.000000
    14  H    4.116853   1.776283   1.761345   0.000000
    15  H    3.426572   4.645261   5.269796   4.018922   0.000000
    16  H    2.642437   4.152916   4.200517   3.008709   1.768941
    17  H    3.910926   3.365679   4.084667   2.543515   1.765965
    18  H    4.259609   4.131118   5.336280   4.537776   2.529551
    19  H    4.206813   3.173275   4.403765   4.165444   3.773236
    20  H    4.603838   2.645161   4.140597   3.272404   3.078448
    21  H    3.934055   2.561914   3.066524   3.774494   5.052881
    22  H    3.236431   3.379510   2.863981   3.973379   5.493952
    23  H    3.449937   4.471849   4.998014   5.238852   4.571580
    24  H    2.645181   5.015010   4.909390   5.421224   5.078423
    25  H    2.228058   5.136521   5.485085   5.084740   2.805945
    26  H    1.095464   5.254110   4.876665   4.435667   3.129068
    27  H    1.095876   5.387397   4.808481   4.991851   4.457707
                   16         17         18         19         20
    16  H    0.000000
    17  H    1.760668   0.000000
    18  H    3.758473   2.997326   0.000000
    19  H    4.373390   3.695979   1.765526   0.000000
    20  H    3.699474   2.416977   1.766131   1.764883   0.000000
    21  H    4.850508   4.615310   3.851688   2.266005   3.299212
    22  H    4.815322   5.160390   4.979059   3.712109   4.592344
    23  H    4.897130   4.998176   3.172775   2.208784   3.804824
    24  H    4.894503   5.537822   4.484340   3.683211   4.989105
    25  H    3.311027   3.952871   2.813794   3.250468   3.954396
    26  H    2.249760   3.831035   4.574183   4.892130   5.015858
    27  H    3.697858   5.003291   5.110978   4.890851   5.536707
                   21         22         23         24         25
    21  H    0.000000
    22  H    1.757543   0.000000
    23  H    2.371746   2.972154   0.000000
    24  H    2.959176   2.405510   1.758502   0.000000
    25  H    4.069487   4.197265   2.511037   2.710353   0.000000
    26  H    4.911570   4.289948   4.342185   3.644681   2.537638
    27  H    4.319262   3.286697   3.660027   2.359352   2.754578
                   26         27
    26  H    0.000000
    27  H    1.761122   0.000000
 Stoichiometry    C10H16O
 Framework group  C1[X(C10H16O)]
 Deg. of freedom    75
 Full point group                 C1      NOp   1
 Largest Abelian subgroup         C1      NOp   1
 Largest concise Abelian subgroup C1      NOp   1
                         Standard orientation:                         
 ---------------------------------------------------------------------
 Center     Atomic      Atomic             Coordinates (Angstroms)
 Number     Number       Type             X           Y           Z
 ---------------------------------------------------------------------
      1          8           0        2.591365   -0.318795    0.317900
      2          6           0        1.444100    0.071231    0.292391
      3          6           0        0.295785   -0.503494   -0.550804
      4          6           0        0.562151   -1.897227   -1.091133
      5          6           0       -0.920617   -0.259829    0.415579
      6          6           0       -0.838527   -1.075095    1.720347
      7          6           0       -2.296842   -0.537275   -0.212128
      8          6           0        0.071048    0.600178   -1.639630
      9          6           0       -0.582053    1.784110   -0.862089
     10          6           0       -0.605799    1.264457    0.595738
     11          6           0        0.858201    1.254275    1.083307
     12          1           0       -0.250599   -2.234651   -1.744450
     13          1           0        1.493339   -1.908855   -1.667470
     14          1           0        0.677111   -2.625710   -0.281026
     15          1           0       -1.588746   -0.724184    2.439604
     16          1           0        0.139076   -1.025482    2.209380
     17          1           0       -1.045508   -2.133443    1.524445
     18          1           0       -3.092910   -0.214647    0.470722
     19          1           0       -2.457233   -0.028818   -1.165879
     20          1           0       -2.432368   -1.611330   -0.384953
     21          1           0       -0.587957    0.212400   -2.423815
     22          1           0        1.011978    0.876679   -2.127340
     23          1           0       -1.589071    2.001159   -1.230798
     24          1           0       -0.004968    2.710785   -0.949056
     25          1           0       -1.294558    1.802361    1.254971
     26          1           0        0.960505    1.068326    2.158016
     27          1           0        1.406307    2.177780    0.864987
 ---------------------------------------------------------------------
 Rotational constants (GHZ):           1.4376257           1.1699130           1.0859778
 Standard basis: 6-31G(d) (6D, 7F)
 There are   197 symmetry adapted cartesian basis functions of A   symmetry.
 There are   197 symmetry adapted basis functions of A   symmetry.
   197 basis functions,   372 primitive gaussians,   197 cartesian basis functions
    42 alpha electrons       42 beta electrons
       nuclear repulsion energy       684.3272600098 Hartrees.
 NAtoms=   27 NActive=   27 NUniq=   27 SFac= 1.00D+00 NAtFMM=   60 NAOKFM=F Big=F
 Integral buffers will be    131072 words long.
 Raffenetti 2 integral format.
 Two-electron integral symmetry is turned on.
 One-electron integrals computed using PRISM.
 NBasis=   197 RedAO= T EigKep=  1.59D-03  NBF=   197
 NBsUse=   197 1.00D-06 EigRej= -1.00D+00 NBFU=   197
 ExpMin= 1.61D-01 ExpMax= 5.48D+03 ExpMxC= 8.25D+02 IAcc=3 IRadAn=         5 AccDes= 0.00D+00
 Harris functional with IExCor=  402 and IRadAn=       5 diagonalized for initial guess.
 HarFok:  IExCor=  402 AccDes= 0.00D+00 IRadAn=         5 IDoV= 1 UseB2=F ITyADJ=14
 ICtDFT=  3500011 ScaDFX=  1.000000  1.000000  1.000000  1.000000
 FoFCou: FMM=F IPFlag=           0 FMFlag=      100000 FMFlg1=           0
         NFxFlg=           0 DoJE=T BraDBF=F KetDBF=T FulRan=T
         wScrn=  0.000000 ICntrl=       500 IOpCl=  0 I1Cent=   200000004 NGrid=           0
         NMat0=    1 NMatS0=      1 NMatT0=    0 NMatD0=    1 NMtDS0=    0 NMtDT0=    0
 Petite list used in FoFCou.
 Requested convergence on RMS density matrix=1.00D-08 within 128 cycles.
 Requested convergence on MAX density matrix=1.00D-06.
 Requested convergence on             energy=1.00D-06.
 No special actions if energy rises.
 Integral accuracy reduced to 1.0D-05 until final iterations.
 Initial convergence to 1.0D-05 achieved.  Increase integral accuracy.
 SCF Done:  E(RB3LYP) =  -465.923552541     A.U. after   14 cycles
            NFock= 14  Conv=0.27D-08     -V/T= 2.0097
 DoSCS=F DFT=T ScalE2(SS,OS)=  1.000000  1.000000
 Range of M.O.s used for correlation:     1   197
 NBasis=   197 NAE=    42 NBE=    42 NFC=     0 NFV=     0
 NROrb=    197 NOA=    42 NOB=    42 NVA=   155 NVB=   155
 Symmetrizing basis deriv contribution to polar:
 IMax=3 JMax=2 DiffMx= 0.00D+00
 G2DrvN: will do    28 centers at a time, making    1 passes.
 Calling FoFCou, ICntrl=  3107 FMM=F I1Cent=   0 AccDes= 0.00D+00.
 End of G2Drv F.D. properties file   721 does not exist.
 End of G2Drv F.D. properties file   722 does not exist.
 End of G2Drv F.D. properties file   788 does not exist.
          IDoAtm=111111111111111111111111111
          Differentiating once with respect to electric field.
                with respect to dipole field.
          Differentiating once with respect to nuclear coordinates.
 Keep R1 ints in memory in canonical form, NReq=198401981.
          There are    84 degrees of freedom in the 1st order CPHF.  IDoFFX=6 NUNeed=     3.
     81 vectors produced by pass  0 Test12= 7.75D-15 1.19D-09 XBig12= 7.45D+01 1.94D+00.
 AX will form    81 AO Fock derivatives at one time.
     81 vectors produced by pass  1 Test12= 7.75D-15 1.19D-09 XBig12= 1.19D+01 8.44D-01.
     81 vectors produced by pass  2 Test12= 7.75D-15 1.19D-09 XBig12= 1.10D-01 4.30D-02.
     81 vectors produced by pass  3 Test12= 7.75D-15 1.19D-09 XBig12= 3.33D-04 2.87D-03.
     81 vectors produced by pass  4 Test12= 7.75D-15 1.19D-09 XBig12= 3.15D-07 4.46D-05.
     37 vectors produced by pass  5 Test12= 7.75D-15 1.19D-09 XBig12= 1.79D-10 1.10D-06.
      3 vectors produced by pass  6 Test12= 7.75D-15 1.19D-09 XBig12= 1.11D-13 3.60D-08.
 InvSVY:  IOpt=1 It=  1 EMax= 9.77D-15
 Solved reduced A of dimension   445 with    84 vectors.
 Isotropic polarizability for W=    0.000000       98.43 Bohr**3.
 End of Minotr F.D. properties file   721 does not exist.
 End of Minotr F.D. properties file   722 does not exist.
 End of Minotr F.D. properties file   788 does not exist.

 **********************************************************************

            Population analysis using the SCF density.

 **********************************************************************

 Orbital symmetries:
       Occupied  (A) (A) (A) (A) (A) (A) (A) (A) (A) (A) (A) (A)
                 (A) (A) (A) (A) (A) (A) (A) (A) (A) (A) (A) (A)
                 (A) (A) (A) (A) (A) (A) (A) (A) (A) (A) (A) (A)
                 (A) (A) (A) (A) (A) (A)
       Virtual   (A) (A) (A) (A) (A) (A) (A) (A) (A) (A) (A) (A)
                 (A) (A) (A) (A) (A) (A) (A) (A) (A) (A) (A) (A)
                 (A) (A) (A) (A) (A) (A) (A) (A) (A) (A) (A) (A)
                 (A) (A) (A) (A) (A) (A) (A) (A) (A) (A) (A) (A)
                 (A) (A) (A) (A) (A) (A) (A) (A) (A) (A) (A) (A)
                 (A) (A) (A) (A) (A) (A) (A) (A) (A) (A) (A) (A)
                 (A) (A) (A) (A) (A) (A) (A) (A) (A) (A) (A) (A)
                 (A) (A) (A) (A) (A) (A) (A) (A) (A) (A) (A) (A)
                 (A) (A) (A) (A) (A) (A) (A) (A) (A) (A) (A) (A)
                 (A) (A) (A) (A) (A) (A) (A) (A) (A) (A) (A) (A)
                 (A) (A) (A) (A) (A) (A) (A) (A) (A) (A) (A) (A)
                 (A) (A) (A) (A) (A) (A) (A) (A) (A) (A) (A) (A)
                 (A) (A) (A) (A) (A) (A) (A) (A) (A) (A) (A)
 The electronic state is 1-A.
 Alpha  occ. eigenvalues --  -19.13311 -10.26392 -10.20299 -10.19570 -10.19360
 Alpha  occ. eigenvalues --  -10.19012 -10.18680 -10.18651 -10.17902 -10.17885
 Alpha  occ. eigenvalues --  -10.17368  -1.03202  -0.88106  -0.76632  -0.75990
 Alpha  occ. eigenvalues --   -0.73391  -0.68212  -0.66451  -0.63757  -0.58224
 Alpha  occ. eigenvalues --   -0.53600  -0.49658  -0.48176  -0.48044  -0.46111
 Alpha  occ. eigenvalues --   -0.44165  -0.41925  -0.40952  -0.40424  -0.39602
 Alpha  occ. eigenvalues --   -0.39426  -0.38406  -0.37792  -0.37214  -0.35422
 Alpha  occ. eigenvalues --   -0.34526  -0.34033  -0.33109  -0.31957  -0.31014
 Alpha  occ. eigenvalues --   -0.29430  -0.22913
 Alpha virt. eigenvalues --   -0.00851   0.06846   0.10449   0.10726   0.11873
 Alpha virt. eigenvalues --    0.12899   0.12990   0.14774   0.15528   0.15950
 Alpha virt. eigenvalues --    0.16411   0.17137   0.18056   0.19128   0.19733
 Alpha virt. eigenvalues --    0.20403   0.20653   0.21641   0.22750   0.23108
 Alpha virt. eigenvalues --    0.23984   0.25345   0.26065   0.26749   0.28229
 Alpha virt. eigenvalues --    0.29892   0.30762   0.33508   0.36651   0.49311
 Alpha virt. eigenvalues --    0.50194   0.50489   0.51758   0.53701   0.54774
 Alpha virt. eigenvalues --    0.56452   0.58812   0.61008   0.61843   0.63659
 Alpha virt. eigenvalues --    0.64721   0.65967   0.66727   0.67923   0.69687
 Alpha virt. eigenvalues --    0.71181   0.73012   0.74645   0.75834   0.77511
 Alpha virt. eigenvalues --    0.79318   0.83133   0.83440   0.85098   0.85663
 Alpha virt. eigenvalues --    0.86811   0.87971   0.88337   0.88937   0.89540
 Alpha virt. eigenvalues --    0.90096   0.90470   0.91144   0.92373   0.93613
 Alpha virt. eigenvalues --    0.93811   0.94632   0.96302   0.96956   0.97916
 Alpha virt. eigenvalues --    0.98654   0.99623   1.01226   1.02146   1.02505
 Alpha virt. eigenvalues --    1.06136   1.12046   1.16700   1.22713   1.26976
 Alpha virt. eigenvalues --    1.31156   1.34603   1.40162   1.42322   1.46653
 Alpha virt. eigenvalues --    1.48423   1.51635   1.59838   1.63028   1.65351
 Alpha virt. eigenvalues --    1.66217   1.70772   1.71983   1.74497   1.75670
 Alpha virt. eigenvalues --    1.76804   1.78207   1.81584   1.83029   1.86224
 Alpha virt. eigenvalues --    1.87931   1.90164   1.91101   1.92001   1.94385
 Alpha virt. eigenvalues --    1.95758   1.97296   2.00298   2.03069   2.03747
 Alpha virt. eigenvalues --    2.06857   2.08129   2.11398   2.14075   2.15618
 Alpha virt. eigenvalues --    2.16143   2.17486   2.19795   2.22840   2.23800
 Alpha virt. eigenvalues --    2.25297   2.29346   2.31022   2.34312   2.36186
 Alpha virt. eigenvalues --    2.37799   2.40772   2.41536   2.43432   2.45721
 Alpha virt. eigenvalues --    2.50192   2.53448   2.57820   2.64320   2.71258
 Alpha virt. eigenvalues --    2.73345   2.74612   2.76511   2.79882   2.80903
 Alpha virt. eigenvalues --    2.85673   2.87624   3.04046   3.07624   4.12749
 Alpha virt. eigenvalues --    4.15725   4.27494   4.28874   4.30246   4.34822
 Alpha virt. eigenvalues --    4.47260   4.58833   4.67444   4.78087   4.83652
          Condensed to atoms (all electrons):
               1          2          3          4          5          6
     1  O    8.021522   0.573604  -0.074714   0.003530   0.001922  -0.000376
     2  C    0.573604   4.568708   0.333123  -0.040893  -0.048836  -0.006354
     3  C   -0.074714   0.333123   5.133310   0.355069   0.341469  -0.052896
     4  C    0.003530  -0.040893   0.355069   5.138769  -0.045615  -0.003008
     5  C    0.001922  -0.048836   0.341469  -0.045615   4.931924   0.377616
     6  C   -0.000376  -0.006354  -0.052896  -0.003008   0.377616   5.167819
     7  C   -0.000063   0.003185  -0.040983  -0.001839   0.374793  -0.068142
     8  C   -0.002451  -0.033265   0.369511  -0.047332  -0.069349   0.006489
     9  C   -0.000006  -0.016867  -0.058466   0.006286  -0.060161   0.005227
    10  C    0.003464  -0.052268  -0.008469   0.003824   0.358690  -0.050988
    11  C   -0.072500   0.311521  -0.175850   0.010670  -0.049955  -0.003125
    12  H    0.000178   0.004659  -0.027242   0.362825  -0.004356  -0.000147
    13  H    0.006783  -0.005560  -0.027652   0.367132   0.004970  -0.000027
    14  H    0.001270  -0.003426  -0.027145   0.368993  -0.005737   0.002527
    15  H    0.000004   0.000243   0.004827   0.000031  -0.029040   0.367370
    16  H    0.000085   0.006007  -0.005662  -0.000046  -0.027260   0.366427
    17  H    0.000011  -0.000380  -0.004913   0.001696  -0.027680   0.367707
    18  H    0.000000  -0.000053   0.004770  -0.000028  -0.029797  -0.003817
    19  H    0.000000   0.000164  -0.006487  -0.000214  -0.026848   0.005515
    20  H   -0.000000  -0.000010  -0.005533   0.002004  -0.027617  -0.005435
    21  H   -0.000050   0.003975  -0.032620  -0.004213  -0.004158  -0.000051
    22  H    0.001746  -0.004454  -0.034948   0.000614   0.006142  -0.000155
    23  H    0.000002   0.000253   0.000788  -0.000129  -0.002187  -0.000022
    24  H   -0.000021   0.000196   0.001905  -0.000098   0.004882  -0.000151
    25  H   -0.000055   0.004354   0.004599  -0.000184  -0.033130  -0.001746
    26  H   -0.000394  -0.019486   0.003787  -0.000218  -0.002367   0.001095
    27  H    0.000352  -0.019630   0.004203  -0.000104   0.004459   0.000238
               7          8          9         10         11         12
     1  O   -0.000063  -0.002451  -0.000006   0.003464  -0.072500   0.000178
     2  C    0.003185  -0.033265  -0.016867  -0.052268   0.311521   0.004659
     3  C   -0.040983   0.369511  -0.058466  -0.008469  -0.175850  -0.027242
     4  C   -0.001839  -0.047332   0.006286   0.003824   0.010670   0.362825
     5  C    0.374793  -0.069349  -0.060161   0.358690  -0.049955  -0.004356
     6  C   -0.068142   0.006489   0.005227  -0.050988  -0.003125  -0.000147
     7  C    5.160582  -0.011012  -0.004612  -0.049185   0.004752   0.001711
     8  C   -0.011012   5.144988   0.340805  -0.066404  -0.008744  -0.005492
     9  C   -0.004612   0.340805   5.085409   0.375254  -0.032840   0.000003
    10  C   -0.049185  -0.066404   0.375254   5.055406   0.311151   0.000133
    11  C    0.004752  -0.008744  -0.032840   0.311151   5.396130  -0.000195
    12  H    0.001711  -0.005492   0.000003   0.000133  -0.000195   0.584943
    13  H   -0.000061  -0.002722  -0.000074  -0.000206   0.000288  -0.030803
    14  H   -0.000262   0.004790  -0.000215   0.000233   0.000028  -0.031061
    15  H   -0.003828  -0.000171   0.000021  -0.005185  -0.000480  -0.000010
    16  H    0.005500   0.000138   0.000030  -0.005672   0.002446   0.000015
    17  H   -0.005999  -0.000036  -0.000176   0.005110  -0.000031   0.000080
    18  H    0.367553   0.000176  -0.000606  -0.004491   0.000047  -0.000041
    19  H    0.366953   0.003103   0.002256  -0.005782  -0.000006   0.000134
    20  H    0.367552  -0.000287   0.000058   0.005000  -0.000182   0.001675
    21  H    0.002058   0.367440  -0.028248   0.002410  -0.000575   0.004402
    22  H    0.000200   0.363447  -0.028269   0.001243   0.002179  -0.000192
    23  H    0.000794  -0.028691   0.368472  -0.031139   0.004573  -0.000021
    24  H    0.000276  -0.029366   0.367069  -0.032094  -0.008138   0.000001
    25  H   -0.002660   0.006497  -0.036992   0.358191  -0.032085   0.000001
    26  H    0.000077   0.000174   0.004453  -0.027978   0.350427   0.000004
    27  H   -0.000130  -0.000519  -0.007608  -0.027386   0.349669   0.000003
              13         14         15         16         17         18
     1  O    0.006783   0.001270   0.000004   0.000085   0.000011   0.000000
     2  C   -0.005560  -0.003426   0.000243   0.006007  -0.000380  -0.000053
     3  C   -0.027652  -0.027145   0.004827  -0.005662  -0.004913   0.004770
     4  C    0.367132   0.368993   0.000031  -0.000046   0.001696  -0.000028
     5  C    0.004970  -0.005737  -0.029040  -0.027260  -0.027680  -0.029797
     6  C   -0.000027   0.002527   0.367370   0.366427   0.367707  -0.003817
     7  C   -0.000061  -0.000262  -0.003828   0.005500  -0.005999   0.367553
     8  C   -0.002722   0.004790  -0.000171   0.000138  -0.000036   0.000176
     9  C   -0.000074  -0.000215   0.000021   0.000030  -0.000176  -0.000606
    10  C   -0.000206   0.000233  -0.005185  -0.005672   0.005110  -0.004491
    11  C    0.000288   0.000028  -0.000480   0.002446  -0.000031   0.000047
    12  H   -0.030803  -0.031061  -0.000010   0.000015   0.000080  -0.000041
    13  H    0.550807  -0.028238   0.000002  -0.000028  -0.000066   0.000002
    14  H   -0.028238   0.564207  -0.000078   0.000460   0.002149  -0.000012
    15  H    0.000002  -0.000078   0.576078  -0.029661  -0.031519   0.004042
    16  H   -0.000028   0.000460  -0.029661   0.562069  -0.029812  -0.000048
    17  H   -0.000066   0.002149  -0.031519  -0.029812   0.569544  -0.000327
    18  H    0.000002  -0.000012   0.004042  -0.000048  -0.000327   0.577196
    19  H   -0.000013   0.000015  -0.000066  -0.000184   0.000022  -0.030367
    20  H   -0.000061   0.000141  -0.000298   0.000005   0.005067  -0.031645
    21  H   -0.000535   0.000008  -0.000001  -0.000002  -0.000001  -0.000119
    22  H    0.002453  -0.000152   0.000003  -0.000004  -0.000001   0.000002
    23  H    0.000002   0.000004  -0.000006  -0.000001  -0.000000   0.000347
    24  H   -0.000004   0.000003  -0.000001   0.000000   0.000003  -0.000015
    25  H    0.000004   0.000000   0.002845  -0.000179  -0.000079   0.003044
    26  H   -0.000005  -0.000007   0.000226   0.001584  -0.000021  -0.000019
    27  H   -0.000010  -0.000001  -0.000019   0.000063  -0.000002  -0.000001
              19         20         21         22         23         24
     1  O    0.000000  -0.000000  -0.000050   0.001746   0.000002  -0.000021
     2  C    0.000164  -0.000010   0.003975  -0.004454   0.000253   0.000196
     3  C   -0.006487  -0.005533  -0.032620  -0.034948   0.000788   0.001905
     4  C   -0.000214   0.002004  -0.004213   0.000614  -0.000129  -0.000098
     5  C   -0.026848  -0.027617  -0.004158   0.006142  -0.002187   0.004882
     6  C    0.005515  -0.005435  -0.000051  -0.000155  -0.000022  -0.000151
     7  C    0.366953   0.367552   0.002058   0.000200   0.000794   0.000276
     8  C    0.003103  -0.000287   0.367440   0.363447  -0.028691  -0.029366
     9  C    0.002256   0.000058  -0.028248  -0.028269   0.368472   0.367069
    10  C   -0.005782   0.005000   0.002410   0.001243  -0.031139  -0.032094
    11  C   -0.000006  -0.000182  -0.000575   0.002179   0.004573  -0.008138
    12  H    0.000134   0.001675   0.004402  -0.000192  -0.000021   0.000001
    13  H   -0.000013  -0.000061  -0.000535   0.002453   0.000002  -0.000004
    14  H    0.000015   0.000141   0.000008  -0.000152   0.000004   0.000003
    15  H   -0.000066  -0.000298  -0.000001   0.000003  -0.000006  -0.000001
    16  H   -0.000184   0.000005  -0.000002  -0.000004  -0.000001   0.000000
    17  H    0.000022   0.005067  -0.000001  -0.000001  -0.000000   0.000003
    18  H   -0.030367  -0.031645  -0.000119   0.000002   0.000347  -0.000015
    19  H    0.570957  -0.030025   0.002197  -0.000057   0.001885  -0.000029
    20  H   -0.030025   0.572181   0.000165  -0.000009  -0.000046  -0.000001
    21  H    0.002197   0.000165   0.581243  -0.034927  -0.011086   0.003504
    22  H   -0.000057  -0.000009  -0.034927   0.575638   0.003557  -0.006927
    23  H    0.001885  -0.000046  -0.011086   0.003557   0.588526  -0.036135
    24  H   -0.000029  -0.000001   0.003504  -0.006927  -0.036135   0.589601
    25  H   -0.000146  -0.000090  -0.000186  -0.000090  -0.002909   0.000852
    26  H   -0.000001   0.000000   0.000010  -0.000015  -0.000175   0.000128
    27  H   -0.000001   0.000003   0.000051  -0.000201   0.000070   0.005762
              25         26         27
     1  O   -0.000055  -0.000394   0.000352
     2  C    0.004354  -0.019486  -0.019630
     3  C    0.004599   0.003787   0.004203
     4  C   -0.000184  -0.000218  -0.000104
     5  C   -0.033130  -0.002367   0.004459
     6  C   -0.001746   0.001095   0.000238
     7  C   -0.002660   0.000077  -0.000130
     8  C    0.006497   0.000174  -0.000519
     9  C   -0.036992   0.004453  -0.007608
    10  C    0.358191  -0.027978  -0.027386
    11  C   -0.032085   0.350427   0.349669
    12  H    0.000001   0.000004   0.000003
    13  H    0.000004  -0.000005  -0.000010
    14  H    0.000000  -0.000007  -0.000001
    15  H    0.002845   0.000226  -0.000019
    16  H   -0.000179   0.001584   0.000063
    17  H   -0.000079  -0.000021  -0.000002
    18  H    0.003044  -0.000019  -0.000001
    19  H   -0.000146  -0.000001  -0.000001
    20  H   -0.000090   0.000000   0.000003
    21  H   -0.000186   0.000010   0.000051
    22  H   -0.000090  -0.000015  -0.000201
    23  H   -0.002909  -0.000175   0.000070
    24  H    0.000852   0.000128   0.005762
    25  H    0.614661  -0.003327   0.000589
    26  H   -0.003327   0.544683  -0.024394
    27  H    0.000589  -0.024394   0.550501
 Mulliken charges:
               1
     1  O   -0.463843
     2  C    0.441491
     3  C    0.026220
     4  C   -0.477522
     5  C    0.087229
     6  C   -0.471590
     7  C   -0.467209
     8  C   -0.301717
     9  C   -0.280201
    10  C   -0.112863
    11  C   -0.359174
    12  H    0.138793
    13  H    0.163620
    14  H    0.151504
    15  H    0.144670
    16  H    0.153732
    17  H    0.149654
    18  H    0.144206
    19  H    0.147027
    20  H    0.147387
    21  H    0.149311
    22  H    0.153178
    23  H    0.143275
    24  H    0.138800
    25  H    0.118221
    26  H    0.171758
    27  H    0.164044
 Sum of Mulliken charges =  -0.00000
 Mulliken charges with hydrogens summed into heavy atoms:
               1
     1  O   -0.463843
     2  C    0.441491
     3  C    0.026220
     4  C   -0.023605
     5  C    0.087229
     6  C   -0.023534
     7  C   -0.028588
     8  C    0.000772
     9  C    0.001874
    10  C    0.005358
    11  C   -0.023373
 APT charges:
               1
     1  O   -0.655340
     2  C    0.729860
     3  C   -0.087422
     4  C    0.057416
     5  C    0.095961
     6  C    0.041405
     7  C    0.046542
     8  C    0.063276
     9  C    0.074287
    10  C    0.078988
    11  C   -0.073619
    12  H   -0.022701
    13  H   -0.000779
    14  H   -0.015658
    15  H   -0.025838
    16  H   -0.012046
    17  H   -0.021058
    18  H   -0.026824
    19  H   -0.011855
    20  H   -0.022017
    21  H   -0.029822
    22  H   -0.029042
    23  H   -0.039086
    24  H   -0.043397
    25  H   -0.055231
    26  H   -0.004219
    27  H   -0.011780
 Sum of APT charges =   0.00000
 APT charges with hydrogens summed into heavy atoms:
               1
     1  O   -0.655340
     2  C    0.729860
     3  C   -0.087422
     4  C    0.018277
     5  C    0.095961
     6  C   -0.017538
     7  C   -0.014154
     8  C    0.004412
     9  C   -0.008196
    10  C    0.023757
    11  C   -0.089618
 Electronic spatial extent (au):  <R**2>=           1488.8213
 Charge=             -0.0000 electrons
 Dipole moment (field-independent basis, Debye):
    X=             -2.8247    Y=              0.8596    Z=             -0.1561  Tot=              2.9567
 Quadrupole moment (field-independent basis, Debye-Ang):
   XX=            -76.8880   YY=            -66.5903   ZZ=            -66.0179
   XY=              2.2581   XZ=             -1.0693   YZ=              0.3457
 Traceless Quadrupole moment (field-independent basis, Debye-Ang):
   XX=             -7.0560   YY=              3.2418   ZZ=              3.8142
   XY=              2.2581   XZ=             -1.0693   YZ=              0.3457
 Octapole moment (field-independent basis, Debye-Ang**2):
  XXX=            -20.0614  YYY=             -0.4087  ZZZ=              2.4974  XYY=              4.5350
  XXY=              5.9435  XXZ=             -3.5220  XZZ=              3.7393  YZZ=              0.4598
  YYZ=              0.9226  XYZ=              0.1441
 Hexadecapole moment (field-independent basis, Debye-Ang**3):
 XXXX=           -865.8500 YYYY=           -642.1335 ZZZZ=           -547.7891 XXXY=              5.7212
 XXXZ=            -13.5938 YYYX=              4.8589 YYYZ=             -1.8653 ZZZX=              6.0351
 ZZZY=              4.4590 XXYY=           -234.7814 XXZZ=           -215.0806 YYZZ=           -202.5535
 XXYZ=              1.5768 YYXZ=              1.8647 ZZXY=             -2.0978
 N-N= 6.843272600098D+02 E-N=-2.449101382469D+03  KE= 4.614651577747D+02
  Exact polarizability: 102.425  -0.513  98.108  -0.054   1.157  94.748
 Approx polarizability: 153.727  -4.267 138.313   1.441   1.479 136.591
 Calling FoFJK, ICntrl=    100127 FMM=F ISym2X=0 I1Cent= 0 IOpClX= 0 NMat=1 NMatS=1 NMatT=0.
 Full mass-weighted force constant matrix:
 Low frequencies ---  -10.2989   -0.0007    0.0004    0.0007    2.5015    5.3560
 Low frequencies ---  106.2862  169.1322  179.3394
 Diagonal vibrational polarizability:
        3.9687029       6.2556284       7.4555961
 Harmonic frequencies (cm**-1), IR intensities (KM/Mole), Raman scattering
 activities (A**4/AMU), depolarization ratios for plane and unpolarized
 incident light, reduced masses (AMU), force constants (mDyne/A),
 and normal coordinates:
                      1                      2                      3
                      A                      A                      A
 Frequencies --    106.2836               169.1312               179.3392
 Red. masses --      4.7275                 1.1664                 1.0773
 Frc consts  --      0.0315                 0.0197                 0.0204
 IR Inten    --      3.6084                 0.0691                 0.1440
  Atom  AN      X      Y      Z        X      Y      Z        X      Y      Z
     1   8    -0.09  -0.25   0.29     0.02   0.01  -0.04    -0.00   0.00   0.02
     2   6    -0.01  -0.03   0.02     0.02  -0.01  -0.00    -0.00   0.01   0.00
     3   6     0.01   0.05  -0.06     0.01  -0.01   0.02     0.00   0.00  -0.00
     4   6    -0.00   0.08  -0.13    -0.02  -0.00  -0.01     0.02  -0.00   0.02
     5   6     0.04   0.01  -0.00    -0.00  -0.01   0.01    -0.00   0.00  -0.00
     6   6     0.16   0.04   0.01    -0.05   0.00   0.02    -0.00  -0.03  -0.03
     7   6     0.03  -0.07   0.06     0.01   0.01  -0.03    -0.01   0.04  -0.00
     8   6    -0.03   0.08  -0.03     0.03   0.02   0.03    -0.02  -0.02  -0.01
     9   6    -0.13   0.02  -0.03    -0.04  -0.02   0.02     0.02  -0.00  -0.01
    10   6    -0.01   0.03  -0.03     0.01  -0.01   0.02     0.00   0.00  -0.00
    11   6     0.03   0.09  -0.12     0.02   0.00  -0.02    -0.01   0.00   0.01
    12   1    -0.07   0.07  -0.04    -0.08  -0.01   0.07    -0.24  -0.23   0.46
    13   1    -0.08   0.12  -0.26    -0.08   0.02  -0.11    -0.27   0.11  -0.44
    14   1     0.13   0.06  -0.17     0.08  -0.00  -0.03     0.57   0.11   0.05
    15   1     0.11  -0.05  -0.00    -0.29  -0.20  -0.14     0.00  -0.05  -0.01
    16   1     0.15   0.18   0.01    -0.17   0.26   0.22    -0.00  -0.05  -0.03
    17   1     0.30   0.01   0.02     0.26  -0.05  -0.03    -0.01  -0.02  -0.06
    18   1     0.04  -0.01   0.04    -0.01   0.39  -0.22     0.01  -0.00   0.03
    19   1     0.01  -0.19   0.01     0.20  -0.31  -0.23    -0.03   0.09   0.03
    20   1     0.04  -0.10   0.19    -0.15  -0.03   0.34    -0.02   0.05  -0.06
    21   1     0.02   0.06  -0.07     0.10   0.02  -0.03    -0.06  -0.03   0.02
    22   1    -0.03   0.16   0.00     0.06   0.05   0.10    -0.04  -0.04  -0.05
    23   1    -0.17  -0.11   0.01    -0.06  -0.10   0.03     0.03   0.04  -0.01
    24   1    -0.24   0.08  -0.07    -0.11   0.02   0.00     0.06  -0.02  -0.00
    25   1     0.02  -0.00   0.01     0.02  -0.01   0.04    -0.00   0.01  -0.01
    26   1     0.12   0.25  -0.10     0.05   0.04  -0.01    -0.02  -0.02   0.01
    27   1     0.01   0.06  -0.30     0.01   0.00  -0.06    -0.00   0.01   0.04
                      4                      5                      6
                      A                      A                      A
 Frequencies --    210.0760               225.2655               237.6435
 Red. masses --      2.0676                 1.1743                 2.6300
 Frc consts  --      0.0538                 0.0351                 0.0875
 IR Inten    --      0.1887                 0.2859                 0.9057
  Atom  AN      X      Y      Z        X      Y      Z        X      Y      Z
     1   8    -0.02   0.01   0.05    -0.00  -0.03  -0.01    -0.02  -0.09  -0.05
     2   6    -0.02   0.03   0.00     0.01   0.01  -0.01     0.00  -0.02  -0.03
     3   6    -0.01  -0.00  -0.02    -0.00   0.01   0.01     0.00  -0.01  -0.00
     4   6     0.10  -0.01   0.05    -0.01  -0.00   0.05     0.26   0.06  -0.06
     5   6    -0.00  -0.00  -0.01     0.00   0.02   0.01    -0.01  -0.01   0.02
     6   6     0.06  -0.13  -0.10    -0.02  -0.03  -0.02    -0.15   0.10   0.09
     7   6    -0.09   0.16   0.09     0.03  -0.02  -0.03    -0.02   0.02  -0.01
     8   6    -0.05  -0.05  -0.04    -0.05  -0.01  -0.00    -0.11  -0.03  -0.00
     9   6     0.01  -0.02  -0.03     0.01   0.02   0.01    -0.03  -0.00   0.03
    10   6     0.01  -0.00  -0.01     0.02   0.02   0.02     0.02  -0.01   0.02
    11   6    -0.01   0.02   0.00     0.03   0.03  -0.02     0.04  -0.03  -0.01
    12   1     0.25  -0.03  -0.12     0.03  -0.00   0.01     0.38  -0.07  -0.15
    13   1     0.23  -0.01   0.26     0.03  -0.04   0.12     0.31   0.29   0.02
    14   1    -0.06   0.00   0.08    -0.07   0.01   0.08     0.36   0.04  -0.10
    15   1     0.01  -0.32  -0.06    -0.32  -0.33  -0.18    -0.16   0.25   0.00
    16   1     0.05  -0.07  -0.08    -0.16   0.28   0.22    -0.17   0.07   0.15
    17   1     0.20  -0.13  -0.24     0.38  -0.09  -0.14    -0.24   0.09   0.20
    18   1     0.03   0.44   0.10    -0.01  -0.34   0.08    -0.02   0.03  -0.01
    19   1    -0.04   0.05   0.03    -0.09   0.22   0.12    -0.01   0.03   0.00
    20   1    -0.33   0.16   0.27     0.20   0.01  -0.32    -0.03   0.03  -0.02
    21   1    -0.11  -0.06   0.02    -0.10  -0.02   0.05    -0.19  -0.05   0.08
    22   1    -0.08  -0.07  -0.12    -0.08  -0.03  -0.07    -0.16  -0.04  -0.11
    23   1     0.02   0.03  -0.02     0.01   0.06   0.03    -0.04   0.04   0.08
    24   1     0.06  -0.05  -0.03     0.04  -0.01   0.00     0.01  -0.03   0.00
    25   1    -0.01   0.00  -0.03     0.04   0.04   0.02     0.05  -0.02   0.05
    26   1    -0.02   0.01   0.00     0.08   0.06  -0.02     0.07  -0.03  -0.01
    27   1    -0.01   0.02   0.01     0.02   0.02  -0.07     0.04  -0.02  -0.02
                      7                      8                      9
                      A                      A                      A
 Frequencies --    261.1210               290.2642               298.9538
 Red. masses --      2.1964                 1.9479                 2.8122
 Frc consts  --      0.0882                 0.0967                 0.1481
 IR Inten    --      0.7100                 0.4055                 1.8779
  Atom  AN      X      Y      Z        X      Y      Z        X      Y      Z
     1   8    -0.01  -0.07  -0.03     0.06   0.04   0.02    -0.10  -0.10  -0.15
     2   6     0.02   0.01  -0.04     0.03  -0.02   0.02    -0.08  -0.04  -0.00
     3   6     0.01   0.03  -0.00     0.02  -0.04   0.04    -0.05   0.01   0.00
     4   6     0.02  -0.03   0.18     0.00  -0.01  -0.07     0.11   0.01   0.09
     5   6     0.02   0.01  -0.01    -0.01  -0.02   0.02    -0.05   0.02  -0.01
     6   6    -0.02  -0.06  -0.06    -0.08  -0.05   0.01     0.07   0.03  -0.01
     7   6     0.06   0.03  -0.12    -0.05   0.11   0.05    -0.08  -0.05   0.08
     8   6    -0.04   0.06   0.02     0.10  -0.01   0.05     0.19   0.09   0.02
     9   6    -0.13   0.01   0.06    -0.10  -0.08  -0.02     0.02   0.03  -0.02
    10   6     0.01  -0.00   0.05     0.00  -0.02  -0.00    -0.04   0.02  -0.02
    11   6     0.06   0.04  -0.06     0.03   0.04  -0.08    -0.04  -0.02   0.02
    12   1     0.04  -0.14   0.21    -0.02   0.06  -0.08     0.16  -0.17   0.13
    13   1     0.05  -0.14   0.24    -0.02   0.05  -0.11     0.11   0.11   0.10
    14   1    -0.03   0.11   0.32     0.03  -0.09  -0.15     0.24   0.11   0.16
    15   1     0.18   0.11   0.07    -0.07  -0.01   0.00     0.03  -0.08   0.00
    16   1     0.08  -0.32  -0.21    -0.08  -0.11   0.02     0.07   0.16  -0.02
    17   1    -0.31   0.00  -0.06    -0.15  -0.03  -0.02     0.22   0.00  -0.01
    18   1    -0.00   0.08  -0.20     0.02  -0.11   0.23    -0.06  -0.16   0.15
    19   1     0.15  -0.01  -0.15    -0.17   0.39   0.22    -0.17  -0.01   0.11
    20   1     0.05   0.03  -0.09    -0.05   0.16  -0.25    -0.00  -0.05   0.02
    21   1     0.02   0.06  -0.03     0.27  -0.03  -0.08     0.38   0.19  -0.19
    22   1    -0.04   0.16   0.06     0.17   0.08   0.22     0.32   0.13   0.30
    23   1    -0.18  -0.12   0.13    -0.14  -0.28  -0.02     0.03  -0.08  -0.10
    24   1    -0.25   0.07   0.01    -0.27   0.03  -0.08    -0.07   0.09   0.03
    25   1     0.05  -0.04   0.11     0.03  -0.02   0.02    -0.04   0.04  -0.04
    26   1     0.14   0.07  -0.06     0.09   0.16  -0.07    -0.07  -0.01   0.02
    27   1     0.02   0.04  -0.13     0.00   0.03  -0.22    -0.01  -0.04   0.02
                     10                     11                     12
                      A                      A                      A
 Frequencies --    383.1293               394.4910               415.8731
 Red. masses --      2.4837                 2.4438                 2.1790
 Frc consts  --      0.2148                 0.2241                 0.2220
 IR Inten    --      0.7697                 0.1501                 1.2230
  Atom  AN      X      Y      Z        X      Y      Z        X      Y      Z
     1   8    -0.07  -0.04  -0.07    -0.04   0.00  -0.03     0.01  -0.06  -0.04
     2   6    -0.05   0.02   0.05    -0.05  -0.03   0.03     0.03   0.01   0.04
     3   6    -0.06  -0.01   0.13    -0.02  -0.05   0.03     0.02   0.06   0.03
     4   6     0.00   0.09  -0.05     0.01  -0.03  -0.03    -0.02   0.08   0.01
     5   6    -0.04   0.03   0.10     0.00  -0.02   0.01     0.03   0.08   0.03
     6   6     0.01  -0.13   0.01     0.18   0.09   0.06    -0.01  -0.01  -0.02
     7   6     0.05  -0.03  -0.06     0.06   0.16  -0.15     0.06   0.01   0.03
     8   6     0.01  -0.10   0.08    -0.02  -0.05   0.03    -0.02  -0.05  -0.05
     9   6     0.08  -0.01  -0.04    -0.05  -0.06   0.02    -0.11  -0.07  -0.12
    10   6     0.00   0.08   0.01    -0.04  -0.04   0.02     0.04   0.08  -0.04
    11   6     0.03   0.13  -0.04    -0.06  -0.03   0.05    -0.00  -0.06   0.15
    12   1     0.03   0.18  -0.12     0.02  -0.02  -0.05    -0.03   0.15  -0.01
    13   1    -0.00   0.28  -0.05     0.01   0.04  -0.03    -0.02   0.08  -0.00
    14   1     0.06  -0.07  -0.20     0.04  -0.08  -0.08    -0.04   0.04  -0.03
    15   1     0.14  -0.18   0.18     0.18   0.02   0.10    -0.05  -0.08  -0.03
    16   1     0.09  -0.30  -0.12     0.21   0.32  -0.03    -0.04  -0.09   0.04
    17   1    -0.12  -0.08  -0.15     0.37   0.03   0.19    -0.01   0.02  -0.15
    18   1    -0.09  -0.01  -0.23    -0.01   0.13  -0.21     0.04  -0.04   0.03
    19   1     0.20  -0.12  -0.13     0.24   0.35  -0.07     0.02  -0.02   0.02
    20   1     0.12  -0.05   0.00    -0.03   0.21  -0.38     0.14   0.00   0.04
    21   1     0.00  -0.13   0.10     0.01  -0.06   0.01     0.04  -0.16  -0.04
    22   1     0.04  -0.21   0.06    -0.02  -0.03   0.06    -0.03  -0.00  -0.03
    23   1     0.11   0.05  -0.10    -0.05  -0.07   0.02    -0.20  -0.30   0.00
    24   1     0.16  -0.07  -0.07    -0.07  -0.05   0.01    -0.29   0.03  -0.30
    25   1     0.02   0.17  -0.04    -0.08  -0.08   0.02     0.04   0.13  -0.08
    26   1     0.09   0.27  -0.02    -0.06   0.00   0.05    -0.28  -0.29   0.13
    27   1     0.02   0.09  -0.21    -0.06  -0.04   0.03     0.11  -0.05   0.47
                     13                     14                     15
                      A                      A                      A
 Frequencies --    474.0954               522.2730               556.0119
 Red. masses --      3.3003                 2.9884                 4.1957
 Frc consts  --      0.4371                 0.4803                 0.7642
 IR Inten    --      0.5363                 4.5566                 2.0120
  Atom  AN      X      Y      Z        X      Y      Z        X      Y      Z
     1   8    -0.12  -0.04  -0.01    -0.05   0.14   0.10     0.19  -0.05   0.00
     2   6    -0.06   0.10  -0.12    -0.11  -0.06  -0.07     0.13  -0.12   0.01
     3   6     0.03   0.02  -0.07    -0.12  -0.08  -0.05     0.03   0.01   0.08
     4   6    -0.02  -0.01  -0.01     0.04  -0.11  -0.04     0.01   0.05   0.05
     5   6     0.13  -0.08   0.08    -0.03   0.08   0.09    -0.06  -0.03   0.08
     6   6    -0.06  -0.11   0.16     0.01  -0.04   0.05     0.03  -0.10   0.15
     7   6     0.20   0.08   0.07     0.05   0.00   0.00    -0.03   0.02  -0.02
     8   6     0.05   0.04  -0.08    -0.02   0.04  -0.02    -0.05   0.10   0.06
     9   6     0.04  -0.01  -0.03    -0.02   0.05  -0.02    -0.06   0.19  -0.12
    10   6    -0.05  -0.05  -0.02     0.09   0.13   0.01    -0.13   0.03  -0.15
    11   6    -0.09   0.06  -0.02     0.06  -0.12  -0.06    -0.10  -0.11  -0.13
    12   1    -0.05   0.00   0.02     0.16  -0.30  -0.09     0.03   0.02   0.04
    13   1    -0.02  -0.14   0.00     0.09   0.05   0.03     0.02   0.07   0.07
    14   1    -0.09   0.04   0.05     0.15  -0.07  -0.01     0.02   0.06   0.05
    15   1    -0.18  -0.01  -0.02     0.02  -0.17   0.12     0.06  -0.22   0.23
    16   1    -0.16  -0.20   0.36     0.02  -0.12   0.04     0.06  -0.10   0.08
    17   1    -0.16  -0.09   0.13     0.02  -0.01  -0.11     0.08  -0.09   0.05
    18   1     0.21   0.13   0.06    -0.10  -0.08  -0.14    -0.07   0.09  -0.10
    19   1     0.31   0.19   0.12     0.16  -0.05  -0.05     0.14   0.10  -0.01
    20   1     0.05   0.11  -0.04     0.22  -0.02  -0.01    -0.14   0.05  -0.11
    21   1     0.11   0.11  -0.17     0.09   0.17  -0.18    -0.05  -0.01   0.12
    22   1     0.10   0.06   0.03     0.08   0.04   0.16    -0.08   0.07  -0.01
    23   1     0.09   0.11  -0.11    -0.08  -0.05   0.08     0.04   0.39  -0.28
    24   1     0.11  -0.04   0.11    -0.09   0.09  -0.14     0.13   0.08   0.07
    25   1    -0.14  -0.10  -0.07     0.20   0.23   0.04    -0.02   0.07  -0.07
    26   1    -0.10  -0.15  -0.05     0.01  -0.31  -0.09    -0.34  -0.15  -0.12
    27   1    -0.16   0.13   0.15     0.28  -0.22   0.09    -0.03  -0.10   0.06
                     16                     17                     18
                      A                      A                      A
 Frequencies --    571.6968               617.1225               646.9173
 Red. masses --      3.6515                 2.7316                 3.7828
 Frc consts  --      0.7032                 0.6129                 0.9327
 IR Inten    --      0.8803                 0.9384                 1.7688
  Atom  AN      X      Y      Z        X      Y      Z        X      Y      Z
     1   8    -0.02  -0.00  -0.07    -0.01   0.08  -0.03    -0.03   0.05   0.05
     2   6    -0.06  -0.12   0.13    -0.09  -0.15   0.19    -0.05  -0.04  -0.12
     3   6     0.05  -0.10   0.05    -0.04   0.07  -0.05    -0.03   0.04   0.07
     4   6     0.04  -0.17  -0.05    -0.03   0.12   0.05    -0.04   0.21   0.09
     5   6     0.12   0.06  -0.06     0.04  -0.06  -0.02     0.04   0.05  -0.02
     6   6    -0.02   0.06  -0.14    -0.01  -0.05   0.05    -0.00   0.09  -0.13
     7   6     0.18   0.02   0.09     0.05   0.01   0.01     0.12   0.03   0.06
     8   6    -0.05   0.02   0.12    -0.03   0.05  -0.13     0.03  -0.08   0.12
     9   6    -0.06   0.13   0.02     0.01  -0.01  -0.06     0.01  -0.07   0.04
    10   6    -0.06   0.08  -0.04     0.06  -0.07  -0.03    -0.06  -0.09   0.00
    11   6    -0.10   0.04   0.01     0.04  -0.08   0.04    -0.04  -0.19  -0.19
    12   1     0.02  -0.13  -0.05    -0.01   0.03   0.07     0.01   0.20   0.04
    13   1     0.02  -0.14  -0.08    -0.01   0.09   0.08    -0.02   0.34   0.12
    14   1     0.06  -0.22  -0.10    -0.02   0.21   0.13     0.02   0.18   0.05
    15   1    -0.07   0.07  -0.21    -0.03   0.06  -0.04    -0.03   0.09  -0.17
    16   1    -0.07  -0.10  -0.03    -0.04  -0.03   0.12    -0.03   0.04  -0.08
    17   1    -0.12   0.10  -0.26    -0.05  -0.05   0.13    -0.03   0.11  -0.18
    18   1     0.28   0.05   0.19     0.07   0.04   0.02     0.18   0.04   0.12
    19   1     0.03  -0.04   0.09     0.08   0.05   0.03     0.03  -0.00   0.06
    20   1     0.18   0.01   0.19    -0.02   0.02  -0.03     0.13   0.02   0.12
    21   1    -0.13  -0.03   0.22    -0.04   0.02  -0.10     0.04  -0.15   0.14
    22   1    -0.12   0.03  -0.02    -0.02   0.03  -0.13     0.03  -0.13   0.11
    23   1    -0.03   0.15  -0.05    -0.02   0.00   0.02     0.07   0.01  -0.08
    24   1    -0.00   0.09   0.02    -0.02   0.01  -0.04     0.10  -0.12   0.13
    25   1    -0.13  -0.08   0.01     0.04  -0.06  -0.05     0.01  -0.12   0.09
    26   1    -0.21   0.27   0.06     0.12   0.49   0.13     0.07  -0.36  -0.23
    27   1     0.02  -0.07  -0.16     0.17  -0.28  -0.53    -0.04  -0.17  -0.08
                     19                     20                     21
                      A                      A                      A
 Frequencies --    712.0226               757.1329               839.7662
 Red. masses --      3.0203                 2.1482                 1.5476
 Frc consts  --      0.9022                 0.7255                 0.6430
 IR Inten    --      0.4371                 6.5419                 0.4696
  Atom  AN      X      Y      Z        X      Y      Z        X      Y      Z
     1   8     0.12  -0.04  -0.00    -0.07   0.02  -0.02    -0.04   0.01  -0.00
     2   6     0.08  -0.06  -0.01    -0.07  -0.03  -0.01    -0.03   0.03   0.01
     3   6    -0.03   0.03  -0.10     0.21   0.05  -0.03     0.09   0.02   0.02
     4   6     0.00  -0.03  -0.03     0.05  -0.01  -0.02     0.04  -0.02  -0.00
     5   6    -0.08   0.18   0.12    -0.03   0.07   0.04    -0.01   0.01   0.02
     6   6    -0.03   0.05  -0.02    -0.00  -0.02   0.06    -0.00   0.02  -0.01
     7   6     0.06   0.04   0.06    -0.05   0.01  -0.02    -0.02  -0.01   0.00
     8   6     0.01  -0.01  -0.14     0.09   0.01   0.01    -0.03  -0.04  -0.03
     9   6     0.02  -0.12   0.04     0.03  -0.02   0.04    -0.09   0.02  -0.07
    10   6    -0.13  -0.03   0.10    -0.03   0.05   0.04    -0.05   0.00   0.05
    11   6    -0.10  -0.01   0.04    -0.04  -0.08  -0.05     0.08  -0.05   0.03
    12   1     0.09  -0.18  -0.06    -0.13   0.19   0.11    -0.10   0.19   0.06
    13   1     0.04   0.04   0.03    -0.02  -0.34  -0.12    -0.02  -0.19  -0.10
    14   1     0.06   0.04   0.03    -0.12   0.01   0.03    -0.08  -0.09  -0.05
    15   1     0.02  -0.15   0.12     0.02  -0.11   0.13     0.01  -0.01   0.01
    16   1     0.02  -0.06  -0.10     0.02  -0.06   0.03     0.01   0.01  -0.03
    17   1    -0.02   0.10  -0.28     0.01  -0.00  -0.03     0.00   0.02  -0.04
    18   1    -0.16  -0.10  -0.13    -0.09  -0.03  -0.05    -0.02  -0.00  -0.00
    19   1     0.15  -0.08  -0.02    -0.08  -0.03  -0.04    -0.00   0.00   0.00
    20   1     0.35  -0.00   0.09     0.01  -0.00   0.00    -0.03  -0.01   0.01
    21   1     0.06   0.08  -0.23    -0.24  -0.16   0.37     0.30  -0.19  -0.23
    22   1     0.04   0.07  -0.04    -0.14  -0.01  -0.44     0.03   0.23   0.24
    23   1     0.08   0.04  -0.03    -0.01  -0.26  -0.02     0.04   0.49  -0.15
    24   1     0.11  -0.16   0.17    -0.18   0.10   0.01     0.34  -0.25   0.01
    25   1    -0.15   0.09  -0.00     0.03   0.15   0.02    -0.01  -0.04   0.13
    26   1     0.10   0.29   0.07     0.05  -0.00  -0.05     0.22  -0.04   0.01
    27   1    -0.27   0.02  -0.27     0.03  -0.15  -0.17     0.15  -0.10  -0.05
                     22                     23                     24
                      A                      A                      A
 Frequencies --    862.2337               875.0049               927.4630
 Red. masses --      2.6818                 2.1094                 2.5858
 Frc consts  --      1.1747                 0.9515                 1.3105
 IR Inten    --      1.4213                 0.5486                 1.2347
  Atom  AN      X      Y      Z        X      Y      Z        X      Y      Z
     1   8     0.05  -0.00   0.02    -0.01  -0.00   0.01    -0.03   0.00   0.01
     2   6     0.02  -0.05  -0.08     0.01   0.05  -0.03     0.01   0.07  -0.01
     3   6    -0.04   0.04  -0.13    -0.04  -0.03   0.11    -0.02   0.04  -0.08
     4   6    -0.02   0.04  -0.04    -0.01  -0.04   0.03     0.01  -0.01  -0.08
     5   6     0.04  -0.05  -0.06    -0.02  -0.00   0.01    -0.05   0.02   0.05
     6   6     0.02  -0.05   0.01    -0.01   0.01  -0.01    -0.03   0.04  -0.00
     7   6     0.01  -0.02  -0.02     0.03   0.01   0.02     0.01   0.03   0.05
     8   6     0.03  -0.11   0.10     0.08   0.02  -0.11    -0.04   0.03   0.21
     9   6    -0.00   0.05  -0.05    -0.02   0.15  -0.10     0.02   0.02  -0.12
    10   6    -0.12   0.18   0.15    -0.07  -0.08   0.08     0.02  -0.16  -0.10
    11   6    -0.01  -0.01   0.07     0.06  -0.04   0.05     0.07  -0.03   0.08
    12   1     0.06  -0.25  -0.00     0.03   0.06  -0.08    -0.01  -0.24   0.06
    13   1     0.06  -0.05   0.09    -0.03   0.22  -0.00     0.06  -0.34   0.01
    14   1    -0.01   0.30   0.19     0.09  -0.25  -0.17    -0.10   0.31   0.22
    15   1    -0.03   0.17  -0.15     0.02  -0.02   0.04     0.02  -0.16   0.15
    16   1    -0.04   0.04   0.12     0.02   0.04  -0.09     0.03  -0.01  -0.12
    17   1    -0.05  -0.08   0.25     0.02   0.01  -0.02     0.04   0.06  -0.18
    18   1     0.15   0.09   0.09     0.03   0.01   0.01    -0.17  -0.07  -0.12
    19   1    -0.05   0.05   0.03     0.05   0.01   0.02     0.16  -0.03  -0.00
    20   1    -0.19   0.00  -0.03     0.03   0.01   0.01     0.20   0.01   0.00
    21   1     0.03  -0.08   0.08    -0.14  -0.05   0.10    -0.06   0.04   0.22
    22   1     0.07  -0.23   0.09     0.04  -0.26  -0.34    -0.04  -0.09   0.14
    23   1     0.03  -0.10  -0.23    -0.05  -0.13  -0.18     0.02  -0.12  -0.20
    24   1    -0.03   0.05  -0.29    -0.26   0.31  -0.02    -0.05   0.06  -0.13
    25   1    -0.21   0.09   0.14    -0.13  -0.26   0.16    -0.06  -0.23  -0.13
    26   1     0.28   0.08   0.06     0.40  -0.07   0.02     0.20   0.11   0.10
    27   1     0.07  -0.10  -0.14    -0.09   0.02  -0.06    -0.07   0.01  -0.11
                     25                     26                     27
                      A                      A                      A
 Frequencies --    948.9747               951.0261               964.3338
 Red. masses --      1.8088                 2.0361                 1.6728
 Frc consts  --      0.9597                 1.0850                 0.9166
 IR Inten    --      3.0840                 0.4637                 1.2918
  Atom  AN      X      Y      Z        X      Y      Z        X      Y      Z
     1   8     0.01  -0.01   0.01    -0.00  -0.01   0.00     0.00  -0.01  -0.01
     2   6     0.02   0.05  -0.07     0.02   0.04  -0.03     0.01   0.01   0.03
     3   6     0.03  -0.01   0.06     0.02  -0.00  -0.02     0.01   0.01  -0.03
     4   6     0.03  -0.01   0.03     0.01   0.02   0.01     0.02   0.02  -0.02
     5   6    -0.05  -0.07   0.01     0.05   0.07  -0.05    -0.02  -0.08   0.09
     6   6    -0.04   0.00  -0.04     0.01  -0.01   0.08     0.02   0.05  -0.09
     7   6     0.06  -0.03   0.02    -0.03   0.03  -0.05    -0.03  -0.06   0.09
     8   6    -0.09   0.07   0.02    -0.02  -0.12  -0.00     0.03  -0.07  -0.03
     9   6     0.08  -0.03  -0.04    -0.01   0.14   0.02    -0.02   0.08   0.02
    10   6     0.02   0.06   0.00     0.11  -0.04  -0.00     0.05   0.01   0.02
    11   6    -0.08  -0.09   0.05    -0.12  -0.06   0.01    -0.04  -0.01  -0.03
    12   1    -0.07   0.22   0.04    -0.03   0.10   0.02    -0.05   0.05   0.06
    13   1    -0.04  -0.04  -0.08    -0.01  -0.03  -0.03     0.00  -0.16  -0.04
    14   1    -0.03  -0.18  -0.10    -0.03  -0.01  -0.01    -0.07   0.08   0.05
    15   1     0.07  -0.00   0.08    -0.01  -0.13   0.10    -0.07   0.12  -0.21
    16   1     0.04   0.17  -0.24     0.00  -0.14   0.12    -0.04  -0.03   0.04
    17   1     0.07  -0.04   0.08    -0.01   0.02  -0.09    -0.09   0.08  -0.11
    18   1     0.18   0.11   0.09     0.03  -0.09   0.07    -0.28   0.05  -0.26
    19   1     0.10   0.11   0.09    -0.31  -0.13  -0.10     0.55   0.17   0.12
    20   1    -0.19   0.01  -0.06     0.14  -0.02   0.13    -0.18   0.02  -0.28
    21   1     0.03   0.17  -0.13     0.19  -0.09  -0.20     0.04  -0.06  -0.06
    22   1    -0.03   0.16   0.17     0.13  -0.15   0.25     0.07  -0.18  -0.00
    23   1    -0.02  -0.16   0.17    -0.12   0.04   0.28    -0.05   0.01   0.08
    24   1    -0.03   0.01  -0.28    -0.04   0.14  -0.18    -0.08   0.12  -0.01
    25   1     0.06   0.32  -0.18     0.15  -0.19   0.16     0.21   0.06   0.15
    26   1     0.21   0.17   0.06    -0.06   0.23   0.05    -0.16   0.04  -0.01
    27   1    -0.23  -0.07  -0.28    -0.34   0.01  -0.23    -0.09   0.03   0.01
                     28                     29                     30
                      A                      A                      A
 Frequencies --    969.3905              1008.6243              1039.8125
 Red. masses --      1.6391                 1.7710                 1.4998
 Frc consts  --      0.9075                 1.0615                 0.9554
 IR Inten    --      2.7861                 0.0532                 1.5371
  Atom  AN      X      Y      Z        X      Y      Z        X      Y      Z
     1   8    -0.00   0.00   0.01     0.00   0.00   0.00     0.00  -0.01   0.00
     2   6    -0.00  -0.00  -0.04     0.01   0.02  -0.02     0.02   0.06  -0.01
     3   6    -0.00  -0.01   0.03    -0.00  -0.00  -0.03    -0.01   0.01  -0.00
     4   6    -0.01  -0.02   0.03     0.01   0.02   0.00     0.02  -0.02   0.03
     5   6     0.11   0.04   0.03    -0.02  -0.00  -0.01    -0.01   0.01  -0.02
     6   6     0.10   0.05   0.02    -0.03   0.05   0.04     0.04  -0.08  -0.03
     7   6    -0.10  -0.04  -0.03     0.04  -0.05  -0.02    -0.02   0.07   0.05
     8   6    -0.04   0.06   0.03     0.01  -0.09  -0.03    -0.01  -0.04   0.01
     9   6     0.03  -0.05  -0.03    -0.02   0.04   0.12    -0.01   0.01   0.05
    10   6    -0.03  -0.00  -0.01    -0.08   0.03  -0.12    -0.05   0.02  -0.09
    11   6    -0.00  -0.02   0.04     0.08  -0.00   0.04     0.02  -0.05   0.03
    12   1     0.03   0.02  -0.05    -0.03   0.07   0.03    -0.04   0.17   0.01
    13   1    -0.02   0.15   0.02    -0.01  -0.06  -0.02    -0.04   0.01  -0.08
    14   1     0.06  -0.12  -0.08    -0.04   0.03   0.01    -0.01  -0.17  -0.10
    15   1    -0.17   0.02  -0.25     0.02  -0.27   0.25    -0.03   0.28  -0.28
    16   1    -0.09  -0.39   0.44     0.05  -0.11  -0.10    -0.06   0.10   0.15
    17   1    -0.20   0.18  -0.37     0.05   0.10  -0.30    -0.08  -0.12   0.34
    18   1    -0.12   0.04  -0.10     0.22   0.14   0.11    -0.28  -0.16  -0.15
    19   1     0.03   0.05  -0.01     0.02   0.13   0.08     0.07  -0.13  -0.08
    20   1    -0.22  -0.01  -0.15    -0.29   0.00  -0.07     0.37   0.02   0.07
    21   1    -0.03   0.10   0.01     0.02   0.07  -0.12    -0.02   0.09  -0.04
    22   1    -0.05   0.11   0.04     0.10  -0.19   0.08     0.03  -0.08   0.06
    23   1     0.03  -0.08  -0.02    -0.05  -0.02   0.17    -0.01  -0.01   0.05
    24   1     0.01  -0.04  -0.08    -0.14   0.13   0.27    -0.07   0.06   0.19
    25   1    -0.17  -0.06  -0.12    -0.24   0.02  -0.29    -0.14   0.11  -0.25
    26   1     0.17   0.05   0.03     0.08   0.03   0.04     0.06   0.08   0.04
    27   1    -0.02  -0.05  -0.13     0.27  -0.13  -0.05     0.16  -0.17  -0.13
                     31                     32                     33
                      A                      A                      A
 Frequencies --   1044.8312              1063.0587              1107.2652
 Red. masses --      1.9431                 2.1378                 1.2877
 Frc consts  --      1.2498                 1.4234                 0.9302
 IR Inten    --     25.8815                20.4572                 1.5387
  Atom  AN      X      Y      Z        X      Y      Z        X      Y      Z
     1   8    -0.03  -0.02  -0.01     0.00  -0.02  -0.03    -0.00  -0.00  -0.02
     2   6     0.05   0.17   0.07     0.03   0.09   0.18    -0.01  -0.00   0.09
     3   6    -0.02   0.08   0.01    -0.04   0.05  -0.01     0.03   0.01   0.05
     4   6    -0.07  -0.08  -0.04     0.06  -0.03  -0.01    -0.03   0.00  -0.05
     5   6    -0.01   0.02  -0.01     0.00   0.01  -0.03    -0.02   0.01  -0.03
     6   6     0.02  -0.01   0.01     0.02   0.01   0.02     0.02  -0.01   0.01
     7   6     0.03  -0.03  -0.03     0.01   0.01  -0.02     0.01   0.01   0.02
     8   6     0.06  -0.01   0.02    -0.09  -0.01  -0.01    -0.02  -0.01  -0.03
     9   6    -0.06  -0.03   0.01     0.09  -0.02  -0.02     0.05   0.03   0.02
    10   6     0.01   0.00  -0.03    -0.10  -0.00   0.07    -0.04  -0.00  -0.01
    11   6    -0.00  -0.12  -0.01     0.02  -0.05  -0.12     0.00  -0.00  -0.04
    12   1     0.17  -0.39  -0.18    -0.08   0.12   0.07     0.05  -0.24  -0.02
    13   1     0.04   0.20   0.13    -0.02  -0.24  -0.12     0.05  -0.03   0.08
    14   1     0.16  -0.01  -0.01    -0.10  -0.07  -0.03     0.03   0.17   0.10
    15   1    -0.02   0.04  -0.05    -0.03  -0.03  -0.01    -0.01   0.04  -0.05
    16   1    -0.02  -0.04   0.08    -0.01  -0.10   0.10    -0.02  -0.03   0.08
    17   1    -0.03   0.00   0.02    -0.02   0.04  -0.07    -0.03  -0.01   0.04
    18   1     0.18   0.10   0.10     0.09   0.00   0.06    -0.03  -0.01  -0.02
    19   1    -0.05   0.07   0.04    -0.11  -0.02  -0.02     0.06   0.00   0.01
    20   1    -0.19  -0.01  -0.02     0.01   0.00   0.04     0.04   0.01  -0.01
    21   1    -0.02  -0.13   0.14    -0.09   0.46  -0.24     0.14  -0.27  -0.03
    22   1    -0.02   0.02  -0.13     0.10  -0.23   0.22    -0.04   0.16   0.03
    23   1     0.01   0.15  -0.07     0.09  -0.30  -0.20    -0.11   0.00   0.42
    24   1     0.06  -0.08   0.22    -0.11   0.09  -0.13    -0.02   0.05  -0.20
    25   1     0.39   0.36   0.08     0.07  -0.04   0.28    -0.20   0.09  -0.25
    26   1    -0.04   0.16   0.04    -0.06  -0.19  -0.14     0.42  -0.34  -0.14
    27   1    -0.09  -0.10  -0.17     0.11  -0.05   0.09    -0.21   0.14   0.07
                     34                     35                     36
                      A                      A                      A
 Frequencies --   1127.9130              1155.2879              1180.7856
 Red. masses --      1.4332                 2.0208                 2.4750
 Frc consts  --      1.0743                 1.5891                 2.0332
 IR Inten    --      4.9494                 1.1329                 0.6237
  Atom  AN      X      Y      Z        X      Y      Z        X      Y      Z
     1   8    -0.01  -0.01  -0.01    -0.01  -0.01   0.00    -0.02   0.02  -0.00
     2   6     0.02   0.06   0.03     0.02   0.07  -0.03    -0.04  -0.08  -0.00
     3   6     0.07   0.01  -0.06     0.05  -0.04   0.14     0.13   0.12  -0.08
     4   6    -0.07  -0.02   0.05    -0.04   0.03  -0.09    -0.06  -0.06   0.04
     5   6     0.02  -0.03  -0.06     0.11  -0.06   0.12     0.03   0.07   0.15
     6   6    -0.05   0.01   0.02    -0.03   0.02  -0.05    -0.02  -0.04  -0.06
     7   6    -0.02   0.00   0.06    -0.05   0.03  -0.04    -0.01  -0.04  -0.05
     8   6     0.00  -0.02   0.02    -0.03   0.03  -0.07    -0.09  -0.05   0.03
     9   6     0.03   0.01   0.03     0.03  -0.01  -0.01     0.07   0.07  -0.03
    10   6    -0.01   0.03   0.00    -0.00   0.02   0.03    -0.03  -0.12   0.01
    11   6    -0.02  -0.01  -0.02    -0.06  -0.02  -0.01     0.03   0.04  -0.02
    12   1     0.11  -0.06  -0.15     0.03  -0.35   0.02     0.13  -0.06  -0.18
    13   1    -0.03   0.36   0.09     0.11  -0.14   0.14    -0.03   0.30   0.06
    14   1     0.17  -0.13  -0.09    -0.01   0.33   0.19     0.20  -0.21  -0.13
    15   1     0.05  -0.14   0.20     0.05   0.04   0.01     0.07   0.18  -0.07
    16   1     0.04   0.03  -0.16     0.03   0.12  -0.18    -0.02   0.21  -0.09
    17   1     0.09  -0.01  -0.03     0.06  -0.01   0.01     0.02  -0.08   0.20
    18   1    -0.20  -0.03  -0.14    -0.07  -0.10   0.01     0.11   0.07   0.06
    19   1     0.23   0.00   0.02    -0.19  -0.10  -0.09    -0.15   0.06   0.02
    20   1     0.07   0.01  -0.10     0.07  -0.01   0.08    -0.20  -0.02   0.01
    21   1     0.02   0.01  -0.01     0.05  -0.04  -0.10     0.15  -0.09  -0.15
    22   1    -0.10   0.26  -0.01     0.08  -0.12   0.06     0.03  -0.04   0.27
    23   1     0.01  -0.09   0.04    -0.00  -0.03   0.06     0.02  -0.19  -0.05
    24   1     0.07  -0.05  -0.35    -0.07   0.08   0.14    -0.19   0.25   0.17
    25   1    -0.15  -0.35   0.16    -0.16  -0.11  -0.03     0.02   0.17  -0.17
    26   1    -0.11   0.03  -0.01    -0.16   0.09   0.01    -0.14  -0.02  -0.01
    27   1     0.27  -0.18  -0.05     0.42  -0.33  -0.13     0.04   0.07   0.11
                     37                     38                     39
                      A                      A                      A
 Frequencies --   1196.3740              1225.1576              1234.4686
 Red. masses --      1.6766                 1.9642                 1.7640
 Frc consts  --      1.4139                 1.7371                 1.5838
 IR Inten    --      3.9723                 1.0857                 5.1327
  Atom  AN      X      Y      Z        X      Y      Z        X      Y      Z
     1   8     0.02  -0.00   0.01     0.02  -0.01  -0.01    -0.01   0.00  -0.01
     2   6     0.01   0.01  -0.05     0.00  -0.01   0.05     0.00   0.00   0.03
     3   6    -0.10   0.12   0.06    -0.08   0.14  -0.06     0.02  -0.04   0.03
     4   6     0.05  -0.05  -0.02     0.03  -0.06   0.04     0.00   0.02  -0.03
     5   6    -0.08   0.08  -0.00     0.11  -0.06   0.04     0.07   0.17   0.02
     6   6     0.03  -0.04  -0.00    -0.05   0.03  -0.01    -0.04  -0.07  -0.03
     7   6     0.03  -0.04  -0.00    -0.03   0.01  -0.01    -0.02  -0.08   0.01
     8   6     0.01   0.03  -0.01     0.05   0.05   0.03     0.02  -0.03  -0.01
     9   6     0.05  -0.01   0.01    -0.06  -0.03  -0.03    -0.04  -0.03   0.01
    10   6     0.00  -0.03   0.00     0.06   0.02   0.03     0.05   0.05  -0.06
    11   6     0.01   0.00  -0.02    -0.08   0.00  -0.04    -0.00  -0.04  -0.00
    12   1    -0.03  -0.01   0.04     0.01   0.11  -0.04    -0.01  -0.04   0.03
    13   1     0.00  -0.21  -0.10    -0.06  -0.03  -0.11     0.03  -0.04   0.03
    14   1    -0.07  -0.09  -0.04    -0.00  -0.25  -0.14    -0.02   0.10   0.06
    15   1    -0.02   0.10  -0.11     0.05  -0.06   0.14     0.12   0.12   0.06
    16   1    -0.03   0.03   0.10     0.04   0.05  -0.19    -0.02   0.22  -0.08
    17   1    -0.06  -0.04   0.11     0.12   0.00  -0.06     0.08  -0.15   0.29
    18   1     0.13   0.11   0.05    -0.08  -0.05  -0.04    -0.02   0.13  -0.08
    19   1     0.05   0.11   0.08    -0.05  -0.05  -0.04     0.10   0.13   0.09
    20   1    -0.15  -0.01  -0.04    -0.00   0.00  -0.02    -0.26  -0.01  -0.17
    21   1     0.12  -0.36   0.10    -0.05  -0.05   0.16    -0.18   0.43  -0.06
    22   1    -0.02   0.08  -0.03     0.17  -0.47  -0.03     0.02  -0.06  -0.01
    23   1    -0.04  -0.03   0.25    -0.11   0.23   0.25     0.00   0.06  -0.04
    24   1     0.04  -0.04  -0.23     0.12  -0.14  -0.00     0.05  -0.08   0.06
    25   1    -0.22  -0.40   0.08    -0.24   0.01  -0.28    -0.16  -0.40   0.09
    26   1    -0.35   0.16   0.03     0.25  -0.22  -0.10     0.17  -0.07  -0.03
    27   1     0.26  -0.14  -0.03     0.04  -0.07  -0.03    -0.26   0.11  -0.02
                     40                     41                     42
                      A                      A                      A
 Frequencies --   1256.5476              1278.4095              1283.9878
 Red. masses --      1.7852                 2.0073                 1.4587
 Frc consts  --      1.6607                 1.9329                 1.4169
 IR Inten    --      3.1416                 0.0357                 3.4264
  Atom  AN      X      Y      Z        X      Y      Z        X      Y      Z
     1   8    -0.00  -0.01  -0.01     0.02  -0.02  -0.01     0.01  -0.01  -0.00
     2   6     0.01   0.03   0.03     0.01   0.03   0.01     0.01   0.02   0.04
     3   6    -0.00  -0.06  -0.06     0.03  -0.06  -0.03    -0.11   0.01  -0.04
     4   6    -0.00   0.02   0.02    -0.00   0.02   0.01     0.04  -0.00   0.01
     5   6    -0.07  -0.04   0.17    -0.10   0.08  -0.07     0.05  -0.03   0.07
     6   6     0.04   0.01  -0.04     0.03  -0.01   0.02    -0.02   0.01  -0.01
     7   6     0.03   0.02  -0.07     0.03  -0.04   0.01    -0.00   0.00  -0.02
     8   6     0.09  -0.05   0.02    -0.01  -0.02   0.04     0.01  -0.06   0.00
     9   6    -0.03   0.04  -0.00    -0.00  -0.01  -0.11     0.03   0.02   0.01
    10   6    -0.02  -0.03  -0.02     0.08  -0.06   0.07     0.04   0.05  -0.04
    11   6    -0.00   0.01  -0.01    -0.15   0.09   0.01    -0.05  -0.01  -0.00
    12   1    -0.01   0.07  -0.00    -0.01   0.05  -0.00    -0.04   0.08   0.05
    13   1    -0.02   0.05  -0.01    -0.01   0.05   0.01    -0.03  -0.06  -0.09
    14   1     0.00   0.02   0.01     0.00   0.03   0.02    -0.10  -0.05  -0.02
    15   1    -0.04   0.11  -0.17    -0.02  -0.01  -0.04     0.02   0.02   0.01
    16   1    -0.02   0.04   0.06    -0.03  -0.05   0.13     0.01   0.04  -0.08
    17   1    -0.09   0.03  -0.03    -0.06  -0.00   0.05     0.04   0.00  -0.02
    18   1     0.18  -0.04   0.15     0.08   0.10   0.02     0.01  -0.03   0.01
    19   1    -0.25  -0.01  -0.03     0.10   0.10   0.07    -0.10  -0.02  -0.02
    20   1    -0.03  -0.02   0.17    -0.07  -0.01  -0.04    -0.04  -0.00   0.03
    21   1    -0.20   0.41   0.03    -0.03   0.12  -0.02     0.10  -0.27   0.02
    22   1    -0.09   0.20  -0.19    -0.04   0.03   0.01    -0.25   0.64  -0.09
    23   1    -0.12   0.15   0.30    -0.06   0.09   0.12     0.11  -0.16  -0.29
    24   1     0.16  -0.13  -0.47    -0.10   0.10   0.42    -0.13   0.15   0.28
    25   1    -0.07  -0.07  -0.04     0.04   0.04  -0.06    -0.02  -0.15   0.05
    26   1     0.01  -0.02  -0.01     0.27  -0.26  -0.09     0.23  -0.12  -0.05
    27   1     0.12  -0.06   0.00     0.55  -0.35  -0.11    -0.04  -0.02  -0.03
                     43                     44                     45
                      A                      A                      A
 Frequencies --   1311.6117              1338.6895              1346.2221
 Red. masses --      2.2000                 1.6445                 1.5146
 Frc consts  --      2.2299                 1.7364                 1.6173
 IR Inten    --      6.6738                 2.2763                 1.0305
  Atom  AN      X      Y      Z        X      Y      Z        X      Y      Z
     1   8    -0.01  -0.00  -0.00     0.01  -0.00   0.00    -0.00   0.01   0.00
     2   6     0.02   0.06   0.02    -0.01  -0.02  -0.02    -0.01  -0.03  -0.02
     3   6    -0.08  -0.13  -0.06    -0.04  -0.01   0.00     0.02   0.05   0.00
     4   6     0.03   0.03   0.01     0.02   0.00  -0.00    -0.01  -0.02   0.00
     5   6     0.14   0.08  -0.04     0.09   0.04   0.01    -0.02  -0.06   0.01
     6   6    -0.05  -0.01   0.01    -0.03  -0.02   0.00     0.01   0.02   0.00
     7   6    -0.03  -0.03   0.01    -0.02  -0.01   0.01     0.01   0.02   0.00
     8   6     0.03  -0.01   0.04     0.01   0.03  -0.01     0.01  -0.03   0.03
     9   6     0.03   0.02  -0.09     0.02  -0.00   0.03     0.05  -0.06  -0.12
    10   6    -0.08  -0.07   0.11    -0.12  -0.06  -0.11    -0.05   0.09  -0.04
    11   6     0.07  -0.04  -0.04    -0.04   0.07   0.06     0.03  -0.01   0.01
    12   1    -0.09   0.16   0.09    -0.03   0.04   0.04     0.03  -0.02  -0.04
    13   1    -0.01   0.03  -0.05     0.00  -0.03  -0.03    -0.01   0.02   0.01
    14   1    -0.12   0.06   0.06    -0.05  -0.00   0.00     0.04  -0.03  -0.02
    15   1     0.07  -0.00   0.12     0.05   0.06   0.04    -0.03  -0.04  -0.01
    16   1     0.02   0.07  -0.11     0.01   0.09  -0.08     0.01  -0.04  -0.00
    17   1     0.11  -0.04   0.04     0.06  -0.04   0.02    -0.02   0.02  -0.04
    18   1    -0.07   0.04  -0.08    -0.04   0.03  -0.04    -0.02  -0.06   0.01
    19   1     0.06   0.02   0.02     0.00  -0.01  -0.00    -0.02  -0.05  -0.03
    20   1    -0.07  -0.00  -0.11    -0.01   0.01  -0.06     0.04   0.01   0.03
    21   1     0.03  -0.10   0.08     0.02  -0.12   0.06    -0.06   0.16   0.00
    22   1    -0.11   0.23  -0.11     0.04  -0.06   0.00    -0.03   0.07   0.02
    23   1    -0.14   0.11   0.41    -0.04  -0.06   0.19    -0.16   0.14   0.57
    24   1    -0.06   0.09   0.08     0.07  -0.07  -0.24    -0.13   0.11   0.47
    25   1    -0.07   0.39  -0.24     0.60   0.16   0.45     0.09  -0.26   0.40
    26   1    -0.40   0.22   0.05     0.29  -0.15  -0.00     0.00   0.09   0.03
    27   1    -0.00   0.03   0.07     0.24  -0.11  -0.03    -0.13   0.11   0.07
                     46                     47                     48
                      A                      A                      A
 Frequencies --   1359.9700              1434.1416              1438.9750
 Red. masses --      2.1580                 1.2361                 1.2741
 Frc consts  --      2.3515                 1.4980                 1.5544
 IR Inten    --      4.7439                 4.2942                 4.4688
  Atom  AN      X      Y      Z        X      Y      Z        X      Y      Z
     1   8     0.00   0.01   0.01    -0.00   0.00  -0.00     0.01  -0.00   0.00
[...]
 20076,0.00043758,0.00009600,-0.00000547,0.00021842,-0.00008986,-0.0001
 4024,0.00002540,-0.00005359,-0.00005008,-0.00004998,0.00000551,-0.0000
 0862,0.00059228,-0.00017296,-0.00062811,0.00042310,-0.00105384,0.00317
 919,-0.01272089,0.00813036,-0.00191729,0.00930380,-0.00477647,-0.04744
 208,0.24746526,0.00015359,-0.00013339,0.00000081,-0.00007451,0.0001355
 5,0.00000836,-0.00049227,0.00066242,0.00004947,0.00023946,0.00063889,0
 .00033612,0.00054762,0.00046015,-0.00193912,-0.00037924,-0.00138547,0.
 00035688,-0.02896254,0.11318684,-0.12087033,-0.00011891,0.00019693,-0.
 00012126,-0.00039984,0.00015618,-0.00019763,0.00022713,-0.00065049,0.0
 0029421,-0.00015515,0.00004281,0.00005926,0.00009059,-0.00058775,-0.00
 017127,-0.00014988,-0.00024027,-0.00004225,-0.00002297,-0.00006420,-0.
 00000806,0.00001092,-0.00010097,-0.00000923,0.00021763,-0.00008476,0.0
 0003095,-0.00038213,-0.00027553,0.00027434,0.00267899,-0.01371673,0.00
 869710,-0.00655022,0.02604803,-0.01491803,0.03258550,-0.12461066,0.127
 91896,-0.00057016,-0.00077403,0.00024788,-0.00040785,0.00282417,-0.002
 86901,-0.00786379,-0.01189414,-0.00498900,0.00046374,-0.00080043,0.000
 73225,0.00006347,0.00068904,0.00032319,-0.00007841,-0.00018136,0.00003
 851,-0.00021491,0.00009403,0.00070210,-0.10732016,-0.11135442,-0.01886
 969,0.00949844,0.01983638,0.00432776,-0.00190297,0.00221193,-0.0006028
 5,-0.00000867,-0.00050325,0.00072305,0.00016948,0.00067974,-0.00033480
 ,-0.00027850,-0.00009878,-0.00005788,0.00021284,0.00019774,0.00021892,
 0.00003697,0.00003144,-0.00007785,0.00001089,0.00002606,0.00003003,0.0
 0003089,0.00001032,0.00000856,0.00015018,0.00005794,-0.00004555,-0.000
 75097,0.00016645,0.00111043,-0.00001207,-0.00002539,-0.00007919,0.1195
 4616,0.00043868,0.00020028,-0.00032470,-0.00024696,0.00013504,0.000314
 01,0.00108556,0.00123602,0.00047129,0.00062466,0.00093260,0.00040626,-
 0.00081940,-0.00030063,0.00012204,0.00020202,0.00018807,-0.00009788,-0
 .00111935,0.00011101,-0.00048215,-0.11043105,-0.24302993,-0.03860200,-
 0.00964143,-0.01850103,-0.00272322,0.00220572,-0.00189531,0.00099112,0
 .00024915,0.00067228,0.00039829,-0.00034143,0.00048826,-0.00025733,-0.
 00002851,-0.00002656,-0.00005208,0.00010914,0.00021530,-0.00009155,-0.
 00002007,-0.00004891,-0.00002973,0.00005987,0.00001402,0.00004631,-0.0
 0003579,0.00002252,-0.00011933,0.00017486,0.00010921,0.00043332,0.0005
 5947,0.00028256,0.00046780,0.00008676,0.00006369,0.00008215,0.11758225
 ,0.26227945,-0.00254597,-0.00133745,0.00149847,0.00156853,0.00445701,-
 0.00617006,-0.01881050,-0.02773009,-0.00996654,0.00057407,-0.00127239,
 0.00189429,-0.00053303,-0.00006916,0.00159102,0.00012400,0.00025707,-0
 .00008695,0.00023086,-0.00014119,-0.00066402,-0.01874882,-0.03953827,-
 0.05320717,0.00086796,0.00226188,-0.00013865,0.00052870,-0.00036514,-0
 .00086558,0.00025125,0.00009861,0.00148081,0.00013545,0.00100147,-0.00
 009661,-0.00004944,0.00016142,-0.00002729,0.00048382,-0.00014683,0.000
 22719,0.00009222,0.00006227,-0.00004742,0.00010318,0.00010129,0.000206
 67,0.00000490,0.00002263,-0.00006915,0.00008545,0.00019970,0.00030818,
 0.00151594,-0.00012273,-0.00047298,0.00005817,0.00005746,-0.00008483,0
 .02256672,0.04092052,0.05886238,0.00072700,0.00039864,0.00007736,0.000
 81687,-0.00070190,-0.00075797,0.01138656,0.00146995,-0.00974242,0.0004
 8381,-0.00046478,0.00040398,-0.00145396,0.00026314,-0.00292445,0.00087
 230,-0.00050783,-0.00024869,-0.00037221,-0.00009662,-0.00030488,-0.188
 93512,-0.01859013,0.13175626,-0.01266694,-0.00309266,0.01049005,-0.001
 37079,0.00080244,-0.00048762,-0.00024459,-0.00001398,0.00014052,-0.000
 03895,0.00005220,-0.00006633,-0.00001272,0.00002444,0.00023710,-0.0000
 5669,-0.00005485,0.00011004,0.00002677,-0.00011079,-0.00037039,0.00001
 455,0.00002887,0.00004653,-0.00000633,0.00000968,0.00007444,0.00013108
 ,0.00006709,0.00011929,0.00028673,0.00024496,0.00014379,0.00001932,-0.
 00002647,0.00010750,-0.01163192,-0.00207979,0.01143344,0.20158043,0.00
 019128,0.00000591,0.00017736,-0.00007590,0.00020713,-0.00180653,-0.000
 75693,-0.00112135,-0.00077490,-0.00053430,0.00007351,0.00012089,0.0002
 2717,-0.00083198,-0.00028148,0.00017429,0.00014304,-0.00017498,-0.0004
 0501,0.00010440,-0.00012012,-0.01947772,-0.05202590,0.01747526,0.01759
 298,0.00243612,-0.01646022,0.00232467,-0.00166329,-0.00031351,0.000161
 48,0.00008068,-0.00013191,-0.00003823,0.00016434,0.00004802,0.00028869
 ,0.00000707,0.00008303,0.00023136,-0.00000278,-0.00009628,-0.00000768,
 0.00003421,-0.00003224,0.00001649,0.00000712,0.00002963,-0.00004515,-0
 .00000090,-0.00005824,0.00005971,0.00006125,0.00022777,0.00033795,-0.0
 0003465,0.00029172,0.00002909,0.00004233,0.00001583,-0.02120018,-0.002
 37815,0.02065648,0.01988583,0.05570265,-0.00166796,0.00010709,0.000779
 61,0.00374750,0.00096580,-0.00111610,0.01973496,0.00036784,-0.01879394
 ,0.00054882,-0.00064623,0.00017340,-0.00347236,0.00013598,-0.00506547,
 0.00193823,-0.00093234,-0.00030601,-0.00073047,-0.00024432,0.00006396,
 0.13103748,0.01690123,-0.16928125,-0.00370802,0.00013442,0.00256407,-0
 .00027520,0.00042770,-0.00038025,0.00013771,-0.00000297,-0.00019859,-0
 .00006261,-0.00003136,-0.00001265,-0.00057845,0.00057082,0.00007954,-0
 .00044007,0.00010832,0.00010100,-0.00013684,-0.00010542,-0.00076799,-0
 .00007398,-0.00003288,0.00001041,-0.00002879,0.00006776,0.00001641,0.0
 0011861,0.00002746,0.00004716,0.00004363,0.00010059,0.00015726,0.00002
 854,0.00000879,-0.00001457,-0.00404228,-0.00017444,0.00492343,-0.14085
 000,-0.01744997,0.18571509,-0.00022203,-0.00002108,-0.00006021,0.00093
 019,0.00008811,0.00047227,-0.00092942,0.00159441,0.00098989,-0.0001416
 3,-0.00033672,-0.00062680,-0.00052640,-0.00053191,0.00000664,0.0002504
 8,0.00017406,-0.00007123,-0.00010228,-0.00157307,-0.00019444,-0.015800
 38,-0.00448860,-0.00141370,-0.28374486,-0.07581338,-0.03955484,-0.0005
 8731,-0.00021585,0.00005471,0.00092517,-0.00064571,-0.00083666,0.00001
 194,0.00008720,0.00000670,0.00007228,-0.00006711,0.00003712,-0.0000881
 8,0.00023935,-0.00012382,0.00000415,-0.00004461,-0.00007578,0.00004293
 ,0.00003831,0.00010282,-0.00004485,0.00003369,-0.00007763,0.00003677,0
 .00010111,0.00000801,0.00050233,0.00037842,0.00096891,0.00018841,0.000
 18425,0.00055462,0.00165022,-0.00020004,0.00026544,-0.00140619,0.00193
 577,-0.00106548,0.30548908,-0.00024625,0.00058143,0.00007428,0.0001792
 9,-0.00172740,-0.00016855,0.00210043,-0.00188370,-0.00065794,0.0002475
 5,0.00035773,0.00078280,0.00035823,-0.00018277,0.00002684,-0.00020876,
 0.00000081,0.00007422,0.00003890,-0.00026894,0.00097931,0.02524079,0.0
 0647523,0.00418891,-0.07645585,-0.07098011,-0.01106423,-0.01332159,-0.
 00515024,-0.00081714,-0.00036760,-0.00095660,-0.00375173,-0.00003998,-
 0.00000863,-0.00003382,-0.00008805,0.00007293,-0.00003624,0.00007371,-
 0.00029457,0.00016131,0.00000587,0.00001297,0.00004877,0.00003332,-0.0
 0005014,0.00002040,0.00004597,0.00006705,-0.00005542,-0.00003919,-0.00
 004184,-0.00014041,-0.00004747,-0.00091485,0.00133363,0.00005756,0.000
 05010,-0.00005884,-0.00017450,0.00167273,-0.00002710,0.00247802,-0.002
 06344,0.00045965,0.08184200,0.08117005,-0.00032535,0.00042067,0.000101
 80,0.00074673,-0.00094688,-0.00006641,-0.00018820,0.00069990,-0.000718
 93,0.00000722,-0.00008271,-0.00006306,-0.00047574,-0.00054414,0.001170
 23,0.00027127,-0.00003377,0.00002177,-0.00005646,0.00036350,-0.0007664
 7,0.00241816,0.00021306,-0.00045223,-0.03826144,-0.00994346,-0.0566524
 0,-0.02933410,-0.00931073,-0.00259689,0.00033748,-0.00132900,-0.005846
 63,-0.00000069,0.00008357,0.00002764,-0.00001713,0.00001977,0.00000026
 ,-0.00003162,0.00002847,-0.00001211,-0.00000680,-0.00002596,-0.0000332
 3,0.00010028,0.00001532,0.00016844,0.00002431,0.00007656,-0.00002164,0
 .00010579,0.00000866,-0.00013330,0.00014324,0.00163700,-0.00071981,0.0
 0023163,0.00003368,0.00024873,0.00000940,0.00029014,0.00102581,0.00058
 923,-0.00070010,0.00009887,0.04181127,0.01266978,0.05879780,-0.0000611
 8,-0.00028771,0.00011507,0.00008591,0.00084138,-0.00028951,-0.00124603
 ,0.00218674,-0.00039201,-0.00028974,-0.00024863,-0.00083772,-0.0008650
 1,0.00021102,-0.00082674,0.00019329,0.00022758,-0.00014602,0.00001787,
 -0.00064849,-0.00016142,0.00429801,0.01375598,-0.01438100,-0.06525156,
 -0.04421596,0.04513131,-0.00041278,0.00112649,-0.00240206,0.00040864,0
 .00042827,-0.00177851,0.00000388,-0.00007852,0.00004714,0.00002291,0.0
 0000629,0.00001415,-0.00022583,0.00022987,-0.00016060,-0.00000459,-0.0
 0002646,-0.00004116,0.00002014,0.00003911,0.00007105,-0.00000566,0.000
 06282,-0.00007860,0.00003981,0.00005118,0.00000645,0.00011327,0.000416
 44,0.00040161,0.00008939,0.00006907,0.00027212,-0.00105425,0.00172092,
 -0.00057681,0.00153756,-0.00040163,-0.00008798,-0.00720303,-0.02119407
 ,0.02295445,0.06981710,0.00028534,0.00027933,-0.00010756,-0.00046427,-
 0.00088730,0.00021399,0.00090496,-0.00189832,-0.00036300,0.00019482,0.
 00027111,0.00095518,-0.00045768,-0.00150306,-0.00268747,-0.00024649,0.
 00096991,-0.00031971,-0.00018602,-0.00030381,-0.00023326,-0.00649464,-
 0.01484871,0.01438497,-0.04286011,-0.16746876,0.12567844,0.00271818,0.
 01024956,-0.01041207,0.00030966,0.00111183,-0.00081422,-0.00002666,0.0
 0012467,-0.00007544,-0.00003211,0.00002812,-0.00003022,0.00023885,-0.0
 0024200,0.00015948,-0.00000520,0.00000629,0.00009712,0.00002556,-0.000
 00708,0.00005357,-0.00005140,0.00002467,-0.00036986,-0.00003141,0.0000
 2392,0.00009710,0.00028200,0.00017297,0.00012995,0.00007382,0.00008013
 ,0.00008538,0.00228528,-0.00224958,0.00071838,-0.00016829,0.00167759,-
 0.00037363,-0.00295381,-0.00646831,0.00707431,0.04603866,0.18037408,-0
 .00011351,-0.00028462,0.00002682,-0.00014160,0.00104766,-0.00004916,0.
 00028349,-0.00053289,-0.00043082,-0.00017254,-0.00009500,0.00014605,-0
 .00042790,-0.00389048,-0.00491177,-0.00021812,0.00206588,-0.00036127,-
 0.00046492,-0.00062258,0.00009265,-0.00051753,-0.00361113,0.00231731,0
 .04277069,0.12473989,-0.17619517,0.00522684,0.02004163,-0.02060108,0.0
 0212921,0.00156608,0.00111767,0.00002106,-0.00000650,-0.00000981,-0.00
 005543,0.00008939,-0.00000394,0.00006380,-0.00001314,0.00000729,0.0000
 5086,-0.00001145,0.00009167,-0.00011902,-0.00007209,-0.00002335,-0.000
 25876,-0.00010166,-0.00074191,-0.00000356,0.00001294,-0.00001640,0.000
 09997,0.00004102,0.00015945,0.00006766,0.00011617,0.00006027,0.0001830
 0,-0.00101698,0.00000246,-0.00040318,0.00006306,0.00105789,-0.00061126
 ,-0.00378341,0.00472617,-0.04680777,-0.13424602,0.19266913,-0.00202687
 ,0.00244262,-0.00005106,-0.00335630,-0.00533583,0.00022371,0.00055421,
 0.00043367,-0.00055746,0.00026805,-0.00025692,0.00023730,-0.00154983,0
 .00016158,0.00053360,-0.00018239,0.00004108,0.00016310,0.00058261,-0.0
 0016552,-0.00034456,0.00088741,-0.00061461,-0.00180601,0.00500308,-0.0
 0467295,-0.00182126,-0.19474078,0.11864786,0.05761090,-0.01733615,0.01
 791261,0.00630055,-0.00000966,0.00013334,-0.00002751,-0.00007597,-0.00
 003437,-0.00000715,-0.00002984,-0.00000801,-0.00000665,0.00015593,0.00
 004872,-0.00052559,-0.00000626,0.00005344,0.00005322,0.00011363,-0.000
 08932,-0.00016625,0.00032365,0.00035759,-0.00007585,0.00001183,-0.0000
 2790,-0.00000316,0.00004946,0.00008701,-0.00007297,0.00013735,-0.00014
 169,0.00011468,0.00021655,-0.00031948,-0.00001714,0.00071327,0.0001904
 1,0.00070280,-0.00003902,0.00020677,0.00025620,0.20921482,-0.00114900,
 0.00195113,-0.00005646,-0.00295925,-0.00404133,0.00008299,0.00054729,-
 0.00419128,0.00220804,0.00131037,0.00045692,-0.00117924,0.01681000,-0.
 01177466,-0.00946272,-0.00024752,0.00042712,-0.00100340,0.00087929,0.0
 0111416,-0.00094894,0.00063453,-0.00072583,-0.00113017,0.00628036,-0.0
 0536408,-0.00084642,0.11878622,-0.14554867,-0.04593695,-0.01243043,0.0
 1219992,0.00456918,-0.00007532,0.00000773,-0.00003424,0.00026311,-0.00
 059928,0.00021078,-0.00000316,0.00000947,0.00010201,-0.00020855,0.0002
 8951,0.00070537,0.00001630,0.00001999,0.00011059,-0.00022519,0.0000807
 4,0.00012585,-0.00082077,-0.00009293,0.00041368,-0.00002949,-0.0001471
 0,0.00000881,-0.00026026,0.00023453,0.00019667,0.00028701,-0.00030094,
 -0.00014463,0.00008692,-0.00039635,-0.00014907,-0.00016212,0.00019346,
 0.00016415,-0.00005178,-0.00000204,-0.00032802,-0.12880714,0.15561617,
 0.00011412,0.00000154,0.00009154,-0.00159722,0.00097059,0.00022134,-0.
 00073433,0.00317621,-0.00296332,-0.00088313,0.00005374,0.00124765,-0.0
 1485132,0.00998018,0.00617682,-0.00030512,-0.00017383,0.00153990,-0.00
 047132,-0.00098174,0.00049455,-0.00085750,-0.00159541,-0.00480106,0.02
 169494,-0.01715357,-0.00460796,0.05765278,-0.04634667,-0.07195290,-0.0
 0095172,0.00067340,-0.00005652,0.00004334,0.00002011,-0.00004998,-0.00
 031003,0.00042699,-0.00006144,0.00010506,-0.00011810,0.00004997,0.0003
 5332,-0.00030627,-0.00020285,-0.00004994,0.00003433,-0.00010896,0.0002
 4037,-0.00014754,0.00004013,0.00032379,-0.00021968,0.00004620,0.000150
 94,0.00005556,-0.00000923,-0.00003009,-0.00015705,-0.00008635,0.000784
 78,-0.00090908,-0.00010949,0.00047743,-0.00082592,0.00009177,-0.000593
 29,0.00045827,0.00154030,0.00015061,0.00056520,-0.00022860,-0.06059076
 ,0.05211536,0.07326146,-0.00062389,-0.00071199,-0.00335925,0.00432560,
 0.00925630,0.02100997,-0.00098630,0.00176971,-0.00169356,0.00066327,0.
 00035252,-0.00003750,0.00050205,0.00127419,-0.00068702,0.00050061,0.00
 004357,0.00026714,0.00009829,-0.00005756,-0.00011634,-0.00084933,0.000
 33277,-0.00021896,-0.00627705,-0.00298488,0.00081196,-0.00192844,-0.01
 616333,-0.02671555,-0.05230887,-0.02245727,-0.03001348,-0.00010220,0.0
 0022838,-0.00010934,0.00000879,-0.00007612,0.00000160,0.00001099,-0.00
 000887,0.00002304,-0.00021020,-0.00006122,0.00012481,0.00034925,-0.000
 16089,0.00023373,-0.00000089,0.00010776,0.00012223,0.00004857,0.000026
 41,-0.00000335,0.00004510,0.00012945,0.00001113,0.00001335,-0.00003813
 ,0.00010570,0.00001341,-0.00001994,-0.00000655,0.00011947,-0.00019844,
 -0.00002513,-0.00018241,-0.00121605,-0.00190380,-0.00007124,0.00028516
 ,0.00032096,0.00139903,0.00123012,0.00003226,0.05415742,0.00004815,0.0
 0205658,0.00256062,-0.00578550,-0.01559990,-0.02191980,0.00293312,-0.0
 0270233,0.00347953,-0.00113722,-0.00050519,-0.00010599,-0.00022979,-0.
 00003989,-0.00117942,-0.00116089,-0.00031747,-0.00011432,-0.00004305,0
 .00012807,0.00039412,0.00053491,0.00147700,0.00055746,-0.00161972,-0.0
 0009303,0.00094746,-0.00016658,-0.00524575,-0.00729079,-0.02333546,-0.
 12460812,-0.12479386,0.00018890,-0.00039396,0.00013916,0.00001675,0.00
 005908,0.00000119,0.00006746,-0.00004679,0.00005146,0.00003378,-0.0000
 0289,0.00010710,0.00057264,-0.00084900,0.00145907,0.00041779,0.0003823
 2,0.00006086,-0.00009707,-0.00002153,-0.00001740,0.00012106,0.00010685
 ,0.00004929,0.00000155,-0.00006272,0.00000278,0.00013251,-0.00002796,0
 .00024373,0.00000008,0.00000434,-0.00004032,0.00009067,-0.00000663,-0.
 00059312,0.00010731,0.00024493,-0.00015704,-0.00004418,0.00060282,0.00
 045052,0.02581192,0.13362272,0.00039483,-0.00008661,0.00081109,0.00037
 453,0.00147007,0.00101608,-0.00005953,0.00036120,-0.00072875,0.0000357
 0,0.00009361,0.00001027,-0.00035885,-0.00019898,-0.00008465,-0.0005403
 1,0.00105043,-0.00140001,0.00004814,-0.00005623,-0.00000336,-0.0000017
 2,0.00018920,0.00000428,-0.00133634,0.00021124,0.00010255,-0.00016867,
 0.00133862,0.00051804,-0.03358475,-0.12059804,-0.22542954,0.00000455,0
 .00003421,-0.00000432,0.00000641,-0.00000029,-0.00000138,0.00002080,-0
 .00004805,0.00002781,0.00007051,-0.00005121,-0.00002545,0.00115339,0.0
 0195094,-0.00109729,0.00040387,0.00016727,0.00003762,-0.00001990,0.000
 00857,0.00000539,0.00000623,0.00002923,0.00000564,-0.00002919,-0.00006
 275,0.00002131,0.00001933,-0.00007717,-0.00000316,-0.00000315,0.000063
 57,0.00002091,0.00001104,-0.00044524,0.00002134,0.00005078,-0.00018246
 ,0.00056872,-0.00046944,-0.00006047,0.00053132,0.03715979,0.12971606,0
 .24666175,-0.00086996,-0.00080269,0.00305438,0.00579536,0.00877403,-0.
 01999009,-0.00105388,0.00153907,0.00210760,0.00046175,0.00024027,0.000
 01432,-0.00674579,-0.00164353,-0.00088024,-0.00039613,-0.00010983,-0.0
 0079352,0.00107328,-0.00152679,0.00120082,0.00073989,0.00065498,-0.000
 11663,0.00135132,0.00049184,0.00233306,-0.00266857,-0.01780919,0.02269
 957,-0.05698182,-0.02736251,0.03682799,-0.00005248,0.00023488,0.000000
 02,0.00003848,-0.00013326,0.00000726,-0.00002931,-0.00003326,-0.000008
 50,0.00007055,0.00001613,-0.00003844,0.00031040,0.00023806,0.00010736,
 0.00016060,0.00004733,0.00010767,0.00006614,0.00009988,-0.00001690,-0.
 00002877,0.00001068,-0.00008488,-0.00059417,-0.00055936,0.00004844,0.0
 0011058,0.00002638,0.00026633,-0.00002257,0.00000388,-0.00007272,0.000
 16178,0.00050733,0.00014806,0.00008213,0.00012901,-0.00115861,-0.00027
 781,0.00029846,0.00010202,0.00128563,0.00254087,-0.00318801,0.05801338
 ,-0.00044177,0.00219464,-0.00254649,-0.00610429,-0.01536387,0.02060187
 ,0.00109254,-0.00223632,-0.00148684,-0.00055126,-0.00044141,-0.0003736
 0,-0.00177706,-0.00089825,-0.00064062,-0.00019932,0.00026764,-0.000488
 19,0.00057381,-0.00033675,0.00048270,-0.00030788,-0.00083827,0.0002546
 0,0.00003337,-0.00015810,0.00140336,-0.00057807,-0.00623376,0.00630167
 ,-0.02916843,-0.13263644,0.12540566,0.00008984,-0.00030560,0.00004826,
 0.00006363,-0.00001768,-0.00001304,-0.00002707,0.00006003,0.00000700,-
 0.00002434,-0.00003144,0.00005923,0.00032441,0.00008879,-0.00000614,0.
 00016329,0.00008552,0.00003664,-0.00003735,0.00002057,0.00000567,-0.00
 001480,-0.00003288,-0.00005412,-0.00023506,-0.00019824,-0.00000153,-0.
 00010580,0.00013596,-0.00032492,0.00009585,-0.00023290,-0.00020050,0.0
 0026663,0.00034368,-0.00028866,-0.00036587,0.00023988,-0.00101073,-0.0
 0019879,-0.00001919,-0.00004714,0.00330644,0.01183848,-0.01481672,0.03
 412735,0.14470592,-0.00082800,0.00011157,0.00075336,0.00057621,-0.0020
 9918,0.00091665,-0.00010421,-0.00055949,-0.00096304,0.00001711,-0.0000
 2546,-0.00001429,-0.00030921,-0.00124316,-0.00000573,-0.00049883,0.000
 13868,-0.00019916,-0.00011579,-0.00015447,0.00025726,0.00001040,-0.000
 22634,0.00010058,-0.00132928,-0.00135656,0.00094170,-0.00049058,-0.001
 76792,0.00092629,0.04023882,0.12319669,-0.21321826,-0.00001074,-0.0000
 2373,0.00000021,-0.00002465,0.00002039,0.00001389,0.00001748,-0.000016
 49,0.00000186,0.00006090,0.00000293,0.00002122,0.00053008,0.00017608,0
 .00014857,0.00019195,0.00013284,0.00003210,-0.00001852,-0.00001482,-0.
 00001258,0.00009346,0.00006590,0.00004651,-0.00000568,-0.00006088,0.00
 010617,-0.00005782,0.00001440,-0.00001082,-0.00004790,-0.00002622,0.00
 003606,0.00001570,-0.00023813,0.00013394,-0.00024684,0.00000186,0.0005
 2972,0.00034676,0.00026725,-0.00009428,0.00466550,0.01599167,-0.021586
 20,-0.04267635,-0.13230741,0.23113826\\0.00003582,0.00002453,-0.000034
 97,-0.00004723,-0.00001359,0.00001686,0.00007231,-0.00002008,-0.000007
 15,-0.00000369,-0.00001501,0.00000284,-0.00003788,-0.00000323,0.000044
 83,-0.00002392,0.00000876,0.00000012,0.00001144,-0.00001100,0.00001776
 ,-0.00005289,0.00000690,0.00002216,0.00000935,-0.00000295,-0.00001614,
 0.00000017,0.00004111,-0.00002010,-0.00001120,-0.00001069,-0.00000791,
 0.00000125,-0.00000246,0.00000191,-0.00000153,0.00000218,-0.00000046,0
 .00000897,-0.00000876,-0.00000697,0.00000574,0.00000095,0.00000022,0.0
 0001434,0.00001633,-0.00001187,0.00000706,-0.00000911,-0.00000975,0.00
 000277,0.00000541,-0.00000464,0.00000356,-0.00000843,0.00002403,0.0000
 0037,0.00000553,-0.00000381,0.00000277,-0.00000161,0.00000813,-0.00000
 156,-0.00000662,0.00000599,0.00001500,0.00002643,0.00000998,-0.0000060
 9,0.00000442,-0.00001468,-0.00000078,-0.00000752,-0.00000473,0.0000006
 7,-0.00000189,-0.00000477,-0.00000481,-0.00001960,-0.00000688\\\@


 FORGIVE MY NONSENSE AS I ALSO FORGIVE THOSE WHO THINK THEY TALK SENSE

                                                       -- ROBERT FROST
 Job cpu time:       0 days  0 hours  2 minutes 52.0 seconds.
 Elapsed time:       0 days  0 hours  2 minutes 55.0 seconds.
 File lengths (MBytes):  RWF=    127 Int=      0 D2E=      0 Chk=      5 Scr=      1
 Normal termination of Gaussian 16 at Thu Feb 22 10:20:56 2024.
