 Entering Gaussian System, Link 0=g16
 Input=/Volumes/SSD-PMU3/b3lyp_6-31gd_freq/FXBKMQRDMLOJNV-RAFNTYLNSA-N_calculating/gaussianinput0.gjf
 Output=/Volumes/SSD-PMU3/b3lyp_6-31gd_freq/FXBKMQRDMLOJNV-RAFNTYLNSA-N_calculating/gaussianinput0.log
 Initial command:
 /Applications/g16/l1.exe "/Users/macmini_m1_2022/PycharmProjects/sphere_model/sphere_model_lib/Gau-62315.inp" -scrdir="/Users/macmini_m1_2022/PycharmProjects/sphere_model/sphere_model_lib/"
 Entering Link 1 = /Applications/g16/l1.exe PID=     62316.
  
 Copyright (c) 1988,1990,1992,1993,1995,1998,2003,2009,2016,
            Gaussian, Inc.  All Rights Reserved.
  
 This is part of the Gaussian(R) 16 program.  It is based on
 the Gaussian(R) 09 system (copyright 2009, Gaussian, Inc.),
 the Gaussian(R) 03 system (copyright 2003, Gaussian, Inc.),
 the Gaussian(R) 98 system (copyright 1998, Gaussian, Inc.),
 the Gaussian(R) 94 system (copyright 1995, Gaussian, Inc.),
 the Gaussian 92(TM) system (copyright 1992, Gaussian, Inc.),
 the Gaussian 90(TM) system (copyright 1990, Gaussian, Inc.),
 the Gaussian 88(TM) system (copyright 1988, Gaussian, Inc.),
 the Gaussian 86(TM) system (copyright 1986, Carnegie Mellon
 University), and the Gaussian 82(TM) system (copyright 1983,
 Carnegie Mellon University). Gaussian is a federally registered
 trademark of Gaussian, Inc.
  
 This software contains proprietary and confidential information,
 including trade secrets, belonging to Gaussian, Inc.
  
 This software is provided under written license and may be
 used, copied, transmitted, or stored only in accord with that
 written license.
  
 The following legend is applicable only to US Government
 contracts under FAR:
  
                    RESTRICTED RIGHTS LEGEND
  
 Use, reproduction and disclosure by the US Government is
 subject to restrictions as set forth in subparagraphs (a)
 and (c) of the Commercial Computer Software - Restricted
 Rights clause in FAR 52.227-19.
  
 Gaussian, Inc.
 340 Quinnipiac St., Bldg. 40, Wallingford CT 06492
  
  
 ---------------------------------------------------------------
 Warning -- This program may not be used in any manner that
 competes with the business of Gaussian, Inc. or will provide
 assistance to any competitor of Gaussian, Inc.  The licensee
 of this program is prohibited from giving any competitor of
 Gaussian, Inc. access to this program.  By using this program,
 the user acknowledges that Gaussian, Inc. is engaged in the
 business of creating and licensing software in the field of
 computational chemistry and represents and warrants to the
 licensee that it is not a competitor of Gaussian, Inc. and that
 it will not use this program in any manner prohibited above.
 ---------------------------------------------------------------
  

 Cite this work as:
 Gaussian 16, Revision A.03,
 M. J. Frisch, G. W. Trucks, H. B. Schlegel, G. E. Scuseria, 
 M. A. Robb, J. R. Cheeseman, G. Scalmani, V. Barone, 
 G. A. Petersson, H. Nakatsuji, X. Li, M. Caricato, A. V. Marenich, 
 J. Bloino, B. G. Janesko, R. Gomperts, B. Mennucci, H. P. Hratchian, 
 J. V. Ortiz, A. F. Izmaylov, J. L. Sonnenberg, D. Williams-Young, 
 F. Ding, F. Lipparini, F. Egidi, J. Goings, B. Peng, A. Petrone, 
 T. Henderson, D. Ranasinghe, V. G. Zakrzewski, J. Gao, N. Rega, 
 G. Zheng, W. Liang, M. Hada, M. Ehara, K. Toyota, R. Fukuda, 
 J. Hasegawa, M. Ishida, T. Nakajima, Y. Honda, O. Kitao, H. Nakai, 
 T. Vreven, K. Throssell, J. A. Montgomery, Jr., J. E. Peralta, 
 F. Ogliaro, M. J. Bearpark, J. J. Heyd, E. N. Brothers, K. N. Kudin, 
 V. N. Staroverov, T. A. Keith, R. Kobayashi, J. Normand, 
 K. Raghavachari, A. P. Rendell, J. C. Burant, S. S. Iyengar, 
 J. Tomasi, M. Cossi, J. M. Millam, M. Klene, C. Adamo, R. Cammi, 
 J. W. Ochterski, R. L. Martin, K. Morokuma, O. Farkas, 
 J. B. Foresman, and D. J. Fox, Gaussian, Inc., Wallingford CT, 2016.
 
 ******************************************
 Gaussian 16:  EM64M-G16RevA.03 25-Dec-2016
                22-Feb-2024 
 ******************************************
 %nprocshared=8
 Will use up to    8 processors via shared memory.
 %mem=8GB
 %chk= 0.chk
 ---------------------
 # freq b3lyp/6-31g(d)
 ---------------------
 1/10=4,30=1,38=1/1,3;
 2/12=2,17=6,18=5,40=1/2;
 3/5=1,6=6,7=1,11=2,25=1,30=1,71=2,74=-5,140=1/1,2,3;
 4//1;
 5/5=2,38=5,98=1/2;
 8/6=4,10=90,11=11/1;
 11/6=1,8=1,9=11,15=111,16=1/1,2,10;
 10/6=1/2;
 6/7=2,8=2,9=2,10=2,28=1/1;
 7/8=1,10=1,25=1/1,2,3,16;
 1/10=4,30=1/3;
 99//99;
 ---------
 good luck
 ---------
 Symbolic Z-matrix:
 Charge =  0 Multiplicity = 1
 O                     1.21614   0.        0. 
 C                     0.        0.        0. 
 C                    -0.8497   -1.26844   0.00039 
 C                    -1.74682  -1.26158   1.2619 
 C                    -1.74436  -1.25552  -1.26487 
 C                    -2.63791   0.00116  -1.25501 
 C                    -1.74663   1.25957  -1.26189 
 C                    -0.84823   1.26982   0.00039 
 C                    -1.74396   1.25016   1.26411 
 C                    -2.64971  -0.00905   1.28145 
 N                    -3.52963  -0.08968   2.45384 
 C                    -3.52188  -0.00627   0.00837 
 H                    -0.17993  -2.13414   0.00152 
 H                    -1.12359  -1.28449   2.16737 
 H                    -2.3759   -2.15983   1.28277 
 H                    -1.1202   -1.27291  -2.16785 
 H                    -2.36076  -2.16421  -1.28233 
 H                    -3.27619   0.00162  -2.14783 
 H                    -1.12515   1.28169  -2.16653 
 H                    -2.36437   2.16788  -1.27511 
 H                    -0.17811   2.13547   0.00289 
 H                    -1.12206   1.26974   2.17026 
 H                    -2.36862   2.15495   1.28448 
 H                    -4.12249   0.74052   2.49145 
 H                    -2.96614  -0.06873   3.30506 
 H                    -4.17443  -0.88791   0.02307 
 H                    -4.17701   0.87756   0.01454 
 

 GradGradGradGradGradGradGradGradGradGradGradGradGradGradGradGradGradGrad
 Berny optimization.
 Initialization pass.
 Trust Radius=3.00D-01 FncErr=1.00D-07 GrdErr=1.00D-07 EigMax=2.50D+02 EigMin=1.00D-04
 Number of steps in this run=      2 maximum allowed number of steps=      2.
 GradGradGradGradGradGradGradGradGradGradGradGradGradGradGradGradGradGrad

                          Input orientation:                          
 ---------------------------------------------------------------------
 Center     Atomic      Atomic             Coordinates (Angstroms)
 Number     Number       Type             X           Y           Z
 ---------------------------------------------------------------------
      1          8           0        1.216136    0.000000    0.000000
      2          6           0        0.000000    0.000000    0.000000
      3          6           0       -0.849700   -1.268441    0.000394
      4          6           0       -1.746817   -1.261576    1.261902
      5          6           0       -1.744356   -1.255516   -1.264869
      6          6           0       -2.637906    0.001160   -1.255007
      7          6           0       -1.746631    1.259567   -1.261886
      8          6           0       -0.848229    1.269824    0.000394
      9          6           0       -1.743962    1.250161    1.264109
     10          6           0       -2.649706   -0.009050    1.281445
     11          7           0       -3.529630   -0.089683    2.453837
     12          6           0       -3.521879   -0.006274    0.008368
     13          1           0       -0.179933   -2.134135    0.001521
     14          1           0       -1.123592   -1.284491    2.167366
     15          1           0       -2.375900   -2.159825    1.282765
     16          1           0       -1.120196   -1.272912   -2.167846
     17          1           0       -2.360764   -2.164207   -1.282327
     18          1           0       -3.276191    0.001616   -2.147830
     19          1           0       -1.125150    1.281688   -2.166528
     20          1           0       -2.364368    2.167882   -1.275106
     21          1           0       -0.178108    2.135466    0.002885
     22          1           0       -1.122055    1.269738    2.170257
     23          1           0       -2.368620    2.154953    1.284475
     24          1           0       -4.122493    0.740523    2.491447
     25          1           0       -2.966137   -0.068730    3.305059
     26          1           0       -4.174430   -0.887907    0.023068
     27          1           0       -4.177009    0.877555    0.014535
 ---------------------------------------------------------------------
                    Distance matrix (angstroms):
                    1          2          3          4          5
     1  O    0.000000
     2  C    1.216136   0.000000
     3  C    2.424174   1.526739   0.000000
     4  C    3.458766   2.497066   1.547989   0.000000
     5  C    3.455536   2.493791   1.549667   2.526779   0.000000
     6  C    4.053231   2.921231   2.526974   2.953536   1.542000
     7  C    3.457868   2.495914   2.964568   3.567305   2.515086
     8  C    2.423645   1.527071   2.538265   2.967634   2.963322
     9  C    3.452978   2.490437   2.956355   2.511740   3.560077
    10  C    4.072704   2.943319   2.543065   1.544154   2.976080
    11  N    5.343375   4.299726   3.819801   2.443863   4.286624
    12  C    4.738027   3.521895   2.955278   2.509577   2.518199
    13  H    2.550205   2.141707   1.094539   2.192041   2.196164
    14  H    3.438273   2.758596   2.184272   1.099454   3.488040
    15  H    4.383270   3.457634   2.183650   1.096828   2.776160
    16  H    3.431954   2.752217   2.185052   3.486539   1.097837
    17  H    4.372913   3.449835   2.175106   2.768533   1.098173
    18  H    4.979375   3.917474   3.480771   3.944732   2.169451
    19  H    3.437759   2.757269   3.357764   4.313791   2.762935
    20  H    4.375570   3.451933   3.966035   4.310332   3.479105
    21  H    2.550321   2.142883   3.469528   3.947894   3.944501
    22  H    3.433568   2.753408   3.350349   2.760976   4.308626
    23  H    4.375406   3.450226   3.959243   3.472725   4.303505
    24  H    5.937730   4.873462   4.577385   3.341260   4.873358
    25  H    5.330999   4.441408   4.103587   2.661600   4.877033
    26  H    5.463251   4.267877   3.346513   2.750935   2.774739
    27  H    5.464094   4.268222   3.959354   3.469530   3.479176
                    6          7          8          9         10
     6  C    0.000000
     7  C    1.542079   0.000000
     8  C    2.527545   1.549381   0.000000
     9  C    2.950438   2.526014   1.549096   0.000000
    10  C    2.536500   2.982191   2.553807   1.551221   0.000000
    11  N    3.815619   4.336607   3.880406   2.529673   1.468084
    12  C    1.541940   2.523372   2.962582   2.513265   1.543185
    13  H    3.489983   3.945625   3.468942   3.936213   3.500567
    14  H    3.957105   4.315110   3.360970   2.761375   2.177299
    15  H    3.343470   4.308535   3.967461   3.468097   2.168134
    16  H    2.181737   2.761636   3.352721   4.305032   3.979241
    17  H    2.183201   3.478477   3.965565   4.303799   3.361713
    18  H    1.097516   2.169537   3.481123   3.943085   3.486047
    19  H    2.181525   1.097773   2.184577   3.486143   3.984820
    20  H    2.184013   1.098549   2.175336   2.770330   3.369926
    21  H    3.491155   2.197068   1.094717   2.196895   3.513184
    22  H    3.954684   3.488525   2.187073   1.099207   2.181514
    23  H    3.340705   2.769935   2.178051   1.099664   2.182184
    24  H    4.097142   4.472319   4.148049   2.724610   2.048186
    25  H    4.572398   4.910046   4.147056   2.720048   2.049074
    26  H    2.187424   3.486683   3.964837   3.466799   2.163489
    27  H    2.179138   2.771628   3.351843   2.760433   2.173427
                   11         12         13         14         15
    11  N    0.000000
    12  C    2.446903   0.000000
    13  H    4.627538   3.961874   0.000000
    14  H    2.701601   3.470863   2.510632   0.000000
    15  H    2.643481   2.752297   2.542541   1.765504   0.000000
    16  H    5.344657   3.479707   2.516337   4.335229   3.777582
    17  H    4.430442   2.769613   2.530848   3.768936   2.565140
    18  H    4.609545   2.170165   4.332200   4.990859   4.153472
    19  H    5.386089   3.483293   4.154722   5.036657   5.030508
    20  H    4.512145   2.777425   4.990880   5.030807   5.027115
    21  H    4.710749   3.970880   4.269602   4.156323   4.991784
    22  H    2.779363   3.472913   4.144558   2.554231   3.757881
    23  H    2.784554   2.762129   4.983232   3.762893   4.314784
    24  H    1.020854   2.661602   5.477880   3.633059   3.594929
    25  H    1.021050   3.343788   4.789801   2.483423   2.968288
    26  H    2.638478   1.096957   4.184442   3.750054   2.537582
    27  H    2.702747   1.100176   5.004704   4.316536   3.752077
                   16         17         18         19         20
    16  H    0.000000
    17  H    1.765661   0.000000
    18  H    2.504623   2.505572   0.000000
    19  H    2.554605   3.765999   2.503180   0.000000
    20  H    3.766167   4.332097   2.507145   1.765116   0.000000
    21  H    4.149294   4.990285   4.333245   2.516382   2.532596
    22  H    5.028341   5.024611   4.989420   4.336803   3.771012
    23  H    5.022683   5.024309   4.152260   3.770707   2.559617
    24  H    5.897179   5.077649   4.773374   5.565398   4.394915
    25  H    5.900020   5.079529   5.462150   5.928839   5.132492
    26  H    3.778449   2.573399   2.512147   4.335848   3.781458
    27  H    4.327979   3.772653   2.500913   3.772824   2.571728
                   21         22         23         24         25
    21  H    0.000000
    22  H    2.517543   0.000000
    23  H    2.537951   1.766958   0.000000
    24  H    4.867954   3.063635   2.556064   0.000000
    25  H    4.851385   2.545567   3.063422   1.629115   0.000000
    26  H    5.011166   4.310782   3.756474   2.957596   3.592003
    27  H    4.192098   3.759480   2.552404   2.481299   3.631696
                   26         27
    26  H    0.000000
    27  H    1.765485   0.000000
 Stoichiometry    C10H15NO
 Framework group  C1[X(C10H15NO)]
 Deg. of freedom    75
 Full point group                 C1      NOp   1
 Largest Abelian subgroup         C1      NOp   1
 Largest concise Abelian subgroup C1      NOp   1
                         Standard orientation:                         
 ---------------------------------------------------------------------
 Center     Atomic      Atomic             Coordinates (Angstroms)
 Number     Number       Type             X           Y           Z
 ---------------------------------------------------------------------
      1          8           0        2.585454   -1.367563    0.024853
      2          6           0        1.559492   -0.714667    0.013999
      3          6           0        0.845659   -0.274878   -1.261916
      4          6           0       -0.588528   -0.857342   -1.251304
      5          6           0        0.770229    1.272937   -1.268765
      6          6           0        0.007939    1.760229   -0.020077
      7          6           0        0.760354    1.303464    1.246116
      8          6           0        0.840487   -0.243553    1.276151
      9          6           0       -0.593650   -0.828957    1.260270
     10          6           0       -1.363884   -0.373255   -0.006758
     11          7           0       -2.735496   -0.890881   -0.084314
     12          6           0       -1.416125    1.168953   -0.023628
     13          1           0        1.412272   -0.646353   -2.121550
     14          1           0       -0.548872   -1.956045   -1.260218
     15          1           0       -1.128170   -0.548577   -2.154898
     16          1           0        1.781664    1.699360   -1.289003
     17          1           0        0.261882    1.607092   -2.183045
     18          1           0       -0.051152    2.856069   -0.033636
     19          1           0        1.770322    1.733229    1.265353
     20          1           0        0.244020    1.657747    2.148719
     21          1           0        1.402292   -0.594463    2.147725
     22          1           0       -0.555581   -1.926992    1.293839
     23          1           0       -1.133848   -0.499336    2.159602
     24          1           0       -3.257941   -0.593819    0.740883
     25          1           0       -2.717219   -1.911203   -0.050402
     26          1           0       -1.972298    1.495726   -0.910874
     27          1           0       -1.974353    1.526646    0.854338
 ---------------------------------------------------------------------
 Rotational constants (GHZ):           1.4493175           0.9756437           0.8958176
 Standard basis: 6-31G(d) (6D, 7F)
 There are   210 symmetry adapted cartesian basis functions of A   symmetry.
 There are   210 symmetry adapted basis functions of A   symmetry.
   210 basis functions,   396 primitive gaussians,   210 cartesian basis functions
    45 alpha electrons       45 beta electrons
       nuclear repulsion energy       780.1149403571 Hartrees.
 NAtoms=   27 NActive=   27 NUniq=   27 SFac= 1.00D+00 NAtFMM=   60 NAOKFM=F Big=F
 Integral buffers will be    131072 words long.
 Raffenetti 2 integral format.
 Two-electron integral symmetry is turned on.
 One-electron integrals computed using PRISM.
 NBasis=   210 RedAO= T EigKep=  2.30D-03  NBF=   210
 NBsUse=   210 1.00D-06 EigRej= -1.00D+00 NBFU=   210
 ExpMin= 1.61D-01 ExpMax= 5.48D+03 ExpMxC= 8.25D+02 IAcc=3 IRadAn=         5 AccDes= 0.00D+00
 Harris functional with IExCor=  402 and IRadAn=       5 diagonalized for initial guess.
 HarFok:  IExCor=  402 AccDes= 0.00D+00 IRadAn=         5 IDoV= 1 UseB2=F ITyADJ=14
 ICtDFT=  3500011 ScaDFX=  1.000000  1.000000  1.000000  1.000000
 FoFCou: FMM=F IPFlag=           0 FMFlag=      100000 FMFlg1=           0
         NFxFlg=           0 DoJE=T BraDBF=F KetDBF=T FulRan=T
         wScrn=  0.000000 ICntrl=       500 IOpCl=  0 I1Cent=   200000004 NGrid=           0
         NMat0=    1 NMatS0=      1 NMatT0=    0 NMatD0=    1 NMtDS0=    0 NMtDT0=    0
 Petite list used in FoFCou.
 Requested convergence on RMS density matrix=1.00D-08 within 128 cycles.
 Requested convergence on MAX density matrix=1.00D-06.
 Requested convergence on             energy=1.00D-06.
 No special actions if energy rises.
 Integral accuracy reduced to 1.0D-05 until final iterations.
 Initial convergence to 1.0D-05 achieved.  Increase integral accuracy.
 SCF Done:  E(RB3LYP) =  -520.082904392     A.U. after   14 cycles
            NFock= 14  Conv=0.40D-08     -V/T= 2.0095
 DoSCS=F DFT=T ScalE2(SS,OS)=  1.000000  1.000000
 Range of M.O.s used for correlation:     1   210
 NBasis=   210 NAE=    45 NBE=    45 NFC=     0 NFV=     0
 NROrb=    210 NOA=    45 NOB=    45 NVA=   165 NVB=   165
 Symmetrizing basis deriv contribution to polar:
 IMax=3 JMax=2 DiffMx= 0.00D+00
 G2DrvN: will do    28 centers at a time, making    1 passes.
 Calling FoFCou, ICntrl=  3107 FMM=F I1Cent=   0 AccDes= 0.00D+00.
 End of G2Drv F.D. properties file   721 does not exist.
 End of G2Drv F.D. properties file   722 does not exist.
 End of G2Drv F.D. properties file   788 does not exist.
          IDoAtm=111111111111111111111111111
          Differentiating once with respect to electric field.
                with respect to dipole field.
          Differentiating once with respect to nuclear coordinates.
 Keep R1 ints in memory in canonical form, NReq=253741723.
          There are    84 degrees of freedom in the 1st order CPHF.  IDoFFX=6 NUNeed=     3.
     81 vectors produced by pass  0 Test12= 8.84D-15 1.19D-09 XBig12= 7.79D+01 2.31D+00.
 AX will form    81 AO Fock derivatives at one time.
     81 vectors produced by pass  1 Test12= 8.84D-15 1.19D-09 XBig12= 9.53D+00 7.82D-01.
     81 vectors produced by pass  2 Test12= 8.84D-15 1.19D-09 XBig12= 9.18D-02 3.23D-02.
     81 vectors produced by pass  3 Test12= 8.84D-15 1.19D-09 XBig12= 4.70D-04 5.83D-03.
     81 vectors produced by pass  4 Test12= 8.84D-15 1.19D-09 XBig12= 5.99D-07 1.07D-04.
     44 vectors produced by pass  5 Test12= 8.84D-15 1.19D-09 XBig12= 4.86D-10 2.40D-06.
      4 vectors produced by pass  6 Test12= 8.84D-15 1.19D-09 XBig12= 3.86D-13 7.51D-08.
      1 vectors produced by pass  7 Test12= 8.84D-15 1.19D-09 XBig12= 3.68D-16 2.80D-09.
 InvSVY:  IOpt=1 It=  1 EMax= 1.42D-14
 Solved reduced A of dimension   454 with    84 vectors.
 Isotropic polarizability for W=    0.000000      102.55 Bohr**3.
 End of Minotr F.D. properties file   721 does not exist.
 End of Minotr F.D. properties file   722 does not exist.
 End of Minotr F.D. properties file   788 does not exist.

 **********************************************************************

            Population analysis using the SCF density.

 **********************************************************************

 Orbital symmetries:
       Occupied  (A) (A) (A) (A) (A) (A) (A) (A) (A) (A) (A) (A)
                 (A) (A) (A) (A) (A) (A) (A) (A) (A) (A) (A) (A)
                 (A) (A) (A) (A) (A) (A) (A) (A) (A) (A) (A) (A)
                 (A) (A) (A) (A) (A) (A) (A) (A) (A)
       Virtual   (A) (A) (A) (A) (A) (A) (A) (A) (A) (A) (A) (A)
                 (A) (A) (A) (A) (A) (A) (A) (A) (A) (A) (A) (A)
                 (A) (A) (A) (A) (A) (A) (A) (A) (A) (A) (A) (A)
                 (A) (A) (A) (A) (A) (A) (A) (A) (A) (A) (A) (A)
                 (A) (A) (A) (A) (A) (A) (A) (A) (A) (A) (A) (A)
                 (A) (A) (A) (A) (A) (A) (A) (A) (A) (A) (A) (A)
                 (A) (A) (A) (A) (A) (A) (A) (A) (A) (A) (A) (A)
                 (A) (A) (A) (A) (A) (A) (A) (A) (A) (A) (A) (A)
                 (A) (A) (A) (A) (A) (A) (A) (A) (A) (A) (A) (A)
                 (A) (A) (A) (A) (A) (A) (A) (A) (A) (A) (A) (A)
                 (A) (A) (A) (A) (A) (A) (A) (A) (A) (A) (A) (A)
                 (A) (A) (A) (A) (A) (A) (A) (A) (A) (A) (A) (A)
                 (A) (A) (A) (A) (A) (A) (A) (A) (A) (A) (A) (A)
                 (A) (A) (A) (A) (A) (A) (A) (A) (A)
 The electronic state is 1-A.
 Alpha  occ. eigenvalues --  -19.13176 -14.31613 -10.26273 -10.22332 -10.19550
 Alpha  occ. eigenvalues --  -10.19390 -10.19300 -10.19154 -10.19050 -10.18998
 Alpha  occ. eigenvalues --  -10.18780 -10.18291  -1.02993  -0.90369  -0.85199
 Alpha  occ. eigenvalues --   -0.77988  -0.76742  -0.74053  -0.67752  -0.64750
 Alpha  occ. eigenvalues --   -0.60414  -0.58625  -0.56875  -0.50655  -0.47992
 Alpha  occ. eigenvalues --   -0.47269  -0.45969  -0.45217  -0.44322  -0.43678
 Alpha  occ. eigenvalues --   -0.42017  -0.40861  -0.40259  -0.40036  -0.39234
 Alpha  occ. eigenvalues --   -0.36372  -0.36037  -0.34299  -0.33919  -0.33470
 Alpha  occ. eigenvalues --   -0.31372  -0.30601  -0.29606  -0.23842  -0.22871
 Alpha virt. eigenvalues --   -0.00939   0.06469   0.08705   0.10940   0.12310
 Alpha virt. eigenvalues --    0.12586   0.13613   0.13813   0.14337   0.15770
 Alpha virt. eigenvalues --    0.16345   0.17544   0.18193   0.18805   0.19412
 Alpha virt. eigenvalues --    0.19840   0.19981   0.21133   0.21726   0.22354
 Alpha virt. eigenvalues --    0.23697   0.24589   0.25608   0.27541   0.28202
 Alpha virt. eigenvalues --    0.28914   0.29236   0.31516   0.34057   0.36871
 Alpha virt. eigenvalues --    0.51135   0.51513   0.52428   0.53428   0.54614
 Alpha virt. eigenvalues --    0.56742   0.57425   0.60502   0.60806   0.63074
 Alpha virt. eigenvalues --    0.63414   0.64123   0.66592   0.66694   0.68118
 Alpha virt. eigenvalues --    0.68660   0.71086   0.71907   0.73318   0.74063
 Alpha virt. eigenvalues --    0.75516   0.77005   0.77466   0.78876   0.80474
 Alpha virt. eigenvalues --    0.83270   0.84418   0.86225   0.86517   0.86662
 Alpha virt. eigenvalues --    0.87476   0.88362   0.89999   0.90636   0.91772
 Alpha virt. eigenvalues --    0.92055   0.92947   0.94007   0.95398   0.96404
 Alpha virt. eigenvalues --    0.98095   0.98937   0.99940   1.02433   1.03099
 Alpha virt. eigenvalues --    1.08594   1.11303   1.16774   1.17593   1.19848
 Alpha virt. eigenvalues --    1.21052   1.23322   1.24674   1.29276   1.31977
 Alpha virt. eigenvalues --    1.38666   1.41864   1.43399   1.48795   1.50706
 Alpha virt. eigenvalues --    1.55989   1.61085   1.62771   1.66024   1.66844
 Alpha virt. eigenvalues --    1.68764   1.71906   1.73314   1.75717   1.76876
 Alpha virt. eigenvalues --    1.77334   1.77926   1.81688   1.82640   1.84372
 Alpha virt. eigenvalues --    1.85047   1.87749   1.90121   1.91960   1.92692
 Alpha virt. eigenvalues --    1.96123   1.98140   2.01113   2.05821   2.07480
 Alpha virt. eigenvalues --    2.08734   2.08985   2.10310   2.13562   2.15239
 Alpha virt. eigenvalues --    2.16606   2.20019   2.21686   2.24045   2.24271
 Alpha virt. eigenvalues --    2.27010   2.28929   2.31003   2.32358   2.34952
 Alpha virt. eigenvalues --    2.37926   2.39233   2.41037   2.42623   2.46775
 Alpha virt. eigenvalues --    2.47902   2.48466   2.50661   2.57623   2.60084
 Alpha virt. eigenvalues --    2.67037   2.68505   2.70327   2.70907   2.71985
 Alpha virt. eigenvalues --    2.73651   2.75107   2.75634   2.80950   2.81437
 Alpha virt. eigenvalues --    2.92270   3.01385   3.03370   3.81714   4.09999
 Alpha virt. eigenvalues --    4.15816   4.27411   4.28599   4.31294   4.49471
 Alpha virt. eigenvalues --    4.56466   4.70343   4.79101   4.82668   4.82895
          Condensed to atoms (all electrons):
               1          2          3          4          5          6
     1  O    8.013098   0.578529  -0.073336   0.000899   0.001027   0.000053
     2  C    0.578529   4.519208   0.328392  -0.027036  -0.029827  -0.021148
     3  C   -0.073336   0.328392   5.227627   0.320887   0.338555  -0.025130
     4  C    0.000899  -0.027036   0.320887   5.162213  -0.038210  -0.017811
     5  C    0.001027  -0.029827   0.338555  -0.038210   5.097526   0.375179
     6  C    0.000053  -0.021148  -0.025130  -0.017811   0.375179   4.940033
     7  C    0.001014  -0.029228  -0.008952  -0.002088  -0.049730   0.371131
     8  C   -0.073839   0.333907  -0.126506  -0.003819  -0.007891  -0.030556
     9  C    0.000841  -0.031603  -0.000300  -0.070697  -0.003187  -0.007688
    10  C    0.000106  -0.019729  -0.018730   0.376511  -0.017822  -0.020105
    11  N    0.000000   0.000297   0.003109  -0.058028   0.000118   0.003295
    12  C   -0.000031  -0.002272  -0.016166  -0.047411  -0.045246   0.357223
    13  H    0.004155  -0.031739   0.345331  -0.030218  -0.031419   0.004154
    14  H    0.000726  -0.001055  -0.037937   0.359874   0.005224   0.000017
    15  H   -0.000077   0.003384  -0.027079   0.354923  -0.006111  -0.000365
    16  H    0.000702  -0.000913  -0.039475   0.005115   0.367099  -0.035290
    17  H   -0.000081   0.003594  -0.030982  -0.005518   0.361182  -0.033140
    18  H   -0.000000   0.000316   0.004572   0.000103  -0.037997   0.368592
    19  H    0.000699  -0.000927   0.000010   0.000049  -0.004277  -0.034640
    20  H   -0.000082   0.003508  -0.000287   0.000099   0.005251  -0.033363
    21  H    0.004226  -0.031788   0.007177  -0.000189  -0.000067   0.004330
    22  H    0.000738  -0.000969   0.000258  -0.006357   0.000006  -0.000065
    23  H   -0.000083   0.003568  -0.000413   0.006110   0.000130  -0.000946
    24  H    0.000000  -0.000001  -0.000244   0.007759   0.000010  -0.000143
    25  H    0.000000  -0.000018  -0.000120  -0.007231   0.000006  -0.000252
    26  H    0.000000   0.000126  -0.000701  -0.007173  -0.003904  -0.031025
    27  H    0.000000   0.000155  -0.000087   0.005870   0.005263  -0.034255
               7          8          9         10         11         12
     1  O    0.001014  -0.073839   0.000841   0.000106   0.000000  -0.000031
     2  C   -0.029228   0.333907  -0.031603  -0.019729   0.000297  -0.002272
     3  C   -0.008952  -0.126506  -0.000300  -0.018730   0.003109  -0.016166
     4  C   -0.002088  -0.003819  -0.070697   0.376511  -0.058028  -0.047411
     5  C   -0.049730  -0.007891  -0.003187  -0.017822   0.000118  -0.045246
     6  C    0.371131  -0.030556  -0.007688  -0.020105   0.003295   0.357223
     7  C    5.100312   0.341892  -0.042180  -0.016644   0.000152  -0.044308
     8  C    0.341892   5.242700   0.294066  -0.017370   0.004883  -0.009720
     9  C   -0.042180   0.294066   5.236612   0.381627  -0.067804  -0.069694
    10  C   -0.016644  -0.017370   0.381627   4.720338   0.323334   0.382370
    11  N    0.000152   0.004883  -0.067804   0.323334   6.983714  -0.060057
    12  C   -0.044308  -0.009720  -0.069694   0.382370  -0.060057   5.139775
    13  H   -0.000045   0.007031  -0.000071   0.003646  -0.000079   0.000135
    14  H   -0.000004   0.000590  -0.007463  -0.034113  -0.003860   0.005728
    15  H    0.000096  -0.000446   0.006445  -0.029179   0.001759  -0.006942
    16  H   -0.004369  -0.000027   0.000050   0.000265   0.000006   0.005001
    17  H    0.005263  -0.000293   0.000095  -0.001227  -0.000060  -0.003283
    18  H   -0.037859   0.004605   0.000058   0.004218  -0.000081  -0.037370
    19  H    0.367047  -0.039431   0.005229   0.000236   0.000006   0.004882
    20  H    0.360315  -0.031394  -0.005947  -0.001230  -0.000055  -0.003635
    21  H   -0.031494   0.340805  -0.026450   0.003145  -0.000103   0.000024
    22  H    0.005195  -0.034879   0.354839  -0.033640  -0.001222   0.005977
    23  H   -0.005993  -0.027140   0.348860  -0.032616  -0.001165  -0.005561
    24  H   -0.000002   0.000129  -0.003281  -0.033697   0.298899  -0.007156
    25  H    0.000005   0.000138  -0.003202  -0.033195   0.298159   0.007857
    26  H    0.004897  -0.000220   0.006468  -0.031628   0.001958   0.358460
    27  H   -0.003756  -0.000946  -0.006795  -0.035235  -0.003822   0.356778
              13         14         15         16         17         18
     1  O    0.004155   0.000726  -0.000077   0.000702  -0.000081  -0.000000
     2  C   -0.031739  -0.001055   0.003384  -0.000913   0.003594   0.000316
     3  C    0.345331  -0.037937  -0.027079  -0.039475  -0.030982   0.004572
     4  C   -0.030218   0.359874   0.354923   0.005115  -0.005518   0.000103
     5  C   -0.031419   0.005224  -0.006111   0.367099   0.361182  -0.037997
     6  C    0.004154   0.000017  -0.000365  -0.035290  -0.033140   0.368592
     7  C   -0.000045  -0.000004   0.000096  -0.004369   0.005263  -0.037859
     8  C    0.007031   0.000590  -0.000446  -0.000027  -0.000293   0.004605
     9  C   -0.000071  -0.007463   0.006445   0.000050   0.000095   0.000058
    10  C    0.003646  -0.034113  -0.029179   0.000265  -0.001227   0.004218
    11  N   -0.000079  -0.003860   0.001759   0.000006  -0.000060  -0.000081
    12  C    0.000135   0.005728  -0.006942   0.005001  -0.003283  -0.037370
    13  H    0.599457  -0.002920  -0.003803  -0.002370  -0.004021  -0.000144
    14  H   -0.002920   0.606546  -0.035360  -0.000161  -0.000067   0.000018
    15  H   -0.003803  -0.035360   0.580876  -0.000031   0.005404  -0.000099
    16  H   -0.002370  -0.000161  -0.000031   0.594820  -0.034969  -0.003227
    17  H   -0.004021  -0.000067   0.005404  -0.034969   0.596662  -0.003277
    18  H   -0.000144   0.000018  -0.000099  -0.003227  -0.003277   0.624779
    19  H   -0.000080  -0.000004   0.000001   0.004232   0.000012  -0.003313
    20  H    0.000023   0.000000  -0.000005   0.000015  -0.000201  -0.003277
    21  H   -0.000185  -0.000096   0.000025  -0.000081   0.000022  -0.000148
    22  H   -0.000090   0.004678  -0.000063  -0.000005   0.000001   0.000018
    23  H    0.000024  -0.000024  -0.000218   0.000001  -0.000005  -0.000097
    24  H    0.000004  -0.000150  -0.000167  -0.000000   0.000001  -0.000003
    25  H   -0.000002   0.005408  -0.000639  -0.000000   0.000001   0.000004
    26  H   -0.000076  -0.000085   0.005368  -0.000016   0.004324  -0.003596
    27  H    0.000017  -0.000181  -0.000097  -0.000165  -0.000064  -0.003816
              19         20         21         22         23         24
     1  O    0.000699  -0.000082   0.004226   0.000738  -0.000083   0.000000
     2  C   -0.000927   0.003508  -0.031788  -0.000969   0.003568  -0.000001
     3  C    0.000010  -0.000287   0.007177   0.000258  -0.000413  -0.000244
     4  C    0.000049   0.000099  -0.000189  -0.006357   0.006110   0.007759
     5  C   -0.004277   0.005251  -0.000067   0.000006   0.000130   0.000010
     6  C   -0.034640  -0.033363   0.004330  -0.000065  -0.000946  -0.000143
     7  C    0.367047   0.360315  -0.031494   0.005195  -0.005993  -0.000002
     8  C   -0.039431  -0.031394   0.340805  -0.034879  -0.027140   0.000129
     9  C    0.005229  -0.005947  -0.026450   0.354839   0.348860  -0.003281
    10  C    0.000236  -0.001230   0.003145  -0.033640  -0.032616  -0.033697
    11  N    0.000006  -0.000055  -0.000103  -0.001222  -0.001165   0.298899
    12  C    0.004882  -0.003635   0.000024   0.005977  -0.005561  -0.007156
    13  H   -0.000080   0.000023  -0.000185  -0.000090   0.000024   0.000004
    14  H   -0.000004   0.000000  -0.000096   0.004678  -0.000024  -0.000150
    15  H    0.000001  -0.000005   0.000025  -0.000063  -0.000218  -0.000167
    16  H    0.004232   0.000015  -0.000081  -0.000005   0.000001  -0.000000
    17  H    0.000012  -0.000201   0.000022   0.000001  -0.000005   0.000001
    18  H   -0.003313  -0.003277  -0.000148   0.000018  -0.000097  -0.000003
    19  H    0.593344  -0.035126  -0.002327  -0.000161  -0.000047  -0.000000
    20  H   -0.035126   0.602305  -0.004026  -0.000069   0.005791   0.000011
    21  H   -0.002327  -0.004026   0.602625  -0.003049  -0.004280  -0.000004
    22  H   -0.000161  -0.000069  -0.003049   0.605906  -0.036568  -0.000291
    23  H   -0.000047   0.005791  -0.004280  -0.036568   0.613208   0.005159
    24  H   -0.000000   0.000011  -0.000004  -0.000291   0.005159   0.469406
    25  H   -0.000000   0.000001  -0.000004   0.005431  -0.000341  -0.032169
    26  H   -0.000150  -0.000062   0.000019  -0.000184  -0.000120  -0.000573
    27  H   -0.000031   0.004641  -0.000083  -0.000070   0.005154   0.005588
              25         26         27
     1  O    0.000000   0.000000   0.000000
     2  C   -0.000018   0.000126   0.000155
     3  C   -0.000120  -0.000701  -0.000087
     4  C   -0.007231  -0.007173   0.005870
     5  C    0.000006  -0.003904   0.005263
     6  C   -0.000252  -0.031025  -0.034255
     7  C    0.000005   0.004897  -0.003756
     8  C    0.000138  -0.000220  -0.000946
     9  C   -0.003202   0.006468  -0.006795
    10  C   -0.033195  -0.031628  -0.035235
    11  N    0.298159   0.001958  -0.003822
    12  C    0.007857   0.358460   0.356778
    13  H   -0.000002  -0.000076   0.000017
    14  H    0.005408  -0.000085  -0.000181
    15  H   -0.000639   0.005368  -0.000097
    16  H   -0.000000  -0.000016  -0.000165
    17  H    0.000001   0.004324  -0.000064
    18  H    0.000004  -0.003596  -0.003816
    19  H   -0.000000  -0.000150  -0.000031
    20  H    0.000001  -0.000062   0.004641
    21  H   -0.000004   0.000019  -0.000083
    22  H    0.005431  -0.000184  -0.000070
    23  H   -0.000341  -0.000120   0.005154
    24  H   -0.032169  -0.000573   0.005588
    25  H    0.468998  -0.000147  -0.000150
    26  H   -0.000147   0.587011  -0.035313
    27  H   -0.000150  -0.035313   0.620516
 Mulliken charges:
               1
     1  O   -0.459285
     2  C    0.453268
     3  C   -0.169474
     4  C   -0.278627
     5  C   -0.280887
     6  C   -0.098082
     7  C   -0.280668
     8  C   -0.166270
     9  C   -0.288828
    10  C    0.180364
    11  N   -0.723351
    12  C   -0.265358
    13  H    0.143286
    14  H    0.134670
    15  H    0.152401
    16  H    0.143794
    17  H    0.140629
    18  H    0.127019
    19  H    0.144771
    20  H    0.136801
    21  H    0.141973
    22  H    0.134636
    23  H    0.127612
    24  H    0.290918
    25  H    0.291464
    26  H    0.146340
    27  H    0.120885
 Sum of Mulliken charges =  -0.00000
 Mulliken charges with hydrogens summed into heavy atoms:
               1
     1  O   -0.459285
     2  C    0.453268
     3  C   -0.026188
     4  C    0.008444
     5  C    0.003535
     6  C    0.028937
     7  C    0.000904
     8  C   -0.024297
     9  C   -0.026580
    10  C    0.180364
    11  N   -0.140969
    12  C    0.001867
 APT charges:
               1
     1  O   -0.638259
     2  C    0.694143
     3  C   -0.046775
     4  C    0.092659
     5  C    0.116047
     6  C    0.102724
     7  C    0.116975
     8  C   -0.055988
     9  C    0.066876
    10  C    0.306796
    11  N   -0.438080
    12  C    0.069986
    13  H   -0.047966
    14  H   -0.045913
    15  H   -0.030328
    16  H   -0.042563
    17  H   -0.045054
    18  H   -0.069315
    19  H   -0.041778
    20  H   -0.048429
    21  H   -0.052982
    22  H   -0.048034
    23  H   -0.053881
    24  H    0.113341
    25  H    0.113551
    26  H   -0.032962
    27  H   -0.054788
 Sum of APT charges =   0.00000
 APT charges with hydrogens summed into heavy atoms:
               1
     1  O   -0.638259
     2  C    0.694143
     3  C   -0.094741
     4  C    0.016417
     5  C    0.028429
     6  C    0.033409
     7  C    0.026768
     8  C   -0.108970
     9  C   -0.035039
    10  C    0.306796
    11  N   -0.211188
    12  C   -0.017765
 Electronic spatial extent (au):  <R**2>=           1644.4090
 Charge=             -0.0000 electrons
 Dipole moment (field-independent basis, Debye):
    X=             -2.1819    Y=              1.3242    Z=              0.9966  Tot=              2.7399
 Quadrupole moment (field-independent basis, Debye-Ang):
   XX=            -82.9544   YY=            -71.3001   ZZ=            -70.1794
   XY=              7.0397   XZ=             -4.3397   YZ=             -0.5807
 Traceless Quadrupole moment (field-independent basis, Debye-Ang):
   XX=             -8.1431   YY=              3.5112   ZZ=              4.6319
   XY=              7.0397   XZ=             -4.3397   YZ=             -0.5807
 Octapole moment (field-independent basis, Debye-Ang**2):
  XXX=            -15.1619  YYY=             -9.0036  ZZZ=             -0.0867  XYY=            -12.5555
  XXY=             12.2722  XXZ=             14.7683  XZZ=              1.9644  YZZ=             -1.3823
  YYZ=             -0.1695  XYZ=              2.6644
 Hexadecapole moment (field-independent basis, Debye-Ang**3):
 XXXX=          -1087.0949 YYYY=           -609.0505 ZZZZ=           -516.4360 XXXY=             50.2605
 XXXZ=            -53.4699 YYYX=             21.5971 YYYZ=             -0.0171 ZZZX=             -2.8216
 ZZZY=             -0.5393 XXYY=           -275.7729 XXZZ=           -249.6203 YYZZ=           -192.2981
 XXYZ=             -8.5312 YYXZ=             -1.2204 ZZXY=             -6.8278
 N-N= 7.801149403571D+02 E-N=-2.767668261824D+03  KE= 5.151890555780D+02
  Exact polarizability: 109.273  -1.401 100.505  -1.487   0.538  97.874
 Approx polarizability: 160.090  -9.448 149.139  -1.543   1.508 143.987
 Calling FoFJK, ICntrl=    100127 FMM=F ISym2X=0 I1Cent= 0 IOpClX= 0 NMat=1 NMatS=1 NMatT=0.
 Full mass-weighted force constant matrix:
 Low frequencies ---  -14.0268  -10.0335    0.0008    0.0008    0.0010   10.2128
 Low frequencies ---   97.6486  247.9913  268.6378
 Diagonal vibrational polarizability:
       13.8941852      18.5352203       8.7773346
 Harmonic frequencies (cm**-1), IR intensities (KM/Mole), Raman scattering
 activities (A**4/AMU), depolarization ratios for plane and unpolarized
 incident light, reduced masses (AMU), force constants (mDyne/A),
 and normal coordinates:
                      1                      2                      3
                      A                      A                      A
 Frequencies --     97.6439               247.9911               268.6376
 Red. masses --      7.6762                 2.2336                 1.3959
 Frc consts  --      0.0431                 0.0809                 0.0594
 IR Inten    --      3.7214                 1.9590                22.4000
  Atom  AN      X      Y      Z        X      Y      Z        X      Y      Z
     1   8     0.31   0.45  -0.00     0.00  -0.00  -0.02     0.00  -0.02  -0.06
     2   6     0.02  -0.01   0.00     0.00   0.00  -0.02     0.02   0.01  -0.02
     3   6    -0.07  -0.15   0.00    -0.01  -0.02  -0.01     0.02   0.04  -0.00
     4   6    -0.11  -0.05   0.02    -0.04   0.03  -0.06     0.06  -0.08   0.05
     5   6     0.03  -0.14  -0.01     0.13  -0.01   0.06    -0.04   0.04   0.01
     6   6     0.09  -0.08   0.00    -0.01  -0.00  -0.02    -0.02  -0.00   0.03
     7   6     0.03  -0.14   0.01    -0.14   0.01   0.06    -0.01  -0.03   0.02
     8   6    -0.07  -0.15   0.00     0.01   0.02  -0.01     0.01  -0.03  -0.00
     9   6    -0.11  -0.05  -0.01     0.05  -0.04  -0.06    -0.02   0.02   0.03
    10   6    -0.08   0.03  -0.00     0.00  -0.00  -0.01     0.01  -0.02  -0.00
    11   7    -0.13   0.16  -0.00    -0.01   0.00   0.18    -0.01   0.04  -0.04
    12   6     0.04   0.03  -0.00    -0.00  -0.01  -0.12    -0.00  -0.02  -0.04
    13   1    -0.09  -0.18   0.00    -0.01  -0.02  -0.01     0.02   0.07  -0.01
    14   1    -0.19  -0.06   0.04    -0.08   0.03  -0.15     0.16  -0.08   0.17
    15   1    -0.08  -0.03   0.00    -0.03   0.12  -0.03     0.03  -0.22   0.02
    16   1     0.07  -0.22  -0.03     0.18  -0.11   0.24    -0.06   0.07  -0.03
    17   1     0.04  -0.11  -0.00     0.31   0.10   0.00    -0.09   0.03   0.03
    18   1     0.18  -0.08   0.00    -0.01  -0.00  -0.04    -0.04  -0.00   0.07
    19   1     0.07  -0.22   0.04    -0.20   0.13   0.25    -0.02  -0.00   0.02
    20   1     0.04  -0.11   0.00    -0.33  -0.11   0.00    -0.01  -0.05   0.03
    21   1    -0.09  -0.18   0.00     0.02   0.03  -0.01     0.01  -0.04  -0.01
    22   1    -0.19  -0.06  -0.04     0.09  -0.04  -0.15    -0.07   0.02   0.10
    23   1    -0.08  -0.03  -0.00     0.04  -0.14  -0.03     0.01   0.10   0.02
    24   1    -0.10   0.22  -0.01     0.07   0.21   0.15    -0.18   0.56  -0.33
    25   1    -0.23   0.16   0.00    -0.03   0.01   0.42    -0.12   0.06   0.54
    26   1     0.07   0.07  -0.00     0.07  -0.08  -0.19     0.06  -0.04  -0.08
    27   1     0.07   0.07  -0.00    -0.07   0.07  -0.19    -0.07  -0.02  -0.08
                      4                      5                      6
                      A                      A                      A
 Frequencies --    279.6502               309.0355               356.6446
 Red. masses --      1.9057                 2.0909                 2.9773
 Frc consts  --      0.0878                 0.1176                 0.2231
 IR Inten    --      4.7307                13.2074                 6.8360
  Atom  AN      X      Y      Z        X      Y      Z        X      Y      Z
     1   8     0.00  -0.02   0.12    -0.00  -0.03  -0.02    -0.02   0.01   0.13
     2   6     0.02   0.01   0.04     0.04   0.03  -0.00    -0.02   0.01   0.02
     3   6     0.03  -0.02   0.00     0.01   0.00   0.01     0.06   0.11  -0.03
     4   6    -0.01   0.05  -0.06     0.04  -0.11   0.06     0.07  -0.01  -0.05
     5   6    -0.06  -0.02  -0.05    -0.06   0.00  -0.02    -0.07   0.12  -0.07
     6   6    -0.02  -0.00  -0.03    -0.02   0.02  -0.00     0.02   0.01   0.01
     7   6     0.00   0.03  -0.04    -0.09   0.02   0.04     0.07  -0.11  -0.05
     8   6     0.00   0.03  -0.00     0.03   0.02  -0.00    -0.08  -0.10  -0.01
     9   6     0.06  -0.11  -0.08     0.06  -0.09  -0.03    -0.07  -0.02  -0.06
    10   6     0.01  -0.02  -0.02     0.03  -0.01   0.01     0.01  -0.01  -0.06
    11   7    -0.02   0.06  -0.00    -0.05   0.19  -0.00    -0.01   0.01   0.21
    12   6    -0.00  -0.02   0.12     0.03  -0.01  -0.02     0.02  -0.00  -0.09
    13   1     0.04  -0.02   0.01     0.00   0.01   0.00     0.09   0.14  -0.01
    14   1    -0.10   0.05  -0.18     0.14  -0.11   0.21     0.18  -0.01  -0.00
    15   1     0.03   0.19  -0.04     0.04  -0.27   0.01     0.08  -0.10  -0.09
    16   1    -0.09   0.06  -0.13    -0.07   0.03  -0.11    -0.12   0.22  -0.23
    17   1    -0.13  -0.11  -0.04    -0.14  -0.04   0.01    -0.24   0.04  -0.00
    18   1    -0.03  -0.00  -0.06    -0.02   0.02  -0.01     0.02   0.01   0.14
    19   1     0.01   0.01  -0.07    -0.13   0.10   0.17     0.13  -0.24  -0.16
    20   1     0.02   0.07  -0.05    -0.22  -0.06  -0.00     0.22  -0.01  -0.00
    21   1    -0.01   0.06   0.01     0.04   0.04   0.00    -0.10  -0.14  -0.01
    22   1     0.20  -0.12  -0.25     0.14  -0.09  -0.14    -0.14  -0.02  -0.05
    23   1     0.02  -0.33  -0.03     0.06  -0.21   0.02    -0.10   0.02  -0.09
    24   1    -0.09   0.41  -0.17     0.15  -0.17   0.25     0.26  -0.09   0.42
    25   1    -0.12   0.07   0.37    -0.20   0.17  -0.56     0.01   0.00   0.11
    26   1    -0.15   0.04   0.24     0.03  -0.07  -0.04     0.12  -0.02  -0.16
    27   1     0.14  -0.11   0.24    -0.02  -0.02  -0.04    -0.08   0.01  -0.16
                      7                      8                      9
                      A                      A                      A
 Frequencies --    369.2566               394.4948               403.9071
 Red. masses --      5.7052                 4.4449                 2.1981
 Frc consts  --      0.4583                 0.4076                 0.2113
 IR Inten    --      0.3721                 0.5081                 2.0009
  Atom  AN      X      Y      Z        X      Y      Z        X      Y      Z
     1   8     0.24  -0.15   0.02    -0.01   0.01   0.03    -0.03   0.01  -0.00
     2   6     0.23  -0.14   0.01    -0.01   0.00   0.01    -0.02   0.01  -0.00
     3   6     0.11  -0.05   0.08    -0.09  -0.11   0.01    -0.02  -0.04  -0.02
     4   6     0.02   0.11   0.04    -0.07  -0.15  -0.17    -0.01   0.01   0.01
     5   6    -0.11  -0.04   0.06    -0.12  -0.09   0.15    -0.10  -0.06  -0.09
     6   6    -0.18  -0.00   0.01    -0.00  -0.00   0.19     0.09   0.01   0.01
     7   6    -0.07  -0.07  -0.07     0.14   0.10   0.13    -0.09  -0.04   0.11
     8   6     0.10  -0.07  -0.08     0.08   0.12   0.01    -0.01  -0.03   0.02
     9   6     0.01   0.12  -0.07     0.07   0.14  -0.16    -0.00   0.02  -0.03
    10   6    -0.08   0.15  -0.02     0.00  -0.02  -0.19     0.04   0.09  -0.01
    11   7    -0.03   0.02   0.04    -0.02   0.00   0.02     0.12  -0.07  -0.01
    12   6    -0.22   0.13  -0.03     0.00  -0.02  -0.04     0.04   0.12   0.01
    13   1     0.01   0.04  -0.03     0.00   0.02   0.01    -0.01  -0.07  -0.00
    14   1    -0.15   0.10   0.05    -0.09  -0.15  -0.10    -0.07   0.00   0.10
    15   1     0.17   0.18  -0.03     0.02  -0.17  -0.23    -0.01  -0.04  -0.00
    16   1    -0.19   0.15   0.04    -0.11  -0.12   0.04    -0.13   0.01  -0.39
    17   1    -0.15  -0.21   0.02    -0.21  -0.04   0.22    -0.36  -0.16   0.01
    18   1    -0.06   0.00   0.03    -0.02  -0.00   0.09     0.19   0.01   0.00
    19   1    -0.14   0.08  -0.12     0.15   0.11  -0.04    -0.13   0.04   0.40
    20   1    -0.04  -0.21   0.01     0.29   0.10   0.22    -0.35  -0.15   0.01
    21   1    -0.02  -0.01   0.03     0.01  -0.01   0.00    -0.01  -0.07   0.00
    22   1    -0.19   0.12  -0.06     0.11   0.14  -0.06    -0.05   0.02  -0.12
    23   1     0.14   0.22  -0.03    -0.02   0.18  -0.23    -0.01  -0.03  -0.02
    24   1     0.00  -0.10   0.10     0.12   0.04   0.09     0.03  -0.04  -0.07
    25   1     0.07   0.01  -0.05    -0.04   0.00   0.05     0.30  -0.06   0.16
    26   1    -0.18   0.13  -0.05     0.16   0.14  -0.08     0.06   0.16   0.01
    27   1    -0.25   0.13  -0.04    -0.16  -0.18  -0.08     0.07   0.12   0.02
                     10                     11                     12
                      A                      A                      A
 Frequencies --    445.2183               449.0571               476.9586
 Red. masses --      1.9535                 1.9711                 3.4114
 Frc consts  --      0.2281                 0.2342                 0.4572
 IR Inten    --      2.3015                 5.4020                 9.2237
  Atom  AN      X      Y      Z        X      Y      Z        X      Y      Z
     1   8    -0.00  -0.01   0.01     0.00   0.00   0.06    -0.00   0.00   0.25
     2   6     0.01   0.01  -0.02     0.00  -0.01  -0.08     0.00   0.00  -0.14
     3   6    -0.02   0.01   0.01     0.05  -0.01  -0.11    -0.07   0.00  -0.16
     4   6     0.01  -0.08   0.11     0.05  -0.06  -0.05    -0.09   0.01   0.05
     5   6     0.06   0.02   0.04     0.05  -0.00   0.00    -0.02   0.04   0.02
     6   6     0.02   0.06  -0.00    -0.01  -0.01  -0.01     0.00   0.00   0.06
     7   6     0.04   0.02  -0.03    -0.07  -0.01   0.01     0.02  -0.04   0.02
     8   6    -0.04   0.01  -0.06    -0.03   0.00  -0.09     0.07  -0.00  -0.16
     9   6    -0.01  -0.05  -0.12    -0.05   0.09   0.00     0.09  -0.01   0.06
    10   6    -0.07   0.07  -0.01     0.02  -0.02  -0.04    -0.00   0.00   0.10
    11   7    -0.03  -0.09   0.01    -0.00   0.02   0.04     0.01  -0.00  -0.07
    12   6    -0.03   0.10   0.04     0.00  -0.02   0.14     0.00   0.00  -0.06
    13   1    -0.06   0.01  -0.02     0.04   0.03  -0.13    -0.21   0.06  -0.28
    14   1     0.15  -0.08   0.43     0.11  -0.06   0.05    -0.10   0.01   0.04
    15   1     0.02  -0.43  -0.01     0.02  -0.17  -0.07    -0.23   0.02   0.14
    16   1     0.11  -0.08   0.16     0.06  -0.03   0.12     0.00  -0.01   0.04
    17   1     0.20   0.10  -0.01     0.14   0.09  -0.02    -0.02   0.17   0.06
    18   1     0.06   0.06  -0.01    -0.02  -0.01  -0.03     0.00   0.00   0.09
    19   1     0.07  -0.05  -0.08    -0.11   0.06   0.17    -0.00   0.01   0.05
    20   1     0.11   0.05   0.00    -0.21  -0.12  -0.02     0.01  -0.17   0.07
    21   1    -0.08  -0.01  -0.04    -0.01  -0.03  -0.12     0.22  -0.07  -0.28
    22   1     0.09  -0.05  -0.38    -0.17   0.10   0.25     0.11  -0.01   0.03
    23   1     0.00  -0.31  -0.01    -0.02   0.36  -0.08     0.23  -0.03   0.14
    24   1    -0.08  -0.08  -0.03     0.11  -0.00   0.13    -0.16  -0.01  -0.18
    25   1     0.13  -0.08   0.14    -0.03   0.02   0.00    -0.00  -0.00  -0.10
    26   1    -0.06   0.18   0.09    -0.23   0.13   0.35     0.19  -0.14  -0.23
    27   1     0.06   0.09   0.09     0.23  -0.20   0.35    -0.19   0.15  -0.24
                     13                     14                     15
                      A                      A                      A
 Frequencies --    523.1592               615.6517               635.0988
 Red. masses --      4.2548                 5.4906                 3.5459
 Frc consts  --      0.6861                 1.2261                 0.8427
 IR Inten    --      0.6299                 0.0419                 1.5380
  Atom  AN      X      Y      Z        X      Y      Z        X      Y      Z
     1   8    -0.06   0.07   0.00     0.19  -0.08  -0.01    -0.02   0.00  -0.05
     2   6    -0.14  -0.08  -0.00     0.05  -0.23  -0.02     0.00   0.02  -0.13
     3   6    -0.05  -0.07  -0.01    -0.10  -0.02   0.04     0.19  -0.09  -0.10
     4   6     0.03  -0.04  -0.02    -0.09  -0.08  -0.03     0.14   0.07   0.05
     5   6    -0.04  -0.06   0.11    -0.06   0.12   0.08    -0.00  -0.15   0.07
     6   6    -0.16   0.04   0.00     0.05   0.32   0.01    -0.01  -0.03   0.08
     7   6    -0.04  -0.05  -0.11    -0.06   0.16  -0.06     0.02   0.12   0.08
     8   6    -0.06  -0.06   0.00    -0.15   0.01  -0.06    -0.16   0.09  -0.10
     9   6     0.03  -0.04   0.02    -0.12  -0.10   0.04    -0.13  -0.04   0.03
    10   6     0.18   0.09   0.00     0.06  -0.10   0.02    -0.00   0.01   0.09
    11   7     0.30   0.13   0.00     0.05  -0.03   0.00    -0.01   0.01   0.04
    12   6    -0.08   0.05  -0.00     0.18   0.01   0.00    -0.01  -0.01   0.02
    13   1     0.04   0.02   0.02    -0.18   0.20  -0.11     0.13  -0.04  -0.16
    14   1    -0.03  -0.04   0.11    -0.12  -0.08  -0.22    -0.02   0.07  -0.09
    15   1    -0.05  -0.10   0.01    -0.15   0.09   0.06     0.16   0.24   0.10
    16   1    -0.00  -0.14   0.38    -0.03   0.03  -0.13    -0.09   0.04  -0.09
    17   1     0.22   0.03  -0.00    -0.15   0.02   0.08    -0.19  -0.23   0.14
    18   1    -0.04   0.04  -0.00    -0.07   0.32  -0.03     0.00  -0.03  -0.17
    19   1     0.00  -0.15  -0.38     0.00   0.02   0.11     0.09  -0.05  -0.10
    20   1     0.22   0.03   0.00    -0.08   0.08  -0.04     0.21   0.22   0.15
    21   1     0.04   0.02  -0.03    -0.21   0.21   0.06    -0.11  -0.00  -0.18
    22   1    -0.02  -0.04  -0.11    -0.11  -0.09   0.18     0.03  -0.04  -0.13
    23   1    -0.04  -0.11  -0.00    -0.19   0.01  -0.03    -0.13  -0.24   0.10
    24   1     0.29   0.13  -0.01     0.04  -0.01  -0.01     0.04  -0.02   0.08
    25   1     0.27   0.13  -0.02     0.06  -0.03   0.06     0.00   0.00   0.03
    26   1    -0.13  -0.07  -0.01     0.16  -0.08  -0.01     0.19  -0.13  -0.16
    27   1    -0.14  -0.05   0.00     0.09  -0.04  -0.03    -0.21   0.12  -0.16
                     16                     17                     18
                      A                      A                      A
 Frequencies --    714.7260               717.6868               789.5621
 Red. masses --      3.3341                 4.3420                 3.7122
 Frc consts  --      1.0035                 1.3177                 1.3635
 IR Inten    --      0.2374                 0.9294                 0.2076
  Atom  AN      X      Y      Z        X      Y      Z        X      Y      Z
     1   8    -0.08   0.08  -0.00    -0.06   0.03   0.00    -0.02  -0.07   0.00
     2   6    -0.13  -0.03  -0.00    -0.02   0.07   0.00     0.22   0.31  -0.00
     3   6     0.07  -0.03   0.12    -0.05   0.02   0.23    -0.04   0.02  -0.00
     4   6     0.11  -0.05  -0.09    -0.01   0.09   0.20    -0.05  -0.09  -0.04
     5   6    -0.02  -0.05   0.09    -0.02  -0.04   0.09    -0.09  -0.09   0.08
     6   6     0.03   0.15   0.00     0.03  -0.03  -0.00     0.02  -0.02   0.00
     7   6    -0.02  -0.05  -0.09    -0.01  -0.05  -0.09    -0.09  -0.09  -0.08
     8   6     0.06  -0.03  -0.12    -0.04   0.01  -0.23    -0.04   0.02   0.00
     9   6     0.11  -0.05   0.09    -0.00   0.09  -0.21    -0.05  -0.09   0.04
    10   6    -0.02  -0.04  -0.00     0.02  -0.04   0.00     0.01  -0.02   0.00
    11   7    -0.12  -0.05   0.00     0.05   0.02  -0.00     0.02  -0.01   0.00
    12   6    -0.00   0.15  -0.00     0.14  -0.17   0.00     0.08   0.12   0.00
    13   1     0.24   0.07   0.18    -0.18  -0.02   0.17    -0.02   0.13  -0.04
    14   1     0.09  -0.05  -0.23    -0.07   0.09   0.04    -0.18  -0.09  -0.24
    15   1     0.26   0.09  -0.13     0.11   0.27   0.20     0.00   0.16   0.01
    16   1    -0.05  -0.00  -0.06    -0.03  -0.02  -0.07    -0.01  -0.24   0.28
    17   1    -0.09  -0.26   0.05    -0.12  -0.23   0.09     0.11   0.15   0.06
    18   1     0.19   0.16  -0.00    -0.12  -0.04   0.01     0.24  -0.01   0.00
    19   1    -0.04  -0.01   0.05    -0.04  -0.01   0.08    -0.01  -0.25  -0.27
    20   1    -0.08  -0.25  -0.04    -0.14  -0.24  -0.09     0.11   0.14  -0.07
    21   1     0.24   0.07  -0.19    -0.17  -0.03  -0.16    -0.02   0.13   0.04
    22   1     0.09  -0.05   0.23    -0.07   0.10  -0.04    -0.18  -0.08   0.24
    23   1     0.24   0.09   0.12     0.12   0.27  -0.21     0.00   0.17  -0.01
    24   1    -0.10  -0.04   0.01     0.05   0.03  -0.01     0.01  -0.02  -0.01
    25   1    -0.15  -0.05   0.01     0.03   0.02  -0.01     0.06  -0.01   0.02
    26   1     0.00   0.15  -0.00     0.13  -0.18   0.01     0.10   0.15  -0.00
    27   1    -0.01   0.15  -0.00     0.14  -0.17   0.00     0.10   0.14  -0.00
                     19                     20                     21
                      A                      A                      A
 Frequencies --    802.7625               854.4897               891.5300
 Red. masses --      2.8154                 2.5611                 1.6816
 Frc consts  --      1.0690                 1.1018                 0.7875
 IR Inten    --      1.4721                 8.2472                65.1775
  Atom  AN      X      Y      Z        X      Y      Z        X      Y      Z
     1   8    -0.03  -0.01   0.00    -0.00   0.00   0.04    -0.01   0.00  -0.00
     2   6     0.05   0.12  -0.00    -0.00   0.00  -0.05    -0.00   0.02  -0.03
     3   6     0.00  -0.07   0.05    -0.10   0.10   0.02     0.03  -0.07   0.01
     4   6    -0.02  -0.04   0.05     0.06   0.11   0.03    -0.04   0.00   0.06
     5   6     0.07   0.00  -0.14    -0.07  -0.12   0.05     0.05   0.06  -0.00
     6   6    -0.05   0.21  -0.00    -0.00   0.00  -0.09    -0.04   0.01   0.04
     7   6     0.07   0.01   0.14     0.06   0.12   0.05    -0.07  -0.01   0.01
     8   6     0.01  -0.08  -0.05     0.10  -0.11   0.03     0.03   0.01   0.01
     9   6    -0.02  -0.04  -0.05    -0.06  -0.11   0.02     0.01  -0.03   0.06
    10   6     0.03  -0.06   0.00     0.01   0.01  -0.07     0.02   0.05  -0.07
    11   7     0.04   0.01   0.00    -0.03   0.00  -0.02    -0.08   0.01  -0.08
    12   6    -0.14   0.00  -0.00     0.00  -0.00  -0.04     0.05  -0.03  -0.06
    13   1    -0.01  -0.23   0.11    -0.23   0.22  -0.11    -0.04  -0.18   0.01
    14   1    -0.16  -0.04  -0.13     0.25   0.11   0.13    -0.18  -0.00   0.06
    15   1     0.05   0.18   0.08     0.08  -0.07  -0.05     0.02   0.06   0.05
    16   1     0.13  -0.13  -0.12    -0.02  -0.22   0.11     0.01   0.14  -0.15
    17   1     0.20  -0.07  -0.25     0.05  -0.10  -0.01    -0.11  -0.04   0.05
    18   1    -0.04   0.21  -0.00    -0.01  -0.00  -0.34    -0.13   0.01   0.14
    19   1     0.13  -0.12   0.13     0.02   0.22   0.09    -0.04  -0.06  -0.23
    20   1     0.19  -0.07   0.25    -0.04   0.11  -0.00     0.16   0.07   0.10
    21   1    -0.01  -0.24  -0.10     0.24  -0.23  -0.11     0.18   0.06  -0.06
    22   1    -0.17  -0.04   0.14    -0.27  -0.11   0.13    -0.02  -0.03   0.03
    23   1     0.05   0.19  -0.09    -0.08   0.09  -0.06     0.02  -0.03   0.07
    24   1     0.04   0.07  -0.02     0.23  -0.01   0.16     0.38  -0.13   0.30
    25   1    -0.10   0.01  -0.05     0.10  -0.00   0.18     0.36   0.01   0.38
    26   1    -0.24  -0.15   0.00    -0.08   0.01   0.02    -0.08   0.12   0.08
    27   1    -0.23  -0.13  -0.00     0.08  -0.03   0.02     0.17  -0.19   0.08
                     22                     23                     24
                      A                      A                      A
 Frequencies --    901.0870               904.5366               911.7254
 Red. masses --      1.7606                 1.5927                 1.9546
 Frc consts  --      0.8423                 0.7678                 0.9573
 IR Inten    --     11.9222                 6.2667                57.7001
  Atom  AN      X      Y      Z        X      Y      Z        X      Y      Z
     1   8    -0.02   0.01  -0.00    -0.00   0.00  -0.01     0.02  -0.01  -0.00
     2   6    -0.01   0.03   0.03    -0.00  -0.00   0.05     0.01  -0.03   0.01
     3   6     0.05  -0.05  -0.00     0.00  -0.01  -0.02    -0.09   0.01  -0.04
     4   6     0.01  -0.06  -0.02    -0.04   0.09  -0.04     0.11   0.05   0.04
     5   6    -0.08   0.05  -0.04     0.05  -0.02  -0.04    -0.07  -0.05  -0.07
     6   6    -0.04  -0.01  -0.00    -0.00   0.00   0.06     0.02   0.04   0.03
     7   6     0.08   0.04  -0.05    -0.05   0.03  -0.04     0.02  -0.09  -0.02
     8   6     0.07  -0.04  -0.02     0.00   0.01  -0.01    -0.06   0.08   0.03
     9   6    -0.09  -0.00  -0.01     0.04  -0.09  -0.05     0.04   0.06   0.01
    10   6    -0.01   0.06   0.04     0.01   0.00  -0.01     0.06  -0.04  -0.02
    11   7    -0.03   0.01  -0.02    -0.01  -0.00  -0.01    -0.08  -0.00  -0.06
    12   6     0.06  -0.03   0.08     0.01   0.00   0.11    -0.03   0.01   0.04
    13   1     0.23  -0.07   0.12     0.03  -0.16   0.06    -0.19  -0.00  -0.10
    14   1    -0.22  -0.07  -0.08     0.12   0.09   0.34     0.14   0.05  -0.10
    15   1     0.05   0.09   0.01    -0.07  -0.31  -0.15     0.10   0.13   0.08
    16   1    -0.05   0.00   0.33     0.02   0.04  -0.08     0.05  -0.31   0.17
    17   1     0.22   0.19  -0.15    -0.02  -0.04  -0.01     0.21   0.15  -0.15
    18   1    -0.18  -0.01   0.02    -0.01   0.00   0.03     0.16   0.05   0.12
    19   1    -0.03   0.28   0.23    -0.02  -0.04  -0.10     0.04  -0.14   0.17
    20   1    -0.23  -0.17  -0.14     0.03   0.05  -0.00    -0.08  -0.14  -0.06
    21   1     0.06  -0.10  -0.03    -0.03   0.14   0.06    -0.18   0.16   0.13
    22   1    -0.14  -0.01  -0.14    -0.13  -0.08   0.35     0.29   0.06  -0.01
    23   1    -0.04  -0.08   0.05     0.07   0.33  -0.19    -0.03  -0.08   0.02
    24   1     0.04  -0.11   0.08     0.06  -0.01   0.04     0.33  -0.03   0.24
    25   1     0.25   0.01   0.15     0.05  -0.00   0.08     0.05  -0.01   0.25
    26   1     0.29  -0.11  -0.10     0.31  -0.17  -0.14     0.07  -0.07  -0.05
    27   1    -0.14   0.11  -0.11    -0.30   0.17  -0.16    -0.22  -0.06  -0.06
                     25                     26                     27
                      A                      A                      A
 Frequencies --    941.4666               955.9349               978.0858
 Red. masses --      2.7388                 1.9523                 2.0251
 Frc consts  --      1.4303                 1.0511                 1.1415
 IR Inten    --      3.2061                22.5130                12.0347
  Atom  AN      X      Y      Z        X      Y      Z        X      Y      Z
     1   8    -0.01   0.01  -0.00     0.01  -0.01  -0.01     0.02  -0.02   0.01
     2   6    -0.03  -0.03   0.01     0.03   0.03   0.02     0.02   0.01  -0.01
     3   6     0.04  -0.02  -0.08     0.03   0.09   0.03    -0.08  -0.00   0.06
     4   6     0.04   0.01   0.04    -0.09  -0.03  -0.11     0.06   0.05  -0.09
     5   6    -0.09  -0.02  -0.00     0.02  -0.06   0.05    -0.00  -0.04  -0.09
     6   6    -0.09   0.05  -0.07     0.01   0.03  -0.07    -0.08   0.03   0.05
     7   6    -0.09   0.02   0.09     0.04  -0.03   0.04    -0.04  -0.03   0.04
     8   6    -0.04  -0.11   0.08    -0.08  -0.01  -0.05    -0.00   0.02  -0.05
     9   6     0.14   0.07  -0.11     0.05   0.05   0.05    -0.03   0.03   0.09
    10   6     0.06   0.02   0.07    -0.01   0.06   0.06    -0.07   0.08  -0.01
    11   7    -0.10  -0.04  -0.00    -0.02   0.04  -0.05     0.03  -0.00   0.05
    12   6     0.16   0.01  -0.00    -0.03  -0.08   0.01     0.11  -0.06   0.00
    13   1     0.10   0.04  -0.07     0.21   0.28   0.07    -0.12  -0.05   0.05
    14   1    -0.05   0.01  -0.02     0.01  -0.02   0.10     0.21   0.05   0.05
    15   1    -0.05   0.09   0.12    -0.19  -0.22  -0.12     0.27  -0.12  -0.27
    16   1    -0.07  -0.04   0.25    -0.01   0.00  -0.07     0.08  -0.24  -0.03
    17   1     0.13   0.09  -0.08    -0.03  -0.22   0.01     0.16  -0.08  -0.20
    18   1    -0.14   0.05  -0.19    -0.04   0.03  -0.23    -0.33   0.02   0.13
    19   1     0.01  -0.19  -0.25     0.10  -0.18   0.18    -0.01  -0.10  -0.13
    20   1     0.22   0.26   0.17     0.01  -0.09   0.05     0.18  -0.09   0.19
    21   1    -0.20  -0.29   0.11    -0.20  -0.06   0.01     0.12   0.09  -0.10
    22   1    -0.01   0.07   0.01     0.17   0.05  -0.04     0.01   0.02  -0.15
    23   1     0.24   0.21  -0.11     0.20  -0.07   0.18     0.02  -0.18   0.19
    24   1    -0.22  -0.08  -0.06     0.10  -0.15   0.11    -0.29  -0.02  -0.16
    25   1    -0.06  -0.04  -0.03     0.38   0.04   0.23     0.07   0.01  -0.14
    26   1     0.08  -0.08   0.01    -0.12  -0.28  -0.01     0.16   0.07   0.01
    27   1     0.24   0.11   0.00    -0.03  -0.01  -0.02     0.10  -0.06  -0.00
                     28                     29                     30
                      A                      A                      A
 Frequencies --    992.8346              1019.5909              1043.2572
 Red. masses --      2.5739                 2.0121                 2.0374
 Frc consts  --      1.4948                 1.2324                 1.3065
 IR Inten    --      1.5051                 4.3364                 1.0079
  Atom  AN      X      Y      Z        X      Y      Z        X      Y      Z
     1   8    -0.03   0.01   0.00    -0.00  -0.00  -0.01    -0.01  -0.01   0.00
     2   6     0.02   0.05  -0.01     0.01   0.01   0.02     0.02   0.04  -0.01
     3   6     0.04  -0.03  -0.11     0.08  -0.08  -0.03    -0.06  -0.11  -0.01
     4   6    -0.01   0.05  -0.00    -0.05   0.11   0.03     0.08   0.02  -0.03
     5   6     0.03  -0.08   0.08    -0.10   0.02   0.04    -0.03   0.08   0.05
     6   6     0.02   0.18   0.03    -0.02   0.04  -0.05     0.11   0.01  -0.01
     7   6    -0.02  -0.08  -0.10     0.09  -0.06   0.03    -0.01   0.05  -0.04
     8   6     0.11  -0.02   0.12    -0.05   0.06  -0.01    -0.06  -0.08   0.02
     9   6    -0.07   0.06  -0.03     0.02  -0.06   0.05     0.07  -0.01   0.02
    10   6     0.05   0.04   0.02    -0.01   0.00  -0.08    -0.05   0.09   0.00
    11   7    -0.05  -0.03   0.03     0.02  -0.02   0.03    -0.00   0.02   0.02
    12   6     0.02  -0.10   0.00     0.04  -0.01  -0.08    -0.07  -0.09  -0.01
    13   1     0.06   0.09  -0.14     0.08  -0.16   0.00    -0.15  -0.18  -0.04
    14   1    -0.00   0.05   0.16    -0.14   0.10   0.40    -0.08   0.01   0.04
    15   1    -0.17  -0.09   0.05    -0.01  -0.17  -0.09     0.42   0.03  -0.22
    16   1     0.03  -0.10  -0.18    -0.15   0.15   0.34     0.03  -0.06  -0.03
    17   1    -0.11  -0.18   0.12     0.10   0.09  -0.05    -0.15   0.34   0.22
    18   1     0.09   0.18   0.09    -0.08   0.03  -0.14     0.08   0.01  -0.00
    19   1    -0.06   0.01  -0.01     0.13  -0.15   0.33     0.06  -0.10   0.09
    20   1    -0.05  -0.16  -0.08    -0.06  -0.23   0.01    -0.15   0.29  -0.22
    21   1     0.20   0.15   0.13    -0.00   0.18   0.01    -0.08  -0.10   0.03
    22   1    -0.18   0.05  -0.31     0.13  -0.05   0.23    -0.10  -0.02   0.03
    23   1    -0.27  -0.13  -0.08    -0.08   0.04  -0.05     0.26   0.08   0.10
    24   1    -0.22  -0.02  -0.09    -0.04   0.09  -0.06    -0.17  -0.05  -0.07
    25   1    -0.11  -0.03  -0.10    -0.17  -0.02  -0.12     0.14   0.02  -0.02
    26   1    -0.10  -0.28   0.01    -0.08   0.13   0.04    -0.14  -0.18   0.01
    27   1    -0.10  -0.28   0.00     0.16  -0.13   0.05    -0.07  -0.14   0.01
                     31                     32                     33
                      A                      A                      A
 Frequencies --   1063.2294              1073.1771              1088.7766
 Red. masses --      1.9860                 1.7677                 1.7506
 Frc consts  --      1.3228                 1.1995                 1.2227
 IR Inten    --      8.6932                32.8899                 2.7870
  Atom  AN      X      Y      Z        X      Y      Z        X      Y      Z
     1   8     0.01   0.00  -0.00     0.00  -0.00  -0.02     0.01   0.01   0.00
     2   6    -0.02  -0.03   0.04     0.00   0.00   0.15    -0.05  -0.08  -0.02
     3   6    -0.06  -0.05  -0.01    -0.01   0.02  -0.08     0.07   0.09   0.02
     4   6     0.07  -0.01  -0.04     0.03   0.03  -0.00    -0.02  -0.05   0.05
     5   6    -0.02   0.05   0.03    -0.01  -0.06  -0.03    -0.06  -0.03  -0.06
     6   6     0.01  -0.03  -0.08     0.01  -0.00   0.09     0.08  -0.01   0.03
     7   6     0.01  -0.07   0.08     0.01   0.07  -0.03    -0.04   0.00   0.03
     8   6     0.08   0.13  -0.03    -0.00  -0.04  -0.09     0.02   0.07  -0.01
     9   6    -0.08  -0.05  -0.07    -0.02  -0.03   0.01     0.02  -0.06  -0.03
    10   6     0.02   0.02   0.11     0.00   0.00   0.02    -0.03   0.07  -0.02
    11   7    -0.02   0.02  -0.01    -0.00   0.00   0.00    -0.00   0.01   0.02
    12   6    -0.01   0.01  -0.02    -0.01  -0.00  -0.09    -0.03  -0.05  -0.02
    13   1    -0.00  -0.10   0.05     0.20  -0.13   0.12     0.22   0.34   0.01
    14   1     0.13  -0.01  -0.08     0.15   0.04  -0.04    -0.28  -0.05   0.00
    15   1     0.05  -0.01  -0.03    -0.32  -0.02   0.19     0.06   0.13   0.06
    16   1    -0.02   0.05  -0.01     0.05  -0.21  -0.05     0.05  -0.26   0.09
    17   1    -0.12   0.22   0.15    -0.07   0.29   0.13     0.18   0.07  -0.16
    18   1     0.08  -0.02  -0.13     0.02  -0.00   0.01     0.18  -0.01   0.10
    19   1     0.03  -0.11  -0.05    -0.05   0.21  -0.06     0.05  -0.20  -0.01
    20   1     0.21  -0.21   0.25     0.05  -0.23   0.11     0.04   0.20   0.00
    21   1     0.07   0.27   0.03    -0.22   0.08   0.10     0.22   0.28  -0.05
    22   1    -0.17  -0.05   0.05    -0.14  -0.03  -0.05    -0.23  -0.07   0.07
    23   1    -0.09   0.12  -0.14     0.35   0.02   0.21     0.03   0.15  -0.10
    24   1    -0.09  -0.10   0.00    -0.00  -0.01   0.01    -0.20  -0.06  -0.08
    25   1     0.17   0.02   0.08     0.01   0.00   0.00     0.16   0.02  -0.03
    26   1    -0.30  -0.38   0.02    -0.13   0.23   0.08    -0.05   0.01   0.01
    27   1     0.24   0.30   0.02     0.12  -0.24   0.09    -0.11  -0.28   0.02
                     34                     35                     36
                      A                      A                      A
 Frequencies --   1110.5361              1130.0006              1151.7120
 Red. masses --      1.5464                 1.2282                 1.1185
 Frc consts  --      1.1237                 0.9240                 0.8742
 IR Inten    --      0.5928                 1.1008                 0.7594
  Atom  AN      X      Y      Z        X      Y      Z        X      Y      Z
     1   8     0.02  -0.01  -0.00     0.00  -0.00   0.00     0.00  -0.00   0.00
     2   6     0.00  -0.00   0.01     0.00   0.01  -0.03     0.00   0.00  -0.02
     3   6     0.01  -0.01   0.06     0.01  -0.02   0.02    -0.02  -0.02   0.02
     4   6    -0.04   0.05  -0.03    -0.01   0.03  -0.03     0.00   0.00  -0.03
     5   6    -0.06   0.02  -0.02    -0.03  -0.00  -0.01    -0.00   0.01   0.00
     6   6     0.07  -0.01  -0.01    -0.01  -0.01   0.04    -0.01  -0.01   0.01
     7   6    -0.08   0.01   0.03     0.03   0.01  -0.01     0.02  -0.00   0.01
     8   6     0.02  -0.02  -0.07    -0.03   0.02   0.00    -0.00   0.03   0.00
     9   6    -0.04   0.07   0.04    -0.01  -0.03  -0.01    -0.00  -0.02  -0.02
    10   6     0.06  -0.04  -0.01     0.04  -0.00   0.06     0.04   0.01   0.04
    11   7    -0.01  -0.03  -0.01    -0.02   0.01  -0.00    -0.03   0.01   0.01
    12   6    -0.00  -0.01   0.02     0.01   0.02  -0.06     0.00   0.01  -0.03
    13   1     0.19  -0.17   0.25     0.10   0.11   0.02    -0.13  -0.20   0.03
    14   1     0.02   0.05   0.18    -0.03   0.03   0.15     0.40   0.02  -0.19
    15   1    -0.13  -0.14  -0.04     0.02  -0.09  -0.09    -0.24  -0.05   0.10
    16   1    -0.05   0.02   0.19     0.05  -0.18  -0.03    -0.14   0.34   0.20
    17   1     0.04   0.23  -0.00     0.09  -0.11  -0.12     0.10  -0.27  -0.15
    18   1     0.42   0.01  -0.07     0.10   0.00   0.54     0.16   0.00   0.10
    19   1    -0.04  -0.05  -0.21    -0.11   0.33  -0.11     0.07  -0.12   0.12
    20   1     0.09   0.21   0.05    -0.10   0.09  -0.11    -0.11   0.22  -0.15
    21   1     0.20  -0.17  -0.24    -0.15  -0.28  -0.04     0.02   0.01  -0.02
    22   1     0.03   0.06  -0.22     0.20  -0.01   0.19    -0.19  -0.02  -0.06
    23   1    -0.08  -0.17   0.10    -0.13   0.04  -0.11     0.10   0.05   0.02
    24   1     0.15   0.09   0.05    -0.08  -0.06  -0.02    -0.18  -0.10  -0.05
    25   1    -0.26  -0.04  -0.02     0.08   0.00   0.03     0.17   0.02   0.03
    26   1    -0.04  -0.18  -0.02    -0.27  -0.17   0.04     0.01   0.13   0.01
    27   1    -0.09  -0.07  -0.01     0.21   0.07   0.05    -0.10  -0.29   0.03
                     37                     38                     39
                      A                      A                      A
 Frequencies --   1168.5447              1176.3876              1220.5222
 Red. masses --      1.2489                 2.5176                 1.1136
 Frc consts  --      1.0048                 2.0527                 0.9774
 IR Inten    --      2.7154                 8.1619                 0.2958
  Atom  AN      X      Y      Z        X      Y      Z        X      Y      Z
     1   8    -0.00   0.01   0.00     0.01  -0.01   0.00    -0.02   0.01  -0.00
     2   6    -0.01  -0.01   0.00     0.02   0.02  -0.01    -0.01  -0.00   0.02
     3   6     0.04   0.04  -0.01    -0.05   0.05   0.05    -0.00  -0.00  -0.00
     4   6    -0.03  -0.01   0.03     0.00  -0.04  -0.01    -0.00  -0.01  -0.01
     5   6    -0.00  -0.03  -0.02     0.06   0.00  -0.02     0.01   0.01  -0.01
     6   6    -0.00   0.03   0.01    -0.04  -0.08   0.02    -0.01  -0.02  -0.01
     7   6    -0.02  -0.01  -0.01     0.04   0.04  -0.01     0.01  -0.00   0.02
     8   6     0.02  -0.02   0.01    -0.09  -0.03  -0.04     0.01   0.02  -0.01
     9   6    -0.00   0.00  -0.00     0.05  -0.02   0.05    -0.03  -0.02   0.02
    10   6    -0.09  -0.03  -0.02     0.25   0.12  -0.03     0.03   0.03  -0.02
    11   7     0.03   0.04   0.02    -0.11  -0.04   0.03    -0.00  -0.03  -0.00
    12   6     0.03  -0.00   0.01    -0.01   0.04   0.00     0.03   0.00   0.01
    13   1    -0.14  -0.20  -0.03    -0.09  -0.05   0.07    -0.25   0.17  -0.24
    14   1     0.12  -0.01  -0.12    -0.20  -0.04   0.05    -0.22  -0.02   0.09
    15   1     0.15   0.03  -0.07     0.06   0.08  -0.00     0.19   0.01  -0.12
    16   1    -0.08   0.16   0.12     0.03   0.05  -0.09    -0.08   0.23   0.09
    17   1    -0.02   0.12   0.05    -0.11   0.13   0.12     0.08  -0.21  -0.13
    18   1     0.39   0.05  -0.21     0.00  -0.08  -0.30     0.30  -0.00   0.06
    19   1    -0.12   0.24  -0.19    -0.01   0.15   0.03    -0.07   0.21  -0.12
    20   1     0.09  -0.19   0.13     0.02  -0.30   0.10     0.07  -0.10   0.10
    21   1    -0.08  -0.13   0.03     0.03   0.08  -0.07    -0.27   0.07   0.18
    22   1     0.33   0.02   0.19     0.07  -0.02   0.04    -0.19  -0.03  -0.08
    23   1    -0.16  -0.03  -0.08    -0.40  -0.01  -0.23     0.35   0.00   0.23
    24   1    -0.18  -0.10  -0.07    -0.40  -0.11  -0.12     0.09   0.08   0.02
    25   1     0.34   0.05   0.03    -0.03  -0.04  -0.08    -0.20  -0.03  -0.04
    26   1    -0.01  -0.09   0.00    -0.01  -0.03  -0.02    -0.04  -0.18  -0.01
    27   1    -0.11  -0.20  -0.01    -0.17  -0.25   0.02    -0.05  -0.09  -0.00
                     40                     41                     42
                      A                      A                      A
 Frequencies --   1244.6796              1266.6317              1292.1204
 Red. masses --      1.7673                 1.4918                 1.6983
 Frc consts  --      1.6131                 1.4101                 1.6706
 IR Inten    --      4.6400                 7.0231                 3.4240
  Atom  AN      X      Y      Z        X      Y      Z        X      Y      Z
     1   8     0.01  -0.01  -0.03    -0.00  -0.00  -0.02    -0.03   0.01  -0.01
     2   6     0.00   0.00   0.17    -0.00   0.00   0.13     0.01   0.03   0.04
     3   6    -0.03  -0.05  -0.05     0.07   0.04  -0.02     0.01  -0.11   0.03
     4   6     0.07   0.00   0.01    -0.05  -0.03   0.01     0.02   0.04  -0.03
     5   6     0.02   0.02   0.03    -0.01  -0.05  -0.02    -0.03   0.07  -0.01
     6   6    -0.01   0.00  -0.08    -0.00  -0.00   0.05     0.09  -0.03  -0.00
     7   6    -0.01  -0.04   0.03     0.01   0.05  -0.02    -0.05   0.06  -0.01
     8   6     0.01   0.06  -0.04    -0.07  -0.04  -0.02     0.00  -0.07  -0.02
     9   6    -0.05  -0.02   0.00     0.04   0.03   0.00     0.03   0.03  -0.00
    10   6    -0.00   0.04  -0.08    -0.00  -0.01  -0.01     0.00  -0.06   0.09
    11   7    -0.01   0.00   0.03    -0.00  -0.00  -0.01    -0.00   0.03  -0.01
    12   6     0.01  -0.00   0.04     0.00   0.01  -0.01    -0.06  -0.04  -0.02
    13   1    -0.07   0.30  -0.22    -0.43  -0.09  -0.29    -0.10   0.45  -0.28
    14   1    -0.11  -0.00   0.01     0.09  -0.02  -0.11     0.01   0.03   0.10
    15   1    -0.27   0.04   0.22     0.11  -0.01  -0.09    -0.05  -0.08  -0.03
    16   1     0.02   0.02  -0.10    -0.06   0.09   0.11    -0.01   0.03   0.05
    17   1    -0.03  -0.08   0.02     0.03   0.03  -0.01     0.15  -0.17  -0.20
    18   1    -0.02   0.00   0.11    -0.01   0.00   0.23     0.06  -0.03  -0.09
    19   1    -0.01  -0.03  -0.07     0.06  -0.09   0.12    -0.02   0.00  -0.08
    20   1    -0.03   0.13  -0.05    -0.02  -0.04  -0.00     0.17  -0.27   0.24
    21   1     0.20  -0.45  -0.36     0.43   0.10  -0.28     0.02   0.15   0.06
    22   1     0.30  -0.00   0.19    -0.12   0.02  -0.14     0.02   0.02  -0.04
    23   1     0.06   0.01   0.05    -0.10   0.00  -0.07    -0.28  -0.04  -0.17
    24   1    -0.15  -0.02  -0.06     0.05   0.01   0.02    -0.03  -0.08   0.02
    25   1     0.08   0.01  -0.05    -0.00  -0.00   0.02     0.12   0.02   0.06
    26   1     0.12   0.02  -0.03    -0.19  -0.26   0.01     0.17   0.40   0.00
    27   1    -0.17  -0.10  -0.03     0.19   0.26   0.01     0.01  -0.04   0.02
                     43                     44                     45
                      A                      A                      A
 Frequencies --   1297.5326              1324.2311              1332.9000
 Red. masses --      1.5946                 1.5873                 1.7633
 Frc consts  --      1.5818                 1.6399                 1.8458
 IR Inten    --      6.7370                 4.1886                 2.9724
  Atom  AN      X      Y      Z        X      Y      Z        X      Y      Z
     1   8    -0.00   0.01  -0.01    -0.01   0.01   0.00    -0.03   0.02   0.00
     2   6    -0.02  -0.02   0.05    -0.00   0.00   0.03    -0.01  -0.01  -0.03
     3   6     0.05   0.03   0.01    -0.05   0.05  -0.04     0.14  -0.02   0.07
     4   6    -0.06   0.01  -0.02     0.04  -0.01  -0.01    -0.07  -0.00  -0.00
     5   6     0.02  -0.03  -0.02     0.01  -0.03  -0.01    -0.06   0.02   0.01
     6   6    -0.05   0.01   0.01     0.03  -0.01   0.07     0.07  -0.01  -0.03
     7   6    -0.01  -0.03  -0.02    -0.04   0.05  -0.01    -0.02  -0.01   0.02
     8   6     0.05   0.08  -0.00     0.11  -0.08  -0.07     0.07  -0.01  -0.03
     9   6    -0.04  -0.00  -0.02    -0.08   0.02  -0.01    -0.05  -0.01   0.02
    10   6     0.06  -0.06   0.13     0.03  -0.00   0.00     0.08   0.02  -0.08
    11   7    -0.00   0.01  -0.02    -0.00   0.00   0.01    -0.02   0.00   0.02
    12   6    -0.00   0.03  -0.03    -0.01   0.01  -0.03    -0.03   0.02   0.03
    13   1    -0.20   0.04  -0.16    -0.02  -0.11   0.05    -0.40  -0.10  -0.24
    14   1    -0.10   0.00   0.14    -0.30  -0.02   0.13     0.31   0.01  -0.13
    15   1     0.41  -0.06  -0.32     0.08   0.03  -0.02    -0.19  -0.04   0.06
    16   1     0.04  -0.07  -0.07    -0.10   0.25   0.15     0.10  -0.34  -0.06
    17   1    -0.09   0.25   0.14     0.06  -0.19  -0.09     0.01   0.15   0.03
    18   1    -0.08   0.01  -0.14    -0.12  -0.02   0.01    -0.39  -0.04   0.03
    19   1     0.06  -0.19   0.08     0.14  -0.37   0.16    -0.02  -0.01  -0.08
    20   1    -0.08   0.13  -0.12    -0.03   0.24  -0.08     0.03   0.08   0.01
    21   1    -0.07  -0.35  -0.10    -0.16   0.17   0.20    -0.28   0.06   0.22
    22   1    -0.07  -0.00  -0.04     0.47   0.04   0.19     0.14  -0.00   0.05
    23   1     0.05   0.01   0.03    -0.09  -0.08   0.01     0.10  -0.04   0.11
    24   1     0.02  -0.06   0.03    -0.06  -0.03  -0.02    -0.15  -0.03  -0.06
    25   1    -0.02  -0.00   0.07     0.03   0.00  -0.01     0.08   0.01  -0.04
    26   1     0.12   0.34   0.02    -0.12  -0.07   0.01    -0.03  -0.10  -0.03
    27   1    -0.08  -0.26   0.03     0.10   0.07   0.02    -0.05   0.08  -0.01
                     46                     47                     48
                      A                      A                      A
 Frequencies --   1351.0420              1356.8986              1360.0341
[...]
 00120,0.00006669,0.00007217,0.00173048,0.00054783,-0.00070364,0.000099
 09,0.00002519,0.00012265,-0.00006831,0.00004705,0.00011616,-0.00000467
 ,0.00003739,-0.00003050,-0.00008641,0.00036991,-0.00005631,0.00115254,
 -0.00173177,0.00015811,-0.00002905,0.00085374,-0.00047006,-0.00029423,
 0.00092726,-0.00068962,-0.12887972,0.24117232,-0.00221964,0.00174283,0
 .00125932,-0.00088093,-0.00402275,-0.00539486,0.00034725,-0.00014864,0
 .00063182,-0.00021031,-0.00007586,0.00030210,-0.00004360,0.00007809,0.
 00026053,0.00084804,-0.00022576,-0.00107246,0.00223390,0.00082748,-0.0
 4928593,-0.01720940,0.02484757,-0.00415213,-0.00076972,0.00120087,0.00
 203290,0.00005667,-0.00006627,-0.00026761,0.00005797,-0.00002040,0.000
 02830,-0.00043011,0.00078523,0.00016963,0.00008574,0.00009786,0.000089
 89,0.00000135,-0.00004182,0.00001880,0.00006398,-0.00002170,-0.0000756
 6,-0.00036618,0.00031284,0.00024978,0.00001408,-0.00016549,0.00066093,
 0.00029576,-0.00016947,0.00007078,0.01517709,-0.02293007,0.00077466,0.
 00145526,-0.00048556,0.05259312,0.00221720,-0.00168438,-0.00004179,0.0
 1123073,0.01660680,0.00005879,-0.00211065,0.00290385,0.00002388,-0.000
 26536,0.00011176,0.00016810,-0.00029585,0.00017977,-0.00019653,-0.0011
 5702,0.00144145,-0.00372463,-0.01070710,-0.01454215,0.00007932,-0.1474
 4104,-0.13001924,-0.00056675,-0.01110111,-0.01491592,0.00021933,0.0001
 3855,0.00260226,0.00296257,-0.00124214,-0.00138752,0.00059228,0.000671
 79,0.00040447,-0.00007837,0.00065144,0.00092292,-0.00001479,0.00003380
 ,-0.00004005,-0.00001080,0.00004262,-0.00010855,-0.00004453,0.00004863
 ,-0.00004177,0.00001369,0.00008636,-0.00009581,0.00008414,-0.00058698,
 -0.00108094,-0.00005003,0.00083524,0.00029057,0.00002203,0.00016204,0.
 00024894,0.00060959,0.15766534,0.00037609,0.00586519,0.00002606,-0.021
 43993,-0.02647252,-0.00003732,0.00486104,-0.00322056,0.00003457,0.0004
 9163,0.00038377,-0.00047503,0.00047415,0.00030374,0.00050603,0.0005374
 8,0.00100509,0.00031110,0.00177454,0.00244619,-0.00045506,-0.12522929,
 -0.21556099,-0.00070078,0.00172387,0.00253310,0.00063716,0.00056216,0.
 00085974,-0.00037735,0.00009765,0.00016970,-0.00017870,0.00012011,0.00
 004203,0.00000958,-0.00092392,-0.00146985,-0.00004484,-0.00000988,-0.0
 0000337,0.00010710,-0.00012784,0.00002001,0.00010183,-0.00001499,-0.00
 000819,-0.00010521,-0.00012583,0.00002758,-0.00009704,0.00006830,0.000
 14791,0.00011708,-0.00010310,0.00006672,-0.00047404,-0.00023601,0.0005
 6152,-0.00044909,0.13750128,0.23169628,0.00005727,0.00006937,-0.001188
 85,-0.00015227,-0.00015654,-0.00014312,0.00013645,0.00020135,0.0013297
 1,-0.00001567,-0.00057180,0.00002120,-0.00015767,0.00066535,-0.0000509
 7,-0.00259410,0.00167046,-0.00493316,-0.01654133,-0.02290970,0.0002932
 3,-0.00034436,-0.00044639,-0.04930368,0.01714466,0.02361832,0.00026260
 ,0.00095984,-0.00314880,-0.00412443,0.00219270,0.00201337,-0.00086440,
 0.00003850,0.00004351,-0.00053560,-0.00001597,0.00003513,0.00023983,-0
 .00001988,0.00002631,0.00000364,-0.00010513,0.00012706,0.00003888,0.00
 002921,-0.00002208,-0.00000304,0.00013418,-0.00012260,0.00008593,-0.00
 110309,-0.00146601,0.00005859,0.00093380,-0.00022115,0.00088507,0.0005
 2243,0.00046753,0.00097995,0.00055374,0.00061336,0.05461080,0.00012504
 ,-0.00043898,-0.00027171,0.00134841,-0.00002492,0.00039655,0.00001519,
 -0.00000903,0.00009331,0.00014377,0.00132810,0.00019655,-0.00001995,0.
 00004918,-0.00006957,-0.00033516,-0.00014293,0.00049142,-0.00270573,0.
 00038075,0.00336630,0.01211290,0.00074577,0.01729169,-0.13221208,0.000
 60629,-0.11930137,-0.01222280,0.00001684,-0.01695114,0.00170421,0.0014
 6594,-0.00019562,-0.00187472,-0.00422165,0.00126214,0.00003497,0.00001
 502,-0.00001949,0.00067558,-0.00032563,0.00036143,0.00002827,0.0000624
 5,0.00029706,0.00008521,-0.00007526,-0.00001961,-0.00001375,0.00006974
 ,0.00000180,0.00012815,0.00009705,-0.00012858,0.00087068,-0.00002979,0
 .00114581,-0.00002979,-0.00017811,0.00003863,0.00087466,-0.00010126,-0
 .00091840,0.14286168,-0.00009467,0.00008370,0.00012016,-0.00028106,-0.
 00012611,-0.00077668,0.00019566,-0.00016436,0.00011205,-0.00087099,0.0
 0162693,-0.00101533,-0.00006843,0.00018057,0.00000974,-0.00017443,-0.0
 0000998,0.00049195,-0.00009822,0.00053174,0.00072040,0.00081597,-0.000
 57823,-0.00002106,0.00056365,-0.05097506,-0.00145923,-0.01639483,-0.00
 167586,-0.02331345,0.00217651,0.00112618,-0.00099483,-0.00253553,-0.00
 468165,0.00115548,0.00004307,-0.00000484,-0.00002453,0.00034517,-0.000
 45248,0.00052132,0.00009512,0.00032229,0.00028440,0.00007763,-0.000069
 43,0.00003050,-0.00000061,0.00004491,0.00004227,0.00012244,0.00005417,
 -0.00005210,0.00000428,0.00043198,0.00027243,-0.00040413,0.00020816,-0
 .00042976,0.00034647,0.00007783,0.00020535,0.00213526,0.05284743,0.001
 50889,-0.00017127,0.00049398,-0.00270314,0.00122994,-0.00065902,0.0002
 1432,-0.00022024,-0.00035301,-0.00009546,0.00037220,-0.00011365,-0.000
 24189,0.00009761,-0.00000132,0.00027682,0.00042294,0.00029680,0.005179
 62,-0.00020658,-0.00352319,-0.01391025,-0.00135823,-0.02119653,-0.1188
 6658,-0.00185967,-0.21766418,0.00025175,0.00033937,-0.00192099,0.00035
 914,-0.00009117,0.00219068,0.00071687,-0.00032153,0.00139226,-0.000013
 81,-0.00010909,0.00001355,0.00036035,-0.00049921,0.00041781,0.00018179
 ,-0.00006507,0.00026489,0.00003306,0.00003723,0.00006814,0.00004768,-0
 .00011554,0.00001789,-0.00006492,-0.00009934,-0.00000646,-0.00117739,-
 0.00023710,-0.00148393,0.00018064,0.00005513,0.00040333,-0.00001421,0.
 00045522,0.00089567,0.12837105,0.00193259,0.23936271,-0.00145881,0.001
 43671,-0.00064201,-0.00008200,-0.00429410,0.00372796,-0.00015837,0.000
 24310,-0.00050113,-0.00186248,-0.00297692,-0.00000126,-0.00021229,-0.0
 0006536,-0.00021488,-0.00005181,-0.00007445,0.00030597,0.00067839,-0.0
 0045340,-0.00184749,-0.01274352,0.01781127,0.00332926,-0.13071484,0.11
 892550,-0.00133361,0.00977173,-0.01634952,0.00029203,0.00208575,0.0001
 8187,-0.00159288,0.00118373,-0.00024690,0.00030479,0.00005714,0.000145
 36,-0.00010792,0.00002563,-0.00011206,0.00018759,0.00091909,-0.0010083
 3,-0.00000753,-0.00000120,-0.00001176,-0.00004203,0.00007512,0.0000121
 3,0.00007258,0.00008671,0.00005543,-0.00004605,-0.00001780,-0.00040341
 ,-0.00016428,0.00086494,-0.00029393,0.00062336,0.00016081,-0.00023502,
 -0.00049602,-0.01077172,0.01545968,0.00004612,0.14227288,0.00010447,-0
 .00007796,-0.00020961,-0.00035787,0.00092488,0.00050294,-0.00027970,0.
 00065737,0.00024323,-0.00555239,-0.00354208,0.00005399,0.00012328,0.00
 001995,0.00026615,-0.00020279,-0.00008407,-0.00025107,-0.00011957,0.00
 013362,0.00015204,-0.00049765,0.00163371,0.00041178,0.11776615,-0.2171
 0215,-0.00165735,0.01697198,-0.02407945,-0.00084227,0.00075765,0.00257
 734,-0.00081200,0.00171174,0.00046573,0.00105149,0.00011218,0.00001082
 ,-0.00012575,-0.00006099,0.00034444,0.00006820,0.00111586,-0.00183369,
 -0.00011606,-0.00007946,0.00004653,-0.00010718,-0.00002078,0.00003619,
 0.00001965,0.00000274,0.00001127,-0.00005970,-0.00019512,0.00020567,-0
 .00005682,-0.00026761,0.00009928,-0.00061690,0.00026635,0.00054609,-0.
 00050400,-0.00033888,0.00074031,0.00046604,-0.12846737,0.23731780,0.00
 218175,-0.00173756,0.00123713,0.00092226,0.00398589,-0.00529633,-0.000
 34774,0.00002458,0.00062390,-0.00000506,0.00012784,0.00004039,0.000222
 65,0.00006510,0.00030023,-0.00011358,0.00010118,-0.00025184,0.00072434
 ,-0.00122142,0.00207273,0.01703412,-0.02444045,-0.00413524,-0.00161537
 ,-0.00175731,-0.04876529,-0.00007092,-0.00037789,-0.00121672,-0.000778
 01,0.00019002,0.00005164,0.00048522,-0.00083276,0.00009606,-0.00006188
 ,-0.00010582,0.00004300,0.00031507,-0.00029290,0.00026760,-0.00001583,
 0.00007884,0.00068652,-0.00000103,0.00004478,0.00000921,-0.00006759,0.
 00002594,-0.00007840,-0.00007388,-0.00004849,-0.00001492,-0.00002696,0
 .00040117,0.00038678,-0.00059406,0.00068895,-0.00033467,-0.00056417,0.
 00045858,0.00091737,-0.01519918,0.02261710,0.00067426,-0.00228823,0.00
 163752,0.05240846,0.00018934,-0.00041436,0.00008214,0.00000175,0.00107
 823,-0.00036208,-0.00011899,0.00121382,-0.00040617,-0.00179710,-0.0019
 8408,0.00414947,-0.00000174,-0.00004830,0.00007063,-0.00031889,-0.0000
 9068,-0.00014279,0.00010585,0.00006545,0.00013933,0.00063991,-0.000261
 55,0.00015987,0.00063440,0.00128231,-0.00185236,-0.01799663,0.02086339
 ,0.00293901,-0.14311137,0.15774224,0.00203806,0.00143676,-0.00072474,-
 0.00083236,-0.00023277,-0.00010079,0.00034864,0.00024205,-0.00033475,-
 0.00004317,0.00015480,0.00022736,0.00005267,0.00004303,0.00000663,0.00
 005518,0.00000121,-0.00004193,0.00000405,0.00001780,-0.00005630,-0.000
 08354,-0.00006241,-0.00004213,-0.00009401,-0.00001558,-0.00002360,0.00
 003967,0.00013382,-0.00002327,-0.00023588,-0.00030835,-0.00010797,0.00
 001090,-0.00006017,-0.00122254,0.00038126,0.17431303,0.00024637,0.0001
 0839,0.00010146,-0.00023951,-0.00025868,-0.00022089,0.00048002,-0.0000
 6704,0.00063451,0.00047979,0.00122365,-0.00213594,-0.00002097,-0.00004
 337,0.00019894,-0.00011003,0.00015761,-0.00023497,0.00006221,0.0000595
 4,0.00013242,0.00000708,-0.00012155,0.00008471,-0.00123936,0.00209535,
 0.00044556,-0.00772061,-0.00305822,0.00369843,0.21194018,-0.28164220,-
 0.00343182,-0.00016356,0.00033840,0.00000875,0.00014136,0.00000668,-0.
 00027201,-0.00017209,0.00004179,0.00017030,-0.00014029,0.00046545,0.00
 019238,-0.00008220,0.00005043,-0.00007367,-0.00003371,-0.00000783,0.00
 000168,-0.00004024,0.00001876,-0.00002294,-0.00004372,-0.00004622,-0.0
 0003732,-0.00001512,0.00002351,0.00000258,-0.00000422,0.00002858,-0.00
 007568,-0.00003882,-0.00004206,-0.00003191,0.00052088,0.00010951,0.000
 12702,-0.19724317,0.28324361,0.00003798,0.00026570,0.00003355,-0.00015
 138,-0.00069449,0.00005790,0.00134925,-0.00152542,0.00047183,0.0029639
 5,0.00143336,-0.00553778,-0.00003504,-0.00018406,0.00061150,-0.0000734
 6,0.00052453,-0.00017448,0.00006812,0.00005012,0.00011362,-0.00024915,
 0.00010178,-0.00005310,-0.00025181,-0.00062322,0.00049471,0.01909519,-
 0.02884337,-0.00059124,0.00677261,-0.00779927,-0.06414153,0.00110535,-
 0.00183195,0.00143869,0.00034451,0.00005981,-0.00062099,0.00026006,0.0
 0009639,0.00024175,-0.00025054,0.00021504,-0.00011643,-0.00013812,0.00
 013146,-0.00003220,-0.00001696,-0.00001349,-0.00002745,-0.00005530,0.0
 0001551,0.00005090,-0.00007602,-0.00003358,0.00000919,-0.00000084,0.00
 005975,-0.00005124,-0.00005164,0.00002482,0.00000404,-0.00019532,0.000
 19010,-0.00001723,-0.00003706,0.00074791,0.00020117,-0.00794804,0.0052
 6468,0.06658420,0.00012913,-0.00002137,-0.00000318,-0.00017411,0.00004
 519,-0.00000248,-0.00008923,-0.00012518,-0.00016847,0.00172071,-0.0003
 7529,0.00095079,0.00025660,-0.00009013,-0.00009165,0.00057454,0.000109
 77,0.00106021,0.00027516,0.00008637,-0.00011021,-0.00015424,0.00008506
 ,-0.00014471,0.00141690,0.00040791,0.00154860,0.01093674,-0.00257817,0
 .02369021,-0.16855999,0.02577092,-0.17765264,-0.00173307,-0.00013699,0
 .00227352,0.00003281,-0.00000562,-0.00003166,-0.00040760,0.00004106,-0
 .00056773,-0.00013144,-0.00007787,-0.00023137,-0.00001205,-0.00001493,
 -0.00007036,-0.00001444,0.00000351,0.00001501,-0.00017567,-0.00000605,
 0.00022838,-0.00000678,0.00001373,-0.00007953,-0.00000842,-0.00001376,
 0.00002158,0.00003951,0.00000396,-0.00004795,-0.00031272,0.00004270,-0
 .00057011,-0.00011797,-0.00000495,-0.00018863,-0.01437191,-0.00649541,
 -0.02164452,0.17089858,0.00015616,-0.00039890,0.00001037,-0.00023330,0
 .00101596,0.00003980,0.00026446,-0.00040469,0.00036498,-0.00097468,0.0
 0046311,-0.00170255,-0.00035267,0.00012082,0.00015626,-0.00024467,0.00
 082735,-0.00029473,0.00030382,-0.00007073,-0.00018338,-0.00010254,0.00
 002005,-0.00030562,0.00177433,0.00011363,0.00076187,-0.00328426,-0.003
 80832,0.00624993,-0.00213769,-0.02701045,-0.04045196,0.00062206,-0.000
 18199,-0.00083542,0.00002723,-0.00005413,-0.00000374,0.00089238,0.0001
 7380,0.00029587,-0.00013499,-0.00034381,-0.00030596,0.00008441,-0.0000
 0586,0.00008586,-0.00002025,-0.00003513,-0.00001462,0.00009688,-0.0000
 7536,-0.00018072,-0.00000211,0.00005105,-0.00011823,0.00000035,-0.0000
 2798,0.00003598,0.00013072,-0.00003679,-0.00014314,-0.00065378,0.00014
 336,-0.00013559,0.00002109,-0.00024706,0.00020112,0.02037032,-0.002628
 93,0.03127243,-0.01665812,0.03200449,-0.00011298,0.00004436,-0.0000382
 4,0.00011969,-0.00012622,0.00005465,0.00032650,0.00022801,0.00017278,-
 0.00104769,0.00013159,0.00076949,-0.00028992,0.00017481,0.00004492,-0.
 00230851,0.00002458,-0.00084508,-0.00028268,-0.00019524,0.00000162,0.0
 0003158,-0.00038040,0.00026771,-0.00139222,0.00001501,0.00164355,-0.02
 160576,-0.00285652,-0.02849200,-0.15636936,0.00125514,-0.29296080,0.00
 690169,0.00006377,-0.00446846,-0.00000702,0.00001256,0.00010384,0.0010
 2052,-0.00078370,0.00037709,0.00009378,0.00003090,-0.00001081,0.000150
 17,-0.00010116,0.00009397,0.00002275,-0.00000798,0.00001411,0.00053892
 ,0.00000513,-0.00065025,0.00015669,0.00011282,0.00009486,0.00002596,0.
 00001544,0.00001277,-0.00006273,-0.00001476,0.00017880,0.00103946,0.00
 085466,0.00037670,0.00010906,0.00010520,0.00000049,0.00127106,-0.00367
 622,0.00180575,0.17149718,0.00498560,0.32074737,-0.00000871,0.00037868
 ,-0.00000617,0.00021697,-0.00096730,-0.00000172,-0.00011056,0.00050678
 ,-0.00003239,0.00017200,-0.00150446,0.00073641,0.00027992,-0.00135611,
 -0.00072548,-0.01140987,-0.01431903,0.00001297,-0.00092318,0.00156089,
 0.00355395,0.00042342,0.00037606,-0.00011280,-0.00141519,0.00160714,-0
 .00358987,-0.01369715,-0.01684703,-0.00048072,0.00155348,0.00083465,0.
 00153013,-0.13827730,-0.12041762,0.00094662,-0.00005870,0.00003849,0.0
 0001163,0.00039906,0.00024265,0.00002477,-0.00014970,0.00097794,-0.000
 28219,0.00041004,0.00019305,0.00000154,-0.00006296,0.00089348,0.000203
 66,0.00078889,0.00035807,0.00000764,-0.00050436,-0.00100354,-0.0000310
 8,0.00010260,-0.00025505,-0.00002008,-0.00003147,0.00001973,0.00004666
 ,-0.00059801,-0.00113570,-0.00009820,0.00013916,-0.00023192,0.00000730
 ,-0.00004036,0.00008054,-0.00007321,-0.00001916,0.00030599,0.00014099,
 0.15032199,-0.00016865,0.00015037,0.00000413,0.00024453,-0.00037585,-0
 .00001086,-0.00013895,0.00003096,0.00001941,0.00077705,0.00056181,0.00
 030025,0.00059469,0.00063264,-0.00031349,0.00126391,0.00013632,0.00046
 918,0.00052741,0.00097997,0.00044163,0.00011252,0.00009985,-0.00008162
 ,0.00007482,0.00105434,-0.00064900,-0.00019683,-0.00139414,0.00032175,
 0.00090422,0.00039186,0.00022091,-0.12174882,-0.22055662,0.00159188,0.
 00000085,0.00001761,0.00000336,0.00002407,0.00015409,-0.00010571,-0.00
 007010,0.00048888,0.00011183,0.00004480,0.00019375,0.00009967,-0.00017
 996,0.00052043,-0.00006717,-0.00004502,0.00011423,0.00052994,-0.000288
 27,0.00016414,-0.00009403,0.00012095,0.00042282,-0.00012362,-0.0000448
 2,-0.00003192,0.00002161,-0.00036656,0.00015537,-0.00000944,0.00012775
 ,0.00044043,0.00014049,-0.00036004,-0.00035411,-0.00000621,0.00025887,
 0.00023223,-0.00011446,0.13374309,0.23704398,-0.00002163,-0.00002270,-
 0.00001761,0.00002603,0.00006637,-0.00005832,0.00002752,-0.00005921,-0
 .00023696,0.00065677,-0.00106216,0.00090067,-0.00064002,0.00101323,0.0
 0109514,0.01681216,0.02340526,0.00013942,0.00316163,-0.00136978,-0.005
 00440,0.00015064,0.00011886,-0.00042314,-0.00279841,0.00098392,-0.0052
 3036,-0.01708689,-0.02340592,-0.00055640,0.00036596,-0.00002309,0.0020
 8523,0.00228558,0.00310230,-0.04745963,-0.00000134,-0.00000348,0.00007
 553,0.00033436,0.00003415,-0.00003401,0.00000299,0.00065345,0.00010752
 ,-0.00043772,0.00003015,-0.00007767,-0.00006474,-0.00069781,0.00009234
 ,-0.00085961,0.00018280,0.00095970,0.00137509,0.00141742,0.00008989,-0
 .00024437,-0.00028777,-0.00001712,0.00002684,-0.00000066,0.00025747,-0
 .00145028,-0.00146773,0.00007964,0.00019034,0.00022765,-0.00000096,-0.
 00011387,-0.00021157,-0.00011857,0.00015257,0.00036527,0.00034310,-0.0
 0165273,-0.00271031,0.05319581,-0.00002935,-0.00040070,-0.00000411,0.0
 0023649,0.00102824,0.,0.00042560,-0.00039578,-0.00006506,-0.00114489,-
 0.00175638,-0.00369565,-0.00106680,-0.00162737,0.00378486,-0.01195779,
 0.01507432,0.00022526,0.00027452,0.00141214,-0.00075916,-0.00008173,-0
 .00051078,0.00000729,0.00034016,0.00152787,0.00063715,-0.01332493,0.01
 666703,-0.00009104,0.00081725,-0.00068636,0.00126412,-0.13491079,0.115
 89294,0.00015919,-0.00002044,-0.00002231,0.00003260,-0.00063434,0.0011
 3559,-0.00005451,0.00009173,0.00022216,0.00002573,-0.00058484,0.001060
 34,-0.00003428,0.00011303,0.00022500,-0.00002676,0.00083609,-0.0003620
 7,-0.00002194,0.00041075,-0.00019573,0.00000846,-0.00003850,-0.0009395
 7,0.00018008,-0.00005382,-0.00004166,-0.00000174,0.00039608,-0.0002570
 7,0.00001696,-0.00006810,-0.00103283,-0.00026185,0.00052250,-0.0001554
 1,-0.00074858,0.00000813,-0.00025113,0.00003289,0.01249916,-0.01521151
 ,-0.00019689,0.14694483,0.00020258,0.00019448,-0.00000993,-0.00031627,
 -0.00048388,0.00003168,-0.00010913,0.00009527,0.00003736,-0.00022989,0
 .00123768,0.00075069,-0.00039647,0.00112790,-0.00076072,-0.00078610,-0
 .00074635,-0.00021447,-0.00062951,0.00051979,0.00032334,0.00008081,0.0
 0008585,-0.00004801,-0.00079523,0.00043693,-0.00014346,0.00015212,-0.0
 0173756,-0.00053337,-0.00060911,0.00039203,0.00005521,0.11715772,-0.21
 382920,-0.00095914,0.00005694,-0.00003255,-0.00001335,0.00042272,0.000
 12299,0.00000133,-0.00013791,0.00043719,-0.00016859,0.00039389,0.00007
 496,0.00009431,-0.00013988,0.00044216,0.00013731,0.00001122,0.00012353
 ,-0.00053409,-0.00002642,0.00023556,-0.00010387,0.00017841,0.00057751,
 0.00006184,0.00000774,0.00002311,0.00000981,-0.00002678,0.00020512,0.0
 0012272,0.00005176,0.00064553,-0.00010152,0.00023042,0.00029894,0.0011
 0167,-0.00026521,0.00016427,0.00019709,0.01592055,-0.02127345,-0.00027
 863,-0.13039897,0.23066219,0.00000044,0.00003159,-0.00002388,-0.000007
 29,-0.00009095,-0.00004651,0.00012398,-0.00009994,-0.00042309,-0.00280
 683,-0.00096518,-0.00514214,0.00323615,0.00147641,-0.00518259,0.017344
 82,-0.02382117,-0.00002207,-0.00068240,-0.00105454,0.00107224,-0.00000
 391,0.00006198,-0.00026430,0.00080923,0.00108887,0.00091628,-0.0166120
 5,0.02350573,-0.00077220,-0.00069089,0.00044066,0.00222094,0.00014242,
 -0.00069484,-0.04818308,0.00003056,0.00000612,0.00027285,-0.00140671,0
 .00144934,0.00010727,0.00016902,-0.00022915,-0.00000281,0.00144798,-0.
 00146835,0.00009551,-0.00025257,0.00031001,-0.00001293,-0.00085430,-0.
 00018530,0.00097987,-0.00041797,-0.00003388,-0.00007464,-0.00008554,0.
 00069957,0.00011306,0.00000665,0.00000739,0.00008446,0.00036705,-0.000
 00580,-0.00000880,0.00013332,-0.00059511,0.00007744,0.00037235,-0.0006
 3845,-0.00063654,0.00016717,-0.00014967,0.00036204,-0.00011763,0.00000
 986,-0.00018630,-0.00041305,0.00094479,0.05467992\\-0.00005162,-0.0000
 0774,0.00005122,-0.00000732,0.00000466,0.00004315,0.00002805,0.0000196
 0,-0.00015848,-0.00004527,0.00001193,0.00009085,0.00000279,-0.00003554
 ,0.00000728,0.00004505,0.00000620,0.00001896,0.00000214,0.00003869,-0.
 00000847,0.00002271,-0.00002253,-0.00012411,0.00000410,0.00002763,0.00
 005200,-0.00007071,-0.00003506,0.00008018,0.00002047,-0.00001100,-0.00
 002307,0.00001400,0.00000045,0.00000208,-0.00000190,0.00000799,0.00000
 642,0.00000390,0.00000391,-0.00001467,0.00000268,0.00000764,-0.0000016
 9,-0.00000211,0.00000460,0.00000098,0.00000537,0.00001082,-0.00000674,
 -0.00000080,-0.00000393,0.00000813,-0.00000514,-0.00000614,0.00000781,
 0.00000669,-0.00001172,-0.00000183,-0.00000518,-0.00000178,0.00000930,
 -0.00000098,-0.00000654,-0.00001654,0.00000094,-0.00000885,-0.00000230
 ,0.00000883,0.00000110,0.00000332,0.00000539,0.00000264,-0.00000637,0.
 00001148,0.00000046,-0.00001171,0.00000645,0.00000254,-0.00000571\\\@


 IF YOU GET CONFUSED, LOGIC OUT YOUR DILEMMA

           --  PICKER X-RAY CORP.    DIGITAL PRINTER MANUAL CA. 1964
 Job cpu time:       0 days  0 hours  3 minutes 16.2 seconds.
 Elapsed time:       0 days  0 hours  3 minutes 20.8 seconds.
 File lengths (MBytes):  RWF=    145 Int=      0 D2E=      0 Chk=      6 Scr=      1
 Normal termination of Gaussian 16 at Thu Feb 22 11:13:05 2024.
