 Entering Gaussian System, Link 0=g16
 Input=/Volumes/SSD-PMU3/b3lyp_6-31gd_freq/RMZQBMVYJTYCBD-BIIVOSGPSA-N_calculating/gaussianinput0.gjf
 Output=/Volumes/SSD-PMU3/b3lyp_6-31gd_freq/RMZQBMVYJTYCBD-BIIVOSGPSA-N_calculating/gaussianinput0.log
 Initial command:
 /Applications/g16/l1.exe "/Users/macmini_m1_2022/PycharmProjects/sphere_model/sphere_model_lib/Gau-53496.inp" -scrdir="/Users/macmini_m1_2022/PycharmProjects/sphere_model/sphere_model_lib/"
 Entering Link 1 = /Applications/g16/l1.exe PID=     53497.
  
 Copyright (c) 1988,1990,1992,1993,1995,1998,2003,2009,2016,
            Gaussian, Inc.  All Rights Reserved.
  
 This is part of the Gaussian(R) 16 program.  It is based on
 the Gaussian(R) 09 system (copyright 2009, Gaussian, Inc.),
 the Gaussian(R) 03 system (copyright 2003, Gaussian, Inc.),
 the Gaussian(R) 98 system (copyright 1998, Gaussian, Inc.),
 the Gaussian(R) 94 system (copyright 1995, Gaussian, Inc.),
 the Gaussian 92(TM) system (copyright 1992, Gaussian, Inc.),
 the Gaussian 90(TM) system (copyright 1990, Gaussian, Inc.),
 the Gaussian 88(TM) system (copyright 1988, Gaussian, Inc.),
 the Gaussian 86(TM) system (copyright 1986, Carnegie Mellon
 University), and the Gaussian 82(TM) system (copyright 1983,
 Carnegie Mellon University). Gaussian is a federally registered
 trademark of Gaussian, Inc.
  
 This software contains proprietary and confidential information,
 including trade secrets, belonging to Gaussian, Inc.
  
 This software is provided under written license and may be
 used, copied, transmitted, or stored only in accord with that
 written license.
  
 The following legend is applicable only to US Government
 contracts under FAR:
  
                    RESTRICTED RIGHTS LEGEND
  
 Use, reproduction and disclosure by the US Government is
 subject to restrictions as set forth in subparagraphs (a)
 and (c) of the Commercial Computer Software - Restricted
 Rights clause in FAR 52.227-19.
  
 Gaussian, Inc.
 340 Quinnipiac St., Bldg. 40, Wallingford CT 06492
  
  
 ---------------------------------------------------------------
 Warning -- This program may not be used in any manner that
 competes with the business of Gaussian, Inc. or will provide
 assistance to any competitor of Gaussian, Inc.  The licensee
 of this program is prohibited from giving any competitor of
 Gaussian, Inc. access to this program.  By using this program,
 the user acknowledges that Gaussian, Inc. is engaged in the
 business of creating and licensing software in the field of
 computational chemistry and represents and warrants to the
 licensee that it is not a competitor of Gaussian, Inc. and that
 it will not use this program in any manner prohibited above.
 ---------------------------------------------------------------
  

 Cite this work as:
 Gaussian 16, Revision A.03,
 M. J. Frisch, G. W. Trucks, H. B. Schlegel, G. E. Scuseria, 
 M. A. Robb, J. R. Cheeseman, G. Scalmani, V. Barone, 
 G. A. Petersson, H. Nakatsuji, X. Li, M. Caricato, A. V. Marenich, 
 J. Bloino, B. G. Janesko, R. Gomperts, B. Mennucci, H. P. Hratchian, 
 J. V. Ortiz, A. F. Izmaylov, J. L. Sonnenberg, D. Williams-Young, 
 F. Ding, F. Lipparini, F. Egidi, J. Goings, B. Peng, A. Petrone, 
 T. Henderson, D. Ranasinghe, V. G. Zakrzewski, J. Gao, N. Rega, 
 G. Zheng, W. Liang, M. Hada, M. Ehara, K. Toyota, R. Fukuda, 
 J. Hasegawa, M. Ishida, T. Nakajima, Y. Honda, O. Kitao, H. Nakai, 
 T. Vreven, K. Throssell, J. A. Montgomery, Jr., J. E. Peralta, 
 F. Ogliaro, M. J. Bearpark, J. J. Heyd, E. N. Brothers, K. N. Kudin, 
 V. N. Staroverov, T. A. Keith, R. Kobayashi, J. Normand, 
 K. Raghavachari, A. P. Rendell, J. C. Burant, S. S. Iyengar, 
 J. Tomasi, M. Cossi, J. M. Millam, M. Klene, C. Adamo, R. Cammi, 
 J. W. Ochterski, R. L. Martin, K. Morokuma, O. Farkas, 
 J. B. Foresman, and D. J. Fox, Gaussian, Inc., Wallingford CT, 2016.
 
 ******************************************
 Gaussian 16:  EM64M-G16RevA.03 25-Dec-2016
                21-Feb-2024 
 ******************************************
 %nprocshared=8
 Will use up to    8 processors via shared memory.
 %mem=4GB
 %chk= 0.chk
 ---------------------
 # freq b3lyp/6-31g(d)
 ---------------------
 1/10=4,30=1,38=1/1,3;
 2/12=2,17=6,18=5,40=1/2;
 3/5=1,6=6,7=1,11=2,25=1,30=1,71=2,74=-5,140=1/1,2,3;
 4//1;
 5/5=2,38=5,98=1/2;
 8/6=4,10=90,11=11/1;
 11/6=1,8=1,9=11,15=111,16=1/1,2,10;
 10/6=1/2;
 6/7=2,8=2,9=2,10=2,28=1/1;
 7/8=1,10=1,25=1/1,2,3,16;
 1/10=4,30=1/3;
 99//99;
 ---------
 good luck
 ---------
 Symbolic Z-matrix:
 Charge =  0 Multiplicity = 1
 O                     1.2165    0.        0. 
 C                     0.        0.        0. 
 C                    -0.85435  -1.25889  -0.01523 
 C                    -1.64349  -1.25736  -1.34996 
 C                    -2.50917   0.03379  -1.45778 
 C                    -2.32618   0.89443  -0.18912 
 C                    -2.75949   0.06372   1.03678 
 C                    -1.85742  -1.20154   1.16116 
 C                    -0.83874   1.28846  -0.01523 
 C                    -0.29473   2.30086  -1.03271 
 H                    -0.20161  -2.13382   0.05652 
 H                    -0.94578  -1.3337   -2.19137 
 H                    -2.27178  -2.15575  -1.38248 
 H                    -3.5699   -0.22017  -1.5696 
 H                    -2.23605   0.60788  -2.34994 
 H                    -2.94109   1.80058  -0.26119 
 H                    -2.68884   0.67664   1.94352 
 H                    -3.81358  -0.22054   0.93397 
 H                    -1.31476  -1.20434   2.11336 
 H                    -2.46285  -2.11578   1.14649 
 H                    -0.71996   1.73288   0.98626 
 H                     0.76867   2.47586  -0.8482 
 H                    -0.39778   1.94004  -2.06217 
 H                    -0.82758   3.25507  -0.95429 
 

 GradGradGradGradGradGradGradGradGradGradGradGradGradGradGradGradGradGrad
 Berny optimization.
 Initialization pass.
 Trust Radius=3.00D-01 FncErr=1.00D-07 GrdErr=1.00D-07 EigMax=2.50D+02 EigMin=1.00D-04
 Number of steps in this run=      2 maximum allowed number of steps=      2.
 GradGradGradGradGradGradGradGradGradGradGradGradGradGradGradGradGradGrad

                          Input orientation:                          
 ---------------------------------------------------------------------
 Center     Atomic      Atomic             Coordinates (Angstroms)
 Number     Number       Type             X           Y           Z
 ---------------------------------------------------------------------
      1          8           0        1.216496    0.000000    0.000000
      2          6           0        0.000000    0.000000    0.000000
      3          6           0       -0.854347   -1.258889   -0.015228
      4          6           0       -1.643487   -1.257358   -1.349964
      5          6           0       -2.509169    0.033789   -1.457783
      6          6           0       -2.326181    0.894433   -0.189122
      7          6           0       -2.759485    0.063715    1.036776
      8          6           0       -1.857416   -1.201539    1.161163
      9          6           0       -0.838739    1.288458   -0.015228
     10          6           0       -0.294725    2.300856   -1.032709
     11          1           0       -0.201609   -2.133819    0.056523
     12          1           0       -0.945778   -1.333697   -2.191370
     13          1           0       -2.271784   -2.155751   -1.382482
     14          1           0       -3.569896   -0.220169   -1.569601
     15          1           0       -2.236047    0.607883   -2.349941
     16          1           0       -2.941087    1.800581   -0.261188
     17          1           0       -2.688841    0.676642    1.943523
     18          1           0       -3.813583   -0.220540    0.933968
     19          1           0       -1.314756   -1.204338    2.113359
     20          1           0       -2.462846   -2.115779    1.146492
     21          1           0       -0.719962    1.732883    0.986259
     22          1           0        0.768667    2.475858   -0.848195
     23          1           0       -0.397782    1.940040   -2.062173
     24          1           0       -0.827582    3.255065   -0.954287
 ---------------------------------------------------------------------
                    Distance matrix (angstroms):
                    1          2          3          4          5
     1  O    0.000000
     2  C    1.216496   0.000000
     3  C    2.423515   1.521493   0.000000
     4  C    3.403359   2.470709   1.550569   0.000000
     5  C    4.000856   2.902103   2.547630   1.558233   0.000000
     6  C    3.658734   2.499379   2.614064   2.538470   1.543921
     7  C    4.109427   2.948512   2.546673   2.947408   2.507265
     8  C    3.498704   2.498397   1.547040   2.520841   2.968113
     9  C    2.425767   1.537478   2.547395   2.985016   2.538798
    10  C    2.940105   2.539151   3.744360   3.818468   3.197506
    11  H    2.562694   2.144067   1.093946   2.196680   3.509484
    12  H    3.355038   2.734108   2.179346   1.095714   2.202807
    13  H    4.327426   3.423379   2.163995   1.096779   2.203658
    14  H    5.041991   3.905929   3.296850   2.198875   1.096421
    15  H    4.220403   3.300250   3.293147   2.197773   1.095502
    16  H    4.538260   3.458367   3.711514   3.495739   2.177142
    17  H    4.414384   3.385999   3.308830   3.959820   3.466183
    18  H    5.120804   3.932474   3.276617   3.316723   2.736175
    19  H    3.510549   2.765013   2.178494   3.479293   3.963917
    20  H    4.396422   3.443338   2.161278   2.764151   3.377134
    21  H    2.779471   2.119890   3.157805   3.905429   3.472970
    22  H    2.655157   2.727665   4.156482   4.472936   4.132736
    23  H    3.259173   2.859116   3.825125   3.504622   2.908098
    24  H    3.960349   3.491562   4.610676   4.602632   3.668496
                    6          7          8          9         10
     6  C    0.000000
     7  C    1.542942   0.000000
     8  C    2.536949   1.558868   0.000000
     9  C    1.548541   2.509178   2.936270   0.000000
    10  C    2.610839   3.919517   4.418354   1.534982   0.000000
    11  H    3.707352   3.511806   2.197970   3.481819   4.567432
    12  H    3.298344   3.957679   3.476784   3.409215   3.869928
    13  H    3.275773   3.319140   2.748154   3.973107   4.887990
    14  H    2.166769   2.744186   3.369384   3.485864   4.167801
    15  H    2.181599   3.469864   3.968025   2.804735   2.893093
    16  H    1.097455   2.175866   3.494302   2.177759   2.801562
    17  H    2.174196   1.096750   2.197935   2.762952   4.150641
    18  H    2.171833   1.096582   2.200129   3.468104   4.754747
    19  H    3.275552   2.203232   1.095977   3.312326   4.819190
    20  H    3.296046   2.202323   1.096629   3.946663   5.381109
    21  H    2.159736   2.635968   3.152019   1.102088   2.140012
    22  H    3.537424   4.671125   4.945410   2.165065   1.093377
    23  H    2.884499   4.324549   4.731801   2.192940   1.095721
    24  H    2.898941   4.228628   5.039544   2.179335   1.095720
                   11         12         13         14         15
    11  H    0.000000
    12  H    2.499401   0.000000
    13  H    2.521278   1.757374   0.000000
    14  H    4.201392   2.917625   2.338073   0.000000
    15  H    4.176953   2.336594   2.928298   1.753212   0.000000
    16  H    4.804704   4.186951   4.166273   2.488127   2.506491
    17  H    4.200688   4.917019   4.388473   3.731296   4.317822
    18  H    4.180539   4.385335   3.389414   2.515401   3.736170
    19  H    2.516666   4.322450   3.747265   4.429271   4.904485
    20  H    2.510289   3.748929   2.536496   3.492286   4.437884
    21  H    4.010546   4.421791   4.810464   4.297552   3.833324
    22  H    4.796777   4.388183   5.566112   5.158693   3.843550
    23  H    4.596051   3.321799   4.555147   3.869294   2.288377
    24  H    5.518483   4.754059   5.616583   4.469469   3.307446
                   16         17         18         19         20
    16  H    0.000000
    17  H    2.487492   0.000000
    18  H    2.504911   1.757607   0.000000
    19  H    4.160885   2.335603   2.933080   0.000000
    20  H    4.189052   2.912722   2.337004   1.756037   0.000000
    21  H    2.548353   2.430737   3.659110   3.201781   4.227945
    22  H    3.816130   4.794291   5.607467   5.162877   5.958572
    23  H    3.119519   4.784425   5.031169   5.306884   5.568634
    24  H    2.657595   4.302308   4.955960   5.434525   5.994441
                   21         22         23         24
    21  H    0.000000
    22  H    2.476540   0.000000
    23  H    3.072402   1.766762   0.000000
    24  H    2.468671   1.779447   1.772408   0.000000
 Stoichiometry    C9H14O
 Framework group  C1[X(C9H14O)]
 Deg. of freedom    66
 Full point group                 C1      NOp   1
 Largest Abelian subgroup         C1      NOp   1
 Largest concise Abelian subgroup C1      NOp   1
                         Standard orientation:                         
 ---------------------------------------------------------------------
 Center     Atomic      Atomic             Coordinates (Angstroms)
 Number     Number       Type             X           Y           Z
 ---------------------------------------------------------------------
      1          8           0        1.613844    1.832151   -0.091255
      2          6           0        0.746770    0.979461   -0.122338
      3          6           0       -0.692189    1.207854    0.316038
      4          6           0       -0.944735    0.294098    1.543041
      5          6           0       -0.681913   -1.194383    1.164311
      6          6           0       -0.275254   -1.292665   -0.321846
      7          6           0       -1.417854   -0.717516   -1.184597
      8          6           0       -1.641431    0.783836   -0.829597
      9          6           0        1.005587   -0.463414   -0.585982
     10          6           0        2.299155   -1.024787    0.020408
     11          1           0       -0.822857    2.262498    0.575596
     12          1           0       -0.303245    0.606870    2.374458
     13          1           0       -1.979881    0.438217    1.875648
     14          1           0       -1.580232   -1.800307    1.331701
     15          1           0        0.099359   -1.622426    1.801900
     16          1           0       -0.096878   -2.341492   -0.591201
     17          1           0       -1.171527   -0.828465   -2.247552
     18          1           0       -2.333594   -1.296358   -1.014726
     19          1           0       -1.476872    1.422597   -1.704851
     20          1           0       -2.674901    0.959256   -0.507475
     21          1           0        1.152726   -0.403825   -1.676576
     22          1           0        3.130271   -0.345270   -0.186899
     23          1           0        2.225055   -1.136109    1.107938
     24          1           0        2.533006   -2.007296   -0.404553
 ---------------------------------------------------------------------
 Rotational constants (GHZ):           1.7942852           1.4192373           1.1835087
 Standard basis: 6-31G(d) (6D, 7F)
 There are   178 symmetry adapted cartesian basis functions of A   symmetry.
 There are   178 symmetry adapted basis functions of A   symmetry.
   178 basis functions,   336 primitive gaussians,   178 cartesian basis functions
    38 alpha electrons       38 beta electrons
       nuclear repulsion energy       572.6351136010 Hartrees.
 NAtoms=   24 NActive=   24 NUniq=   24 SFac= 1.00D+00 NAtFMM=   60 NAOKFM=F Big=F
 Integral buffers will be    131072 words long.
 Raffenetti 2 integral format.
 Two-electron integral symmetry is turned on.
 One-electron integrals computed using PRISM.
 NBasis=   178 RedAO= T EigKep=  1.39D-03  NBF=   178
 NBsUse=   178 1.00D-06 EigRej= -1.00D+00 NBFU=   178
 ExpMin= 1.61D-01 ExpMax= 5.48D+03 ExpMxC= 8.25D+02 IAcc=3 IRadAn=         5 AccDes= 0.00D+00
 Harris functional with IExCor=  402 and IRadAn=       5 diagonalized for initial guess.
 HarFok:  IExCor=  402 AccDes= 0.00D+00 IRadAn=         5 IDoV= 1 UseB2=F ITyADJ=14
 ICtDFT=  3500011 ScaDFX=  1.000000  1.000000  1.000000  1.000000
 FoFCou: FMM=F IPFlag=           0 FMFlag=      100000 FMFlg1=           0
         NFxFlg=           0 DoJE=T BraDBF=F KetDBF=T FulRan=T
         wScrn=  0.000000 ICntrl=       500 IOpCl=  0 I1Cent=   200000004 NGrid=           0
         NMat0=    1 NMatS0=      1 NMatT0=    0 NMatD0=    1 NMtDS0=    0 NMtDT0=    0
 Petite list used in FoFCou.
 Requested convergence on RMS density matrix=1.00D-08 within 128 cycles.
 Requested convergence on MAX density matrix=1.00D-06.
 Requested convergence on             energy=1.00D-06.
 No special actions if energy rises.
 Integral accuracy reduced to 1.0D-05 until final iterations.
 Initial convergence to 1.0D-05 achieved.  Increase integral accuracy.
 SCF Done:  E(RB3LYP) =  -426.618495776     A.U. after   13 cycles
            NFock= 13  Conv=0.77D-08     -V/T= 2.0097
 DoSCS=F DFT=T ScalE2(SS,OS)=  1.000000  1.000000
 Range of M.O.s used for correlation:     1   178
 NBasis=   178 NAE=    38 NBE=    38 NFC=     0 NFV=     0
 NROrb=    178 NOA=    38 NOB=    38 NVA=   140 NVB=   140
 Symmetrizing basis deriv contribution to polar:
 IMax=3 JMax=2 DiffMx= 0.00D+00
 G2DrvN: will do    25 centers at a time, making    1 passes.
 Calling FoFCou, ICntrl=  3107 FMM=F I1Cent=   0 AccDes= 0.00D+00.
 End of G2Drv F.D. properties file   721 does not exist.
 End of G2Drv F.D. properties file   722 does not exist.
 End of G2Drv F.D. properties file   788 does not exist.
          IDoAtm=111111111111111111111111
          Differentiating once with respect to electric field.
                with respect to dipole field.
          Differentiating once with respect to nuclear coordinates.
 Keep R1 ints in memory in canonical form, NReq=134943922.
          There are    75 degrees of freedom in the 1st order CPHF.  IDoFFX=6 NUNeed=     3.
     72 vectors produced by pass  0 Test12= 7.09D-15 1.33D-09 XBig12= 6.22D+01 1.73D+00.
 AX will form    72 AO Fock derivatives at one time.
     72 vectors produced by pass  1 Test12= 7.09D-15 1.33D-09 XBig12= 7.79D+00 7.36D-01.
     72 vectors produced by pass  2 Test12= 7.09D-15 1.33D-09 XBig12= 5.85D-02 2.85D-02.
     72 vectors produced by pass  3 Test12= 7.09D-15 1.33D-09 XBig12= 1.83D-04 1.54D-03.
     72 vectors produced by pass  4 Test12= 7.09D-15 1.33D-09 XBig12= 1.79D-07 4.21D-05.
     35 vectors produced by pass  5 Test12= 7.09D-15 1.33D-09 XBig12= 1.20D-10 9.68D-07.
      3 vectors produced by pass  6 Test12= 7.09D-15 1.33D-09 XBig12= 7.69D-14 3.83D-08.
 InvSVY:  IOpt=1 It=  1 EMax= 2.66D-15
 Solved reduced A of dimension   398 with    75 vectors.
 Isotropic polarizability for W=    0.000000       88.04 Bohr**3.
 End of Minotr F.D. properties file   721 does not exist.
 End of Minotr F.D. properties file   722 does not exist.
 End of Minotr F.D. properties file   788 does not exist.

 **********************************************************************

            Population analysis using the SCF density.

 **********************************************************************

 Orbital symmetries:
       Occupied  (A) (A) (A) (A) (A) (A) (A) (A) (A) (A) (A) (A)
                 (A) (A) (A) (A) (A) (A) (A) (A) (A) (A) (A) (A)
                 (A) (A) (A) (A) (A) (A) (A) (A) (A) (A) (A) (A)
                 (A) (A)
       Virtual   (A) (A) (A) (A) (A) (A) (A) (A) (A) (A) (A) (A)
                 (A) (A) (A) (A) (A) (A) (A) (A) (A) (A) (A) (A)
                 (A) (A) (A) (A) (A) (A) (A) (A) (A) (A) (A) (A)
                 (A) (A) (A) (A) (A) (A) (A) (A) (A) (A) (A) (A)
                 (A) (A) (A) (A) (A) (A) (A) (A) (A) (A) (A) (A)
                 (A) (A) (A) (A) (A) (A) (A) (A) (A) (A) (A) (A)
                 (A) (A) (A) (A) (A) (A) (A) (A) (A) (A) (A) (A)
                 (A) (A) (A) (A) (A) (A) (A) (A) (A) (A) (A) (A)
                 (A) (A) (A) (A) (A) (A) (A) (A) (A) (A) (A) (A)
                 (A) (A) (A) (A) (A) (A) (A) (A) (A) (A) (A) (A)
                 (A) (A) (A) (A) (A) (A) (A) (A) (A) (A) (A) (A)
                 (A) (A) (A) (A) (A) (A) (A) (A)
 The electronic state is 1-A.
 Alpha  occ. eigenvalues --  -19.13003 -10.26184 -10.19277 -10.19257 -10.19145
 Alpha  occ. eigenvalues --  -10.19126 -10.19089 -10.18685 -10.18644 -10.17748
 Alpha  occ. eigenvalues --   -1.02869  -0.85943  -0.77598  -0.74439  -0.73725
 Alpha  occ. eigenvalues --   -0.66661  -0.61607  -0.59502  -0.56673  -0.50388
 Alpha  occ. eigenvalues --   -0.48978  -0.47166  -0.45859  -0.43036  -0.41578
 Alpha  occ. eigenvalues --   -0.40255  -0.39877  -0.38978  -0.37843  -0.37680
 Alpha  occ. eigenvalues --   -0.36928  -0.36127  -0.35401  -0.33017  -0.31238
 Alpha  occ. eigenvalues --   -0.30378  -0.29614  -0.22854
 Alpha virt. eigenvalues --   -0.00944   0.06650   0.09739   0.11167   0.12305
 Alpha virt. eigenvalues --    0.13838   0.14732   0.15503   0.16284   0.16538
 Alpha virt. eigenvalues --    0.17336   0.18121   0.18626   0.18837   0.19980
 Alpha virt. eigenvalues --    0.20809   0.22294   0.22577   0.23622   0.25170
 Alpha virt. eigenvalues --    0.26171   0.26959   0.29908   0.34181   0.35273
 Alpha virt. eigenvalues --    0.37950   0.49441   0.50225   0.51206   0.52606
 Alpha virt. eigenvalues --    0.55518   0.57595   0.59625   0.59979   0.62243
 Alpha virt. eigenvalues --    0.62869   0.63583   0.66302   0.67167   0.67567
 Alpha virt. eigenvalues --    0.69475   0.70685   0.74150   0.74734   0.76020
 Alpha virt. eigenvalues --    0.78148   0.80361   0.81793   0.82949   0.83867
 Alpha virt. eigenvalues --    0.84952   0.85671   0.87110   0.87520   0.87891
 Alpha virt. eigenvalues --    0.89006   0.90389   0.91399   0.93495   0.93912
 Alpha virt. eigenvalues --    0.94938   0.95507   0.96893   0.97585   0.99955
 Alpha virt. eigenvalues --    1.00273   1.04032   1.04719   1.12637   1.20816
 Alpha virt. eigenvalues --    1.25541   1.27091   1.30514   1.32499   1.39009
 Alpha virt. eigenvalues --    1.45658   1.49029   1.52184   1.57983   1.59848
 Alpha virt. eigenvalues --    1.64740   1.67051   1.67787   1.70889   1.71566
 Alpha virt. eigenvalues --    1.73468   1.75878   1.79902   1.82203   1.85452
 Alpha virt. eigenvalues --    1.88401   1.88928   1.90778   1.92608   1.94396
 Alpha virt. eigenvalues --    1.97746   2.00173   2.00957   2.03552   2.04340
 Alpha virt. eigenvalues --    2.05675   2.09095   2.10154   2.13598   2.13996
 Alpha virt. eigenvalues --    2.19808   2.21475   2.25310   2.28380   2.32370
 Alpha virt. eigenvalues --    2.33786   2.37199   2.39993   2.41465   2.43998
 Alpha virt. eigenvalues --    2.44491   2.47567   2.50395   2.56624   2.61178
 Alpha virt. eigenvalues --    2.61832   2.67934   2.68477   2.70223   2.72873
 Alpha virt. eigenvalues --    2.75643   2.82086   2.85466   3.01442   3.05407
 Alpha virt. eigenvalues --    4.10155   4.12634   4.23360   4.26220   4.38872
 Alpha virt. eigenvalues --    4.45975   4.55149   4.59433   4.72577   4.92393
          Condensed to atoms (all electrons):
               1          2          3          4          5          6
     1  O    8.039641   0.559055  -0.064375  -0.000089  -0.000019   0.003668
     2  C    0.559055   4.548442   0.361437  -0.035060  -0.020119  -0.026072
     3  C   -0.064375   0.361437   5.131720   0.356496  -0.043932   0.025774
     4  C   -0.000089  -0.035060   0.356496   5.089662   0.344313  -0.048760
     5  C   -0.000019  -0.020119  -0.043932   0.344313   5.075059   0.380550
     6  C    0.003668  -0.026072   0.025774  -0.048760   0.380550   4.961428
     7  C    0.000035  -0.017652  -0.041735  -0.018888  -0.043414   0.380804
     8  C    0.000894  -0.031271   0.348064  -0.036579  -0.018973  -0.051432
     9  C   -0.084488   0.295626  -0.140045  -0.007943  -0.039704   0.317375
    10  C   -0.003415  -0.029688   0.004335  -0.000600  -0.004531  -0.040753
    11  H    0.004034  -0.032235   0.348752  -0.033036   0.005070  -0.000625
    12  H    0.001055  -0.002973  -0.035841   0.370949  -0.031699   0.001666
    13  H   -0.000072   0.004248  -0.030857   0.366371  -0.029269   0.001835
    14  H    0.000002   0.000311   0.001767  -0.031259   0.367483  -0.031720
    15  H   -0.000016   0.000661   0.001770  -0.033232   0.370839  -0.033795
    16  H   -0.000069   0.004009  -0.000773   0.005933  -0.041565   0.367951
    17  H   -0.000008   0.000594   0.002106  -0.000023   0.005557  -0.033485
    18  H    0.000003   0.000323   0.001235   0.001005  -0.006201  -0.032315
    19  H    0.000560  -0.003567  -0.035871   0.005301  -0.000033   0.001402
    20  H   -0.000078   0.003881  -0.028898  -0.008310   0.000998   0.002175
    21  H   -0.001532  -0.030539   0.003551   0.000273   0.005554  -0.043464
    22  H    0.010822  -0.005044   0.000608  -0.000065   0.000031   0.004804
    23  H    0.000408  -0.004531   0.000236   0.000230   0.002266  -0.006202
    24  H    0.000149   0.004365  -0.000150  -0.000001  -0.000221  -0.002697
               7          8          9         10         11         12
     1  O    0.000035   0.000894  -0.084488  -0.003415   0.004034   0.001055
     2  C   -0.017652  -0.031271   0.295626  -0.029688  -0.032235  -0.002973
     3  C   -0.041735   0.348064  -0.140045   0.004335   0.348752  -0.035841
     4  C   -0.018888  -0.036579  -0.007943  -0.000600  -0.033036   0.370949
     5  C   -0.043414  -0.018973  -0.039704  -0.004531   0.005070  -0.031699
     6  C    0.380804  -0.051432   0.317375  -0.040753  -0.000625   0.001666
     7  C    5.074044   0.341232  -0.035841   0.004242   0.005094  -0.000036
     8  C    0.341232   5.097053  -0.005591   0.000252  -0.034241   0.005452
     9  C   -0.035841  -0.005591   5.280847   0.356973   0.008378   0.001425
    10  C    0.004242   0.000252   0.356973   5.082704  -0.000150   0.000096
    11  H    0.005094  -0.034241   0.008378  -0.000150   0.600683  -0.002157
    12  H   -0.000036   0.005452   0.001425   0.000096  -0.002157   0.582636
    13  H    0.000997  -0.008356  -0.000468   0.000036  -0.003112  -0.035472
    14  H   -0.006599   0.000758   0.004924   0.000052  -0.000138   0.003791
    15  H    0.005380  -0.000022  -0.006319   0.002363  -0.000119  -0.010584
    16  H   -0.039448   0.005968  -0.035981  -0.003884   0.000010  -0.000112
    17  H    0.368485  -0.032947  -0.005993   0.000062  -0.000130   0.000011
    18  H    0.365663  -0.031099   0.004734  -0.000161  -0.000153   0.000007
    19  H   -0.031578   0.371902   0.001573  -0.000021  -0.001804  -0.000190
    20  H   -0.029422   0.365123  -0.000449   0.000004  -0.003056  -0.000018
    21  H   -0.005223  -0.000247   0.355766  -0.031046  -0.000227   0.000004
    22  H   -0.000149  -0.000022  -0.031617   0.368416  -0.000013  -0.000021
    23  H    0.000078  -0.000003  -0.037307   0.378275  -0.000016   0.000149
    24  H    0.000014   0.000003  -0.030378   0.368857   0.000003  -0.000000
              13         14         15         16         17         18
     1  O   -0.000072   0.000002  -0.000016  -0.000069  -0.000008   0.000003
     2  C    0.004248   0.000311   0.000661   0.004009   0.000594   0.000323
     3  C   -0.030857   0.001767   0.001770  -0.000773   0.002106   0.001235
     4  C    0.366371  -0.031259  -0.033232   0.005933  -0.000023   0.001005
     5  C   -0.029269   0.367483   0.370839  -0.041565   0.005557  -0.006201
     6  C    0.001835  -0.031720  -0.033795   0.367951  -0.033485  -0.032315
     7  C    0.000997  -0.006599   0.005380  -0.039448   0.368485   0.365663
     8  C   -0.008356   0.000758  -0.000022   0.005968  -0.032947  -0.031099
     9  C   -0.000468   0.004924  -0.006319  -0.035981  -0.005993   0.004734
    10  C    0.000036   0.000052   0.002363  -0.003884   0.000062  -0.000161
    11  H   -0.003112  -0.000138  -0.000119   0.000010  -0.000130  -0.000153
    12  H   -0.035472   0.003791  -0.010584  -0.000112   0.000011   0.000007
    13  H    0.590927  -0.010581   0.003955  -0.000193   0.000008  -0.000272
    14  H   -0.010581   0.597358  -0.035893  -0.002643   0.000004   0.005355
    15  H    0.003955  -0.035893   0.590324  -0.002515  -0.000196  -0.000002
    16  H   -0.000193  -0.002643  -0.002515   0.628547  -0.002915  -0.002503
    17  H    0.000008   0.000004  -0.000196  -0.002915   0.597933  -0.035882
    18  H   -0.000272   0.005355  -0.000002  -0.002503  -0.035882   0.600492
    19  H    0.000005   0.000007   0.000012  -0.000115  -0.010663   0.003962
    20  H    0.006408  -0.000242   0.000007  -0.000182   0.003874  -0.010594
    21  H    0.000009  -0.000176   0.000011  -0.002983   0.006014   0.000019
    22  H    0.000001   0.000001  -0.000104  -0.000101  -0.000004   0.000002
    23  H    0.000007  -0.000126   0.004199  -0.000353   0.000004   0.000002
    24  H   -0.000000  -0.000022   0.000050   0.003877  -0.000010  -0.000002
              19         20         21         22         23         24
     1  O    0.000560  -0.000078  -0.001532   0.010822   0.000408   0.000149
     2  C   -0.003567   0.003881  -0.030539  -0.005044  -0.004531   0.004365
     3  C   -0.035871  -0.028898   0.003551   0.000608   0.000236  -0.000150
     4  C    0.005301  -0.008310   0.000273  -0.000065   0.000230  -0.000001
     5  C   -0.000033   0.000998   0.005554   0.000031   0.002266  -0.000221
     6  C    0.001402   0.002175  -0.043464   0.004804  -0.006202  -0.002697
     7  C   -0.031578  -0.029422  -0.005223  -0.000149   0.000078   0.000014
     8  C    0.371902   0.365123  -0.000247  -0.000022  -0.000003   0.000003
     9  C    0.001573  -0.000449   0.355766  -0.031617  -0.037307  -0.030378
    10  C   -0.000021   0.000004  -0.031046   0.368416   0.378275   0.368857
    11  H   -0.001804  -0.003056  -0.000227  -0.000013  -0.000016   0.000003
    12  H   -0.000190  -0.000018   0.000004  -0.000021   0.000149  -0.000000
    13  H    0.000005   0.006408   0.000009   0.000001   0.000007  -0.000000
    14  H    0.000007  -0.000242  -0.000176   0.000001  -0.000126  -0.000022
    15  H    0.000012   0.000007   0.000011  -0.000104   0.004199   0.000050
    16  H   -0.000115  -0.000182  -0.002983  -0.000101  -0.000353   0.003877
    17  H   -0.010663   0.003874   0.006014  -0.000004   0.000004  -0.000010
    18  H    0.003962  -0.010594   0.000019   0.000002   0.000002  -0.000002
    19  H    0.586046  -0.036018  -0.000066  -0.000002   0.000000  -0.000001
    20  H   -0.036018   0.591439   0.000081   0.000000   0.000001  -0.000000
    21  H   -0.000066   0.000081   0.591906  -0.001957   0.005229  -0.004898
    22  H   -0.000002   0.000000  -0.001957   0.537027  -0.027299  -0.028890
    23  H    0.000000   0.000001   0.005229  -0.027299   0.570667  -0.032461
    24  H   -0.000001  -0.000000  -0.004898  -0.028890  -0.032461   0.580148
 Mulliken charges:
               1
     1  O   -0.466167
     2  C    0.455798
     3  C   -0.165374
     4  C   -0.286689
     5  C   -0.278040
     6  C   -0.098111
     7  C   -0.276085
     8  C   -0.285917
     9  C   -0.165496
    10  C   -0.452419
    11  H    0.139185
    12  H    0.151863
    13  H    0.143845
    14  H    0.137587
    15  H    0.143227
    16  H    0.120039
    17  H    0.137605
    18  H    0.136381
    19  H    0.149160
    20  H    0.143277
    21  H    0.153941
    22  H    0.173575
    23  H    0.146547
    24  H    0.142265
 Sum of Mulliken charges =  -0.00000
 Mulliken charges with hydrogens summed into heavy atoms:
               1
     1  O   -0.466167
     2  C    0.455798
     3  C   -0.026189
     4  C    0.009019
     5  C    0.002774
     6  C    0.021928
     7  C   -0.002099
     8  C    0.006520
     9  C   -0.011555
    10  C    0.009969
 APT charges:
               1
     1  O   -0.651959
     2  C    0.702813
     3  C   -0.057472
     4  C    0.108676
     5  C    0.082498
     6  C    0.101326
     7  C    0.096612
     8  C    0.115110
     9  C   -0.036047
    10  C    0.076737
    11  H   -0.045922
    12  H   -0.036129
    13  H   -0.043454
    14  H   -0.047275
    15  H   -0.039306
    16  H   -0.066251
    17  H   -0.047380
    18  H   -0.053019
    19  H   -0.040176
    20  H   -0.044446
    21  H   -0.038459
    22  H    0.007276
    23  H   -0.015782
    24  H   -0.027970
 Sum of APT charges =  -0.00000
 APT charges with hydrogens summed into heavy atoms:
               1
     1  O   -0.651959
     2  C    0.702813
     3  C   -0.103394
     4  C    0.029093
     5  C   -0.004083
     6  C    0.035074
     7  C   -0.003788
     8  C    0.030488
     9  C   -0.074506
    10  C    0.040261
 Electronic spatial extent (au):  <R**2>=           1272.5078
 Charge=             -0.0000 electrons
 Dipole moment (field-independent basis, Debye):
    X=             -2.0738    Y=             -2.1201    Z=             -0.0474  Tot=              2.9661
 Quadrupole moment (field-independent basis, Debye-Ang):
   XX=            -63.5690   YY=            -65.6147   ZZ=            -59.5205
   XY=             -5.2887   XZ=             -0.2942   YZ=              0.2840
 Traceless Quadrupole moment (field-independent basis, Debye-Ang):
   XX=             -0.6676   YY=             -2.7133   ZZ=              3.3809
   XY=             -5.2887   XZ=             -0.2942   YZ=              0.2840
 Octapole moment (field-independent basis, Debye-Ang**2):
  XXX=             -2.7304  YYY=             -3.6320  ZZZ=             -1.5260  XYY=             -8.7676
  XXY=             -6.6116  XXZ=              1.0567  XZZ=              3.7352  YZZ=              3.3371
  YYZ=             -0.2834  XYZ=              0.6359
 Hexadecapole moment (field-independent basis, Debye-Ang**3):
 XXXX=           -763.6767 YYYY=           -555.0955 ZZZZ=           -377.9576 XXXY=             -1.1354
 XXXZ=             -6.5719 YYYX=            -11.8708 YYYZ=              2.2171 ZZZX=              0.6548
 ZZZY=             -0.9010 XXYY=           -233.0229 XXZZ=           -191.6480 YYZZ=           -152.5190
 XXYZ=              1.2323 YYXZ=             -1.0235 ZZXY=              2.3187
 N-N= 5.726351136010D+02 E-N=-2.135040850532D+03  KE= 4.225313556867D+02
  Exact polarizability:  94.484   0.396  88.433  -0.734   0.975  81.188
 Approx polarizability: 132.077   8.351 128.729  -1.706   1.177 117.885
 Calling FoFJK, ICntrl=    100127 FMM=F ISym2X=0 I1Cent= 0 IOpClX= 0 NMat=1 NMatS=1 NMatT=0.
 Full mass-weighted force constant matrix:
 Low frequencies ---   -6.1683   -0.0009   -0.0004   -0.0004    3.5472   10.0638
 Low frequencies ---   42.9423  145.8864  199.2471
 Diagonal vibrational polarizability:
        5.9756059       6.3135812      26.7478787
 Harmonic frequencies (cm**-1), IR intensities (KM/Mole), Raman scattering
 activities (A**4/AMU), depolarization ratios for plane and unpolarized
 incident light, reduced masses (AMU), force constants (mDyne/A),
 and normal coordinates:
                      1                      2                      3
                      A                      A                      A
 Frequencies --     42.8963               145.8854               199.2470
 Red. masses --      2.9928                 2.5698                 1.3051
 Frc consts  --      0.0032                 0.0322                 0.0305
 IR Inten    --      1.9436                 1.3997                 0.3210
  Atom  AN      X      Y      Z        X      Y      Z        X      Y      Z
     1   8     0.04  -0.05   0.21     0.04  -0.05   0.18     0.02  -0.02   0.05
     2   6     0.00  -0.01   0.05    -0.01   0.00  -0.04    -0.00   0.00  -0.03
     3   6    -0.03   0.02  -0.06    -0.03   0.02  -0.10     0.00  -0.00  -0.01
     4   6    -0.11   0.06  -0.04     0.16   0.09  -0.01     0.02  -0.02  -0.02
     5   6     0.07   0.07   0.06    -0.04   0.06  -0.02     0.07  -0.02  -0.02
     6   6     0.00  -0.00   0.05    -0.00   0.00  -0.01    -0.00   0.00  -0.04
     7   6    -0.05  -0.07   0.07     0.02  -0.04  -0.06    -0.05   0.00   0.02
     8   6     0.04  -0.02  -0.10    -0.14  -0.09   0.04    -0.01   0.01  -0.01
     9   6    -0.02   0.02  -0.04    -0.00   0.00  -0.03    -0.01   0.01  -0.04
    10   6     0.04  -0.01  -0.21    -0.01   0.01  -0.01    -0.04   0.04   0.06
    11   1    -0.04   0.03  -0.10    -0.03   0.03  -0.15     0.01  -0.01   0.01
    12   1    -0.25   0.16   0.03     0.39   0.08  -0.17    -0.00  -0.01  -0.01
    13   1    -0.17  -0.01  -0.19     0.25   0.19   0.23     0.01  -0.06  -0.04
    14   1     0.16  -0.04   0.17    -0.14   0.19  -0.07     0.11  -0.06   0.04
    15   1     0.17   0.23   0.05    -0.14  -0.07   0.01     0.13   0.03  -0.06
    16   1     0.02  -0.01   0.10     0.01  -0.01   0.04    -0.01   0.01  -0.06
    17   1    -0.15  -0.22   0.06     0.14   0.07  -0.05    -0.14  -0.04   0.01
    18   1    -0.05  -0.02   0.23     0.06  -0.14  -0.20    -0.05   0.02   0.11
    19   1     0.18  -0.12  -0.15    -0.42  -0.03   0.04     0.03  -0.01  -0.02
    20   1     0.03   0.10  -0.22    -0.11  -0.27   0.24    -0.00   0.06  -0.03
    21   1    -0.14   0.07  -0.05    -0.01  -0.02  -0.03     0.03  -0.04  -0.04
    22   1     0.01   0.03  -0.22    -0.01   0.02   0.00     0.07  -0.21  -0.34
    23   1     0.14  -0.11  -0.21    -0.03   0.02  -0.01     0.07   0.58   0.12
    24   1     0.02   0.03  -0.32     0.00   0.01  -0.00    -0.27  -0.20   0.50
                      4                      5                      6
                      A                      A                      A
 Frequencies --    233.0249               258.8772               270.1031
 Red. masses --      1.6594                 2.1402                 2.2562
 Frc consts  --      0.0531                 0.0845                 0.0970
 IR Inten    --      0.4843                 1.0223                 1.7493
  Atom  AN      X      Y      Z        X      Y      Z        X      Y      Z
     1   8     0.02  -0.02   0.04     0.03  -0.06  -0.00    -0.08   0.15   0.02
     2   6    -0.00   0.01  -0.03    -0.01  -0.03   0.00    -0.01   0.07   0.04
     3   6     0.01   0.00  -0.03     0.02  -0.02   0.02    -0.02  -0.01  -0.00
     4   6     0.08  -0.02  -0.03     0.05  -0.02   0.03     0.12  -0.00   0.03
     5   6     0.08  -0.02  -0.03    -0.16  -0.05  -0.00    -0.05  -0.02  -0.01
     6   6    -0.01  -0.00  -0.05    -0.04  -0.04   0.03     0.02   0.01   0.01
     7   6    -0.11  -0.02   0.06    -0.02  -0.02   0.02    -0.01  -0.06   0.02
     8   6     0.01   0.02  -0.03     0.09   0.02  -0.05     0.08  -0.03  -0.09
     9   6    -0.01   0.01  -0.04    -0.04  -0.02   0.00     0.00   0.06   0.03
    10   6    -0.06   0.04   0.11     0.07   0.20  -0.04    -0.06  -0.14  -0.03
    11   1    -0.00  -0.01  -0.01     0.02  -0.02   0.03    -0.08  -0.02  -0.01
    12   1     0.12  -0.01  -0.06     0.20  -0.09  -0.05     0.32  -0.04  -0.11
    13   1     0.10  -0.04   0.03     0.11   0.10   0.18     0.20   0.07   0.26
    14   1     0.10  -0.03   0.02    -0.29   0.10  -0.15    -0.15   0.10  -0.13
    15   1     0.12  -0.01  -0.07    -0.31  -0.21   0.07    -0.16  -0.16   0.03
    16   1    -0.01   0.01  -0.08    -0.04  -0.04   0.03     0.09   0.02   0.01
    17   1    -0.29  -0.12   0.03    -0.08  -0.09   0.02    -0.11  -0.18   0.01
    18   1    -0.10   0.03   0.27    -0.06   0.05   0.10    -0.01  -0.01   0.17
    19   1     0.11  -0.05  -0.06     0.27  -0.03  -0.05     0.29  -0.09  -0.10
    20   1     0.01   0.13  -0.10     0.06   0.14  -0.20     0.05   0.10  -0.27
    21   1     0.07  -0.00  -0.03    -0.10  -0.04  -0.01    -0.01   0.09   0.03
    22   1    -0.13   0.25   0.52    -0.07   0.33  -0.17     0.09  -0.34  -0.10
    23   1    -0.32  -0.29   0.06     0.17   0.30  -0.03    -0.02  -0.10  -0.03
    24   1     0.22   0.20  -0.11     0.21   0.20   0.04    -0.30  -0.21  -0.02
                      7                      8                      9
                      A                      A                      A
 Frequencies --    358.4857               394.7670               469.0516
 Red. masses --      2.4896                 4.0855                 4.0652
 Frc consts  --      0.1885                 0.3751                 0.5270
 IR Inten    --      0.2518                 5.6336                 2.9216
  Atom  AN      X      Y      Z        X      Y      Z        X      Y      Z
     1   8    -0.10  -0.06   0.01    -0.19   0.03   0.05     0.16   0.00  -0.06
     2   6    -0.10  -0.06   0.01    -0.04  -0.11  -0.03     0.02   0.12   0.08
     3   6    -0.06  -0.02   0.03    -0.04  -0.02  -0.09    -0.07   0.07  -0.11
     4   6     0.09   0.02   0.08     0.03   0.02  -0.06     0.07  -0.11  -0.12
     5   6     0.13   0.03   0.08     0.00   0.00  -0.02     0.04  -0.16   0.04
     6   6    -0.06  -0.02   0.03    -0.00   0.01  -0.02    -0.09  -0.02   0.06
     7   6     0.09   0.07  -0.12    -0.09   0.13   0.06    -0.05   0.03  -0.01
     8   6     0.06   0.06  -0.09    -0.10   0.14  -0.03    -0.11   0.04  -0.10
     9   6    -0.07  -0.05  -0.00     0.15  -0.15   0.07    -0.08   0.05   0.28
    10   6    -0.05   0.02  -0.00     0.27  -0.09   0.04     0.04  -0.00  -0.00
    11   1    -0.02  -0.01   0.02     0.16  -0.01  -0.06    -0.24   0.01   0.05
    12   1     0.21   0.09  -0.04     0.13   0.05  -0.15     0.14  -0.06  -0.19
    13   1     0.14  -0.03   0.23     0.07   0.03   0.07     0.11  -0.12  -0.01
    14   1     0.22  -0.04   0.30    -0.01   0.03  -0.02     0.10  -0.19   0.24
    15   1     0.30   0.12  -0.06    -0.00   0.00  -0.01     0.19  -0.06  -0.07
    16   1    -0.11  -0.04   0.04    -0.19  -0.01  -0.08    -0.02   0.03  -0.12
    17   1     0.34   0.12  -0.07    -0.25   0.06   0.03     0.08   0.01   0.02
    18   1     0.02   0.10  -0.38    -0.05   0.13   0.23    -0.07   0.03  -0.13
    19   1     0.25   0.10  -0.03    -0.06   0.12  -0.04    -0.21   0.02  -0.14
    20   1     0.01   0.08  -0.28    -0.10   0.19  -0.03    -0.09   0.00  -0.02
    21   1    -0.08  -0.06  -0.00     0.19  -0.17   0.08    -0.11   0.13   0.28
    22   1    -0.10   0.08  -0.00     0.19  -0.02  -0.10    -0.03   0.02  -0.19
    23   1    -0.04   0.02  -0.00     0.42  -0.05   0.05     0.36  -0.11   0.01
    24   1     0.01   0.04  -0.00     0.32  -0.08   0.03    -0.07   0.05  -0.17
                     10                     11                     12
                      A                      A                      A
 Frequencies --    497.9038               527.3264               596.9156
 Red. masses --      3.9433                 3.8879                 5.2721
 Frc consts  --      0.5760                 0.6370                 1.1068
 IR Inten    --      3.3152                 0.6427                 0.6704
  Atom  AN      X      Y      Z        X      Y      Z        X      Y      Z
     1   8    -0.07   0.21   0.11    -0.00  -0.10   0.02     0.15   0.06   0.01
     2   6     0.09   0.04  -0.13    -0.09   0.01  -0.15     0.12   0.06  -0.16
     3   6     0.19  -0.05  -0.10    -0.10   0.05  -0.06    -0.09  -0.20   0.01
     4   6     0.03  -0.06  -0.11    -0.01  -0.08  -0.08    -0.08  -0.10   0.23
     5   6    -0.04  -0.11   0.12    -0.00  -0.11   0.06    -0.05  -0.02   0.18
     6   6    -0.12  -0.10   0.11     0.18   0.02   0.13    -0.06   0.19   0.07
     7   6     0.00   0.03   0.01     0.19   0.11   0.19    -0.11   0.03  -0.10
     8   6     0.07   0.03   0.03    -0.06   0.13  -0.03    -0.15  -0.01  -0.14
     9   6    -0.05  -0.08  -0.06     0.01   0.04  -0.08     0.12   0.04  -0.15
    10   6    -0.06   0.02  -0.02    -0.08  -0.01  -0.03     0.09  -0.03   0.02
    11   1     0.22  -0.07  -0.01    -0.01   0.02   0.12    -0.16  -0.21   0.04
    12   1    -0.14  -0.02   0.00     0.03  -0.02  -0.13     0.00   0.01   0.13
    13   1    -0.03   0.05  -0.36     0.01  -0.09  -0.00    -0.05  -0.04   0.30
    14   1    -0.03  -0.09   0.25    -0.13  -0.02  -0.27     0.00  -0.12   0.09
    15   1     0.02  -0.05   0.09    -0.25  -0.22   0.31    -0.00  -0.08   0.09
    16   1    -0.14  -0.08   0.04     0.14   0.05  -0.01    -0.09   0.18   0.10
    17   1     0.25   0.09   0.06     0.24   0.05   0.21     0.05  -0.03  -0.06
    18   1    -0.09   0.10  -0.26     0.21   0.06   0.16    -0.06  -0.06  -0.17
    19   1    -0.12   0.04   0.01    -0.04   0.06  -0.08     0.08   0.04  -0.06
    20   1     0.14   0.01   0.26    -0.10   0.04  -0.12    -0.18   0.11  -0.29
    21   1    -0.16  -0.30  -0.08    -0.08  -0.10  -0.10     0.09  -0.19  -0.16
    22   1    -0.12   0.12   0.03     0.05  -0.13   0.10     0.17  -0.08   0.17
    23   1    -0.12   0.06  -0.02    -0.25  -0.06  -0.05    -0.11  -0.02   0.01
    24   1     0.09   0.04   0.04    -0.19  -0.03  -0.04     0.12  -0.05   0.08
                     13                     14                     15
                      A                      A                      A
 Frequencies --    694.9294               771.1963               805.0257
 Red. masses --      4.3262                 3.0279                 2.3917
 Frc consts  --      1.2309                 1.0610                 0.9132
 IR Inten    --      2.8802                 1.6041                 1.6475
  Atom  AN      X      Y      Z        X      Y      Z        X      Y      Z
     1   8     0.10   0.07   0.04     0.03   0.08  -0.05    -0.03  -0.05  -0.01
     2   6    -0.06   0.21  -0.14     0.12  -0.05   0.27    -0.07   0.00   0.01
     3   6    -0.15   0.23   0.13    -0.06   0.04  -0.01     0.04   0.07   0.00
     4   6    -0.03   0.02   0.04    -0.05   0.03  -0.02     0.05   0.06   0.02
     5   6    -0.01  -0.01  -0.07     0.01  -0.03   0.05     0.02  -0.10   0.14
     6   6    -0.04  -0.22  -0.04     0.04  -0.12  -0.01     0.04  -0.13  -0.04
     7   6     0.03  -0.06   0.02     0.02   0.01   0.02    -0.12  -0.05  -0.10
     8   6     0.01   0.01   0.07    -0.08   0.07  -0.09    -0.02   0.05   0.01
     9   6    -0.01  -0.15  -0.09     0.04  -0.09  -0.14     0.05   0.12  -0.04
    10   6     0.10  -0.08   0.03    -0.04   0.00  -0.05     0.07   0.01   0.01
    11   1    -0.33   0.21   0.17    -0.01   0.04   0.02     0.08   0.08  -0.02
    12   1    -0.02  -0.10   0.07     0.19   0.05  -0.21    -0.21   0.19   0.17
    13   1    -0.02  -0.09   0.11     0.05   0.02   0.31    -0.06  -0.01  -0.27
    14   1     0.02  -0.01   0.07     0.01  -0.03   0.01    -0.16   0.15   0.06
    15   1     0.04   0.07  -0.08    -0.05   0.03   0.17    -0.17  -0.24   0.28
    16   1    -0.14  -0.26   0.02    -0.09  -0.14  -0.03     0.16  -0.10  -0.09
    17   1     0.06   0.08   0.01     0.01  -0.05   0.03    -0.04   0.10  -0.10
    18   1    -0.03  -0.01  -0.11    -0.01   0.05   0.03    -0.17  -0.01  -0.26
    19   1     0.22  -0.09   0.03    -0.28   0.09  -0.11     0.04   0.04   0.01
    20   1    -0.09   0.02  -0.26    -0.06  -0.08   0.07     0.00   0.17   0.01
    21   1     0.05  -0.37  -0.09    -0.10   0.24  -0.13     0.09   0.27  -0.02
    22   1     0.05  -0.01   0.01    -0.06   0.08   0.12     0.28  -0.20   0.15
    23   1     0.11  -0.04   0.04    -0.38   0.25  -0.05    -0.10  -0.07  -0.01
    24   1     0.23  -0.07   0.08     0.23  -0.07   0.28    -0.16  -0.03  -0.01
                     16                     17                     18
                      A                      A                      A
 Frequencies --    818.1370               823.9244               867.6951
 Red. masses --      1.4382                 1.7212                 1.8411
 Frc consts  --      0.5672                 0.6884                 0.8167
 IR Inten    --      0.3503                 1.6071                 8.4253
  Atom  AN      X      Y      Z        X      Y      Z        X      Y      Z
     1   8    -0.01  -0.02   0.01    -0.01   0.02   0.01    -0.02   0.02   0.01
     2   6    -0.04   0.02  -0.05     0.01   0.00  -0.02     0.05  -0.06  -0.04
     3   6     0.01   0.03  -0.01     0.04   0.07   0.01     0.08   0.09  -0.02
     4   6    -0.06   0.01   0.04     0.04  -0.00   0.13    -0.07   0.04   0.10
     5   6    -0.07  -0.06   0.05     0.07  -0.01   0.00    -0.03  -0.08  -0.05
     6   6     0.01  -0.03  -0.03     0.04   0.02  -0.01     0.04  -0.01  -0.02
     7   6     0.05   0.01  -0.06     0.03  -0.01  -0.06    -0.01  -0.07   0.03
     8   6     0.08   0.02  -0.02    -0.04   0.04  -0.10    -0.10   0.05  -0.01
     9   6     0.01   0.04  -0.00    -0.04  -0.08   0.04     0.00   0.01   0.04
    10   6     0.02   0.01   0.01    -0.05  -0.01  -0.00    -0.05   0.02  -0.00
    11   1     0.02   0.03  -0.03     0.10   0.08  -0.02     0.41   0.16  -0.14
    12   1     0.17  -0.08  -0.10    -0.26   0.07   0.33     0.10  -0.18   0.06
    13   1     0.03   0.20   0.26    -0.09  -0.21  -0.18    -0.00   0.17   0.24
    14   1     0.11  -0.27   0.26    -0.10   0.17  -0.22     0.14  -0.31   0.03
    15   1     0.15   0.21  -0.04    -0.11  -0.32   0.01     0.14   0.11  -0.12
    16   1     0.06  -0.02  -0.04     0.00   0.00   0.01     0.18   0.03  -0.09
    17   1    -0.29  -0.22  -0.11    -0.18  -0.27  -0.09     0.17   0.13   0.05
    18   1    -0.00   0.19   0.32     0.05   0.05   0.26     0.07  -0.27  -0.19
    19   1    -0.28   0.19   0.04    -0.28   0.15  -0.07     0.11  -0.19  -0.15
    20   1     0.11  -0.28   0.24    -0.03  -0.20   0.05    -0.11   0.27  -0.18
    21   1     0.03  -0.01  -0.00    -0.00  -0.15   0.05     0.05  -0.04   0.04
    22   1     0.09  -0.08   0.03    -0.19   0.13  -0.13    -0.07   0.03  -0.07
    23   1     0.00  -0.06  -0.00     0.11   0.02   0.01     0.06  -0.02  -0.00
    24   1    -0.10   0.00  -0.04     0.07   0.03  -0.03    -0.08   0.05  -0.08
                     19                     20                     21
                      A                      A                      A
 Frequencies --    873.9246               888.5342               958.1475
 Red. masses --      2.5970                 2.5687                 1.7213
 Frc consts  --      1.1686                 1.1948                 0.9310
 IR Inten    --      0.6301                 1.5935                 0.1909
  Atom  AN      X      Y      Z        X      Y      Z        X      Y      Z
     1   8    -0.01  -0.01   0.01    -0.05  -0.05  -0.01     0.00   0.00  -0.00
     2   6    -0.01  -0.01  -0.01    -0.06  -0.01   0.06     0.01  -0.01   0.01
     3   6     0.05   0.00   0.12     0.06   0.16  -0.00     0.02  -0.02   0.06
     4   6     0.03  -0.11  -0.10     0.04  -0.06   0.03     0.10   0.02  -0.03
     5   6    -0.02   0.14  -0.04    -0.02  -0.03  -0.05    -0.10  -0.00   0.03
     6   6     0.03  -0.02   0.11    -0.14   0.13   0.07    -0.04  -0.02  -0.06
     7   6    -0.03  -0.16  -0.10     0.01  -0.03   0.07     0.12   0.03   0.01
     8   6    -0.08   0.16  -0.04     0.05  -0.06  -0.08    -0.12  -0.02  -0.01
     9   6     0.00   0.02  -0.00     0.00   0.06  -0.09     0.02   0.01   0.01
    10   6     0.01   0.01   0.00     0.12  -0.03   0.01     0.00   0.02  -0.02
    11   1     0.20  -0.06   0.46     0.09   0.18  -0.03     0.08  -0.05   0.18
    12   1     0.10  -0.25  -0.11    -0.06  -0.19   0.14    -0.16  -0.01   0.18
    13   1     0.07  -0.04  -0.00     0.00  -0.12  -0.07     0.01   0.10  -0.36
    14   1     0.05   0.05   0.01     0.02  -0.08  -0.01    -0.03   0.01   0.41
    15   1     0.01   0.26  -0.01     0.09  -0.11  -0.24     0.12   0.12  -0.16
    16   1     0.19  -0.08   0.44    -0.24   0.12   0.06    -0.15  -0.01  -0.17
    17   1    -0.01  -0.26  -0.08     0.28  -0.15   0.14    -0.14  -0.08  -0.04
    18   1    -0.05  -0.11  -0.03    -0.03  -0.03  -0.10     0.24  -0.07   0.30
    19   1    -0.12   0.23   0.00    -0.25  -0.14  -0.19     0.15  -0.06   0.01
    20   1    -0.06   0.08   0.04     0.08  -0.20   0.11    -0.22  -0.04  -0.33
    21   1    -0.07  -0.08  -0.02    -0.16   0.15  -0.11    -0.04   0.10   0.00
    22   1     0.08  -0.06   0.05     0.24  -0.11   0.22     0.08  -0.05   0.08
    23   1    -0.03  -0.03  -0.00    -0.17   0.05   0.00    -0.13   0.02  -0.03
    24   1    -0.06  -0.00  -0.01     0.14  -0.10   0.18    -0.05  -0.02   0.04
                     22                     23                     24
                      A                      A                      A
 Frequencies --    972.7581              1011.5950              1040.8727
 Red. masses --      2.3454                 1.5140                 2.5165
 Frc consts  --      1.3076                 0.9128                 1.6064
 IR Inten    --      2.2092                 0.5415                 0.8796
  Atom  AN      X      Y      Z        X      Y      Z        X      Y      Z
     1   8    -0.02  -0.02  -0.00    -0.01  -0.01  -0.00     0.02   0.01   0.00
     2   6    -0.02   0.01   0.03    -0.01   0.00   0.02     0.01   0.01  -0.02
     3   6    -0.00   0.08   0.05     0.03   0.02   0.08    -0.03  -0.14   0.06
     4   6     0.01   0.03  -0.11    -0.02  -0.01  -0.05    -0.03   0.18  -0.01
     5   6    -0.02  -0.10   0.11     0.01   0.02   0.08     0.05  -0.11  -0.09
     6   6     0.07   0.19  -0.01    -0.04   0.02  -0.08    -0.08   0.01  -0.00
     7   6    -0.02  -0.05  -0.10    -0.00  -0.02   0.06     0.05  -0.11   0.05
     8   6     0.01  -0.02   0.07     0.00  -0.02  -0.07    -0.00   0.12  -0.00
     9   6    -0.04  -0.06  -0.03     0.02   0.01  -0.07    -0.08   0.05  -0.02
    10   6    -0.00  -0.10  -0.01    -0.04   0.01   0.06     0.06  -0.02   0.03
    11   1    -0.08   0.06   0.13     0.07  -0.03   0.29     0.02  -0.15   0.15
    12   1     0.05   0.04  -0.14     0.06   0.03  -0.12    -0.01   0.45  -0.12
    13   1     0.04   0.19  -0.08     0.02   0.06   0.05    -0.04   0.19  -0.03
    14   1     0.01  -0.17   0.05    -0.06   0.09   0.03    -0.01  -0.02  -0.12
    15   1     0.01   0.01   0.15    -0.08   0.03   0.18     0.06  -0.26  -0.20
    16   1     0.26   0.25  -0.13    -0.17   0.03  -0.21     0.03   0.08  -0.19
    17   1    -0.14  -0.02  -0.13     0.18  -0.03   0.10     0.28  -0.35   0.13
    18   1     0.10  -0.20   0.06     0.00  -0.06  -0.09     0.03  -0.09  -0.00
    19   1     0.16  -0.03   0.09    -0.17  -0.10  -0.16    -0.04   0.31   0.13
    20   1    -0.00   0.09  -0.05     0.02  -0.13   0.04     0.01  -0.02   0.10
    21   1    -0.11  -0.10  -0.04     0.47  -0.06  -0.01    -0.16  -0.01  -0.03
    22   1    -0.29   0.24  -0.08    -0.14   0.04  -0.24     0.06  -0.03   0.04
    23   1     0.04   0.17   0.03     0.39  -0.15   0.07     0.07  -0.03   0.03
    24   1     0.45  -0.07   0.19    -0.13   0.12  -0.24     0.07  -0.02   0.03
                     25                     26                     27
                      A                      A                      A
 Frequencies --   1049.1504              1071.8999              1092.6809
 Red. masses --      2.3162                 2.5460                 1.8886
 Frc consts  --      1.5021                 1.7235                 1.3285
 IR Inten    --     13.9020                 1.5734                10.4964
  Atom  AN      X      Y      Z        X      Y      Z        X      Y      Z
     1   8     0.01  -0.02   0.00     0.00   0.00   0.01     0.00   0.02   0.01
     2   6    -0.10   0.10  -0.01    -0.02   0.02  -0.03     0.06  -0.05  -0.09
     3   6     0.07  -0.10  -0.07     0.10  -0.03   0.15     0.00   0.03   0.00
     4   6     0.01  -0.06   0.09    -0.02   0.08  -0.03    -0.09  -0.06  -0.03
     5   6    -0.05   0.09   0.02     0.06  -0.02  -0.05     0.07   0.06   0.07
     6   6     0.07  -0.05  -0.10     0.09  -0.04   0.05    -0.07  -0.01  -0.08
     7   6     0.01  -0.01   0.09    -0.08   0.15  -0.00     0.05  -0.02  -0.02
     8   6    -0.00   0.05  -0.06    -0.05  -0.14  -0.12     0.00  -0.01   0.05
     9   6    -0.09   0.04   0.00    -0.09  -0.01   0.03    -0.10   0.04   0.06
    10   6     0.03  -0.12   0.01     0.06   0.00  -0.00     0.06  -0.02  -0.00
    11   1    -0.05  -0.15   0.06     0.13  -0.05   0.23     0.37   0.07   0.04
    12   1    -0.03  -0.09   0.13     0.07  -0.12  -0.02     0.11   0.01  -0.21
    13   1    -0.01   0.17  -0.08     0.02   0.32  -0.01    -0.00  -0.31   0.33
    14   1     0.02   0.02   0.08     0.07  -0.09  -0.22    -0.11   0.32   0.01
    15   1    -0.01   0.22   0.06    -0.08   0.15   0.22    -0.13  -0.10   0.21
    16   1     0.14  -0.04  -0.11     0.13   0.03  -0.18    -0.01   0.05  -0.27
    17   1     0.12   0.16   0.09    -0.05   0.13   0.01    -0.06  -0.04  -0.04
    18   1     0.03  -0.09  -0.10    -0.13   0.21  -0.08     0.09  -0.04   0.10
    19   1    -0.14  -0.02  -0.14    -0.10  -0.14  -0.13     0.05  -0.12  -0.02
    20   1     0.10   0.17   0.20    -0.07  -0.25  -0.15    -0.07  -0.10  -0.15
    21   1    -0.09   0.37   0.01    -0.37  -0.20  -0.01    -0.24   0.24   0.04
    22   1    -0.21   0.18  -0.03     0.16  -0.09   0.13     0.09  -0.02   0.11
    23   1     0.07   0.16   0.04    -0.11  -0.03  -0.01    -0.10   0.04  -0.01
    24   1     0.45  -0.10   0.21    -0.03  -0.05   0.07     0.08  -0.06   0.11
                     28                     29                     30
                      A                      A                      A
 Frequencies --   1122.4495              1128.7597              1140.2365
 Red. masses --      1.5850                 2.0653                 1.3420
 Frc consts  --      1.1766                 1.5504                 1.0280
 IR Inten    --      8.1128                 2.4033                 7.8143
  Atom  AN      X      Y      Z        X      Y      Z        X      Y      Z
     1   8    -0.01  -0.01   0.01    -0.00  -0.02   0.01    -0.01   0.01  -0.00
     2   6     0.03  -0.04  -0.08    -0.04   0.04  -0.06     0.06  -0.06   0.00
     3   6    -0.05   0.01   0.05     0.01   0.00   0.05    -0.07   0.01   0.02
     4   6     0.02   0.03  -0.02    -0.02   0.01   0.01     0.04  -0.00   0.01
     5   6    -0.01  -0.02  -0.03     0.01   0.00   0.01    -0.07   0.02  -0.01
     6   6    -0.03  -0.03   0.03    -0.00   0.04  -0.05     0.04   0.01  -0.03
     7   6    -0.04   0.01   0.03    -0.05  -0.04   0.01    -0.04  -0.01   0.05
     8   6     0.02  -0.02  -0.01     0.05   0.02  -0.04     0.05   0.02  -0.04
     9   6     0.11   0.07   0.05     0.14  -0.09   0.15    -0.02   0.01  -0.00
    10   6    -0.06  -0.06  -0.04    -0.04   0.05  -0.13     0.01   0.01   0.00
    11   1     0.15   0.04   0.03    -0.15  -0.07   0.26    -0.09   0.00   0.03
    12   1    -0.03  -0.04   0.05     0.02   0.14  -0.07    -0.08   0.14   0.05
    13   1     0.00  -0.05  -0.04    -0.01   0.06   0.04    -0.01  -0.33  -0.00
    14   1    -0.00  -0.01   0.06    -0.01   0.05   0.02    -0.09   0.16   0.37
    15   1     0.01   0.03  -0.02    -0.01  -0.03   0.02     0.05   0.06  -0.13
    16   1     0.18   0.00   0.06    -0.30   0.03  -0.24     0.52   0.14  -0.22
    17   1     0.12  -0.11   0.08     0.10   0.02   0.04     0.02   0.20   0.04
    18   1    -0.27   0.33  -0.13     0.10  -0.30  -0.07    -0.06  -0.02  -0.12
    19   1    -0.01   0.12   0.09    -0.15  -0.06  -0.13    -0.16  -0.02  -0.10
    20   1    -0.10  -0.35  -0.19     0.15   0.11   0.24     0.07  -0.09   0.09
    21   1     0.22   0.34   0.07     0.02  -0.06   0.14    -0.17  -0.37  -0.04
    22   1    -0.28   0.21  -0.07     0.08  -0.02   0.17     0.05  -0.03   0.02
    23   1    -0.05   0.22  -0.02    -0.49   0.16  -0.14    -0.01  -0.03  -0.00
    24   1     0.29  -0.04   0.10    -0.06  -0.07   0.14    -0.05   0.01  -0.02
                     31                     32                     33
                      A                      A                      A
 Frequencies --   1171.6006              1218.4825              1254.4199
 Red. masses --      1.0494                 1.5984                 1.5199
 Frc consts  --      0.8487                 1.3982                 1.4092
 IR Inten    --      0.2702                 7.7012                 9.4570
  Atom  AN      X      Y      Z        X      Y      Z        X      Y      Z
     1   8     0.00  -0.00  -0.00    -0.01   0.02   0.01    -0.02   0.01   0.02
     2   6    -0.01   0.01  -0.00     0.08  -0.08  -0.04     0.07  -0.07  -0.09
     3   6     0.01  -0.00  -0.00    -0.05   0.04  -0.05     0.00   0.02   0.09
     4   6    -0.03   0.01   0.00     0.04  -0.02   0.03     0.02   0.06  -0.03
     5   6    -0.01  -0.02   0.00    -0.01   0.02   0.04    -0.03  -0.03  -0.01
     6   6    -0.01  -0.01   0.01     0.00   0.03  -0.07     0.03  -0.02   0.05
     7   6     0.02   0.02  -0.01    -0.02  -0.03   0.03    -0.01   0.04  -0.02
     8   6     0.01  -0.01  -0.00     0.04   0.04   0.02     0.01  -0.01  -0.05
     9   6     0.01   0.02  -0.00    -0.07  -0.07   0.02    -0.03   0.02  -0.02
    10   6    -0.01  -0.02  -0.00     0.03   0.04   0.01    -0.00  -0.01   0.04
    11   1     0.16  -0.07   0.34    -0.29  -0.09   0.37    -0.41   0.02  -0.12
    12   1     0.01   0.37  -0.16    -0.05   0.04   0.08    -0.02  -0.02   0.04
    13   1    -0.02  -0.02   0.05     0.01   0.31  -0.19     0.01  -0.30   0.08
    14   1    -0.01  -0.01   0.01     0.14  -0.30  -0.33     0.02  -0.09   0.02
    15   1     0.11  -0.27  -0.30    -0.01   0.06   0.07     0.00   0.07   0.02
    16   1     0.08  -0.10   0.41     0.06  -0.02   0.16    -0.21  -0.07   0.09
    17   1    -0.23   0.31  -0.09     0.03   0.11   0.03    -0.08   0.08  -0.04
    18   1     0.03   0.02   0.04    -0.09   0.04  -0.09     0.23  -0.31   0.09
    19   1    -0.09  -0.30  -0.23    -0.05   0.01  -0.01    -0.09  -0.01  -0.07
    20   1     0.01   0.02   0.00    -0.08  -0.30  -0.19     0.13   0.23   0.23
    21   1     0.03   0.05  -0.00    -0.03   0.31   0.04    -0.08   0.50  -0.00
    22   1    -0.04   0.03  -0.01     0.13  -0.08   0.03    -0.06   0.03  -0.06
    23   1     0.02   0.03   0.01    -0.04  -0.09  -0.01     0.12  -0.02   0.04
    24   1     0.06  -0.00   0.01    -0.16   0.01  -0.02     0.01   0.03  -0.05
                     34                     35                     36
                      A                      A                      A
 Frequencies --   1261.0239              1273.1172              1306.7584
 Red. masses --      1.2657                 1.1544                 1.4965
 Frc consts  --      1.1859                 1.1024                 1.5057
 IR Inten    --      1.2412                 0.0281                 0.3411
  Atom  AN      X      Y      Z        X      Y      Z        X      Y      Z
     1   8     0.03   0.01  -0.00     0.00   0.00  -0.00     0.01   0.01   0.00
     2   6    -0.04   0.05   0.01     0.00  -0.00   0.00    -0.02   0.02  -0.01
     3   6    -0.04  -0.03   0.01    -0.01   0.01  -0.03     0.04  -0.02   0.07
     4   6     0.05   0.00  -0.01     0.04  -0.00   0.03     0.01   0.02  -0.05
     5   6    -0.05  -0.01   0.01    -0.05   0.01  -0.03    -0.03  -0.00   0.05
     6   6     0.05   0.02  -0.01     0.01  -0.01   0.02    -0.02   0.03  -0.08
     7   6    -0.05  -0.02   0.02     0.02   0.01  -0.05     0.03   0.01   0.03
     8   6     0.04   0.00  -0.02    -0.02  -0.02   0.05    -0.05  -0.01  -0.03
     9   6    -0.02  -0.03  -0.00    -0.00   0.00  -0.00    -0.09  -0.06   0.02
    10   6     0.00   0.01   0.01     0.00  -0.00   0.00     0.04   0.02  -0.05
    11   1     0.56   0.09  -0.16     0.07  -0.05   0.23    -0.04   0.07  -0.35
    12   1    -0.04   0.24  -0.03    -0.05   0.37  -0.04    -0.00   0.03  -0.04
    13   1     0.00  -0.31  -0.01    -0.01  -0.31   0.02     0.02  -0.23   0.07
    14   1     0.07  -0.23  -0.09     0.09  -0.24  -0.14     0.03  -0.13  -0.10
    15   1    -0.01   0.18   0.08    -0.05   0.29   0.17     0.04  -0.03  -0.05
    16   1    -0.30  -0.06   0.08    -0.07   0.04  -0.22     0.34  -0.01   0.33
    17   1    -0.04   0.21  -0.00     0.12  -0.36   0.02     0.10  -0.09   0.06
    18   1     0.08  -0.24  -0.05    -0.14   0.29   0.01    -0.08   0.19  -0.00
    19   1     0.01   0.21   0.12    -0.00  -0.30  -0.15     0.03   0.01   0.01
    20   1    -0.03  -0.28  -0.09     0.04   0.26   0.10     0.02   0.15   0.10
    21   1    -0.05   0.06  -0.00     0.00   0.01  -0.00     0.55   0.02   0.11
    22   1     0.02  -0.02  -0.01    -0.01   0.01  -0.01     0.13  -0.05   0.11
    23   1     0.01  -0.04   0.00     0.00  -0.01   0.00    -0.20  -0.01  -0.07
    24   1    -0.03   0.00  -0.01    -0.00   0.00  -0.00    -0.04  -0.07   0.11
                     37                     38                     39
                      A                      A                      A
 Frequencies --   1315.0663              1338.5865              1350.6697
 Red. masses --      1.5157                 1.4835                 1.4273
 Frc consts  --      1.5444                 1.5662                 1.5341
 IR Inten    --      1.3625                 0.4566                 0.3013
  Atom  AN      X      Y      Z        X      Y      Z        X      Y      Z
     1   8     0.01   0.00   0.00    -0.02  -0.01  -0.00    -0.01  -0.01   0.00
     2   6    -0.03   0.03  -0.02     0.02  -0.03   0.01    -0.00  -0.00  -0.00
     3   6     0.06   0.02  -0.01     0.11   0.06  -0.04     0.02   0.01  -0.00
     4   6    -0.04  -0.03   0.00    -0.02  -0.04   0.03     0.00   0.05  -0.04
     5   6    -0.03   0.01   0.00    -0.02   0.03  -0.01    -0.02   0.05   0.08
     6   6     0.11   0.03  -0.00     0.01  -0.05   0.02    -0.00   0.00  -0.03
     7   6    -0.05   0.02   0.01    -0.04   0.04   0.01     0.06  -0.08   0.04
     8   6    -0.02  -0.04   0.00    -0.02  -0.04  -0.02    -0.04  -0.05  -0.05
     9   6     0.01  -0.12  -0.02    -0.03   0.08   0.01     0.05   0.02   0.01
    10   6    -0.01   0.03   0.04     0.01  -0.03  -0.03    -0.01  -0.00   0.02
    11   1     0.01   0.01   0.05    -0.33  -0.04   0.16    -0.03  -0.02   0.11
    12   1     0.04   0.19  -0.14     0.03   0.40  -0.17    -0.01  -0.17   0.05
    13   1    -0.01   0.01   0.08    -0.01  -0.14   0.09     0.01  -0.23   0.10
    14   1    -0.10   0.19   0.30     0.05  -0.11  -0.08     0.09  -0.23  -0.30
    15   1     0.12  -0.22  -0.34     0.02  -0.01  -0.08     0.08  -0.18  -0.20
    16   1     0.04   0.03  -0.04    -0.05  -0.04  -0.07    -0.13   0.01  -0.17
    17   1     0.24  -0.29   0.10     0.05  -0.02   0.04    -0.19   0.26  -0.05
    18   1    -0.13   0.13  -0.08     0.14  -0.25   0.03    -0.23   0.33  -0.13
    19   1     0.11   0.15   0.17     0.18   0.37   0.31     0.11   0.25   0.19
    20   1    -0.03   0.01  -0.05    -0.08  -0.14  -0.15     0.06   0.19   0.15
    21   1    -0.23   0.45  -0.03     0.24  -0.28   0.03    -0.32  -0.08  -0.04
    22   1     0.03  -0.06  -0.07    -0.02   0.04   0.06    -0.04   0.01  -0.03
    23   1     0.07  -0.12   0.02    -0.05   0.09  -0.02     0.05   0.01   0.02
    24   1    -0.13   0.05  -0.07     0.08  -0.04   0.05    -0.00   0.03  -0.04
                     40                     41                     42
                      A                      A                      A
 Frequencies --   1355.6766              1374.2165              1385.4148
 Red. masses --      1.4112                 1.7000                 1.5222
 Frc consts  --      1.5281                 1.8915                 1.7214
 IR Inten    --      0.2440                 6.6421                 8.8528
  Atom  AN      X      Y      Z        X      Y      Z        X      Y      Z
     1   8     0.01   0.01  -0.00    -0.00  -0.01  -0.00     0.00   0.02   0.00
     2   6    -0.00   0.00   0.01    -0.05   0.05   0.01     0.04  -0.05  -0.02
     3   6    -0.05  -0.01  -0.08     0.10  -0.01  -0.04    -0.08   0.05   0.01
     4   6    -0.01   0.07  -0.00    -0.02   0.03   0.03     0.01  -0.08   0.03
     5   6    -0.00   0.01  -0.00     0.03  -0.06  -0.08     0.02  -0.04  -0.06
     6   6     0.03  -0.01   0.10    -0.11   0.04   0.04     0.01   0.03  -0.00
     7   6    -0.02   0.01  -0.02     0.05  -0.05   0.02     0.04  -0.03   0.02
     8   6     0.02  -0.04  -0.00    -0.02   0.01  -0.02    -0.02  -0.09  -0.07
     9   6    -0.08  -0.03  -0.02     0.05  -0.09  -0.02    -0.04   0.02   0.01
    10   6     0.02   0.01  -0.02    -0.01   0.03   0.01     0.02  -0.00  -0.00
    11   1     0.24  -0.10   0.46    -0.18  -0.09   0.15     0.21   0.08   0.07
    12   1    -0.01  -0.39   0.17     0.02   0.07  -0.01    -0.02   0.25  -0.07
    13   1    -0.02  -0.13   0.06    -0.02  -0.27   0.12     0.00   0.37  -0.14
    14   1    -0.01   0.04   0.05    -0.05   0.11   0.11    -0.07   0.19   0.22
    15   1     0.06  -0.12  -0.17    -0.15   0.31   0.39    -0.08   0.16   0.20
    16   1     0.02   0.09  -0.29     0.34   0.13  -0.01    -0.13  -0.02   0.12
    17   1    -0.03   0.06  -0.03    -0.23   0.35  -0.08    -0.09   0.17  -0.03
    18   1     0.06  -0.10   0.06    -0.01   0.05   0.02    -0.09   0.17  -0.02
    19   1     0.04   0.08   0.09     0.08   0.14   0.10     0.10   0.28   0.22
    20   1     0.07   0.06   0.09    -0.07  -0.13  -0.10     0.16   0.36   0.30
    21   1     0.49   0.14   0.07     0.01   0.28  -0.01     0.11   0.00   0.03
    22   1     0.06  -0.02   0.05     0.04  -0.06  -0.06    -0.02   0.05   0.01
    23   1    -0.06  -0.02  -0.03     0.01  -0.08  -0.00    -0.07   0.02  -0.01
    24   1     0.00  -0.04   0.07    -0.03   0.03  -0.02    -0.06  -0.02   0.00
                     43                     44                     45
                      A                      A                      A
 Frequencies --   1394.3957              1397.3592              1431.7140
 Red. masses --      1.5090                 1.3908                 1.2222
 Frc consts  --      1.7287                 1.6000                 1.4761
 IR Inten    --      1.0938                 0.2192                 6.0267
  Atom  AN      X      Y      Z        X      Y      Z        X      Y      Z
     1   8     0.01   0.00  -0.00    -0.00  -0.00  -0.00    -0.01  -0.00   0.00
     2   6    -0.02   0.01  -0.00    -0.00   0.00   0.01     0.02  -0.01  -0.01
     3   6    -0.05   0.02   0.03    -0.02   0.01  -0.06    -0.00   0.00  -0.00
     4   6     0.02  -0.05   0.00     0.00   0.06  -0.01    -0.00   0.00   0.00
     5   6     0.00   0.06   0.03     0.01  -0.04   0.00    -0.00  -0.02  -0.00
     6   6    -0.12  -0.06   0.03    -0.03   0.00  -0.12     0.02   0.01  -0.02
     7   6    -0.01   0.06  -0.00    -0.03   0.07   0.02    -0.00  -0.01   0.00
     8   6     0.01  -0.04  -0.03    -0.00  -0.05  -0.01    -0.00  -0.00  -0.00
     9   6     0.07  -0.04  -0.02     0.04   0.02   0.01    -0.01   0.01   0.01
    10   6    -0.04   0.02   0.01    -0.00  -0.01   0.01    -0.11   0.05  -0.05
    11   1     0.23   0.08  -0.07     0.11  -0.08   0.36    -0.02  -0.01   0.03
    12   1    -0.00   0.15  -0.06    -0.04  -0.24   0.14    -0.01  -0.00   0.01
    13   1     0.01   0.20  -0.12     0.00  -0.18   0.11    -0.00  -0.01   0.01
    14   1     0.10  -0.19  -0.33    -0.01   0.00   0.07    -0.05   0.06   0.03
    15   1     0.01  -0.06  -0.07    -0.08   0.05   0.18     0.02   0.06   0.02
    16   1     0.55   0.11  -0.20     0.14  -0.13   0.51    -0.11  -0.03   0.07
    17   1     0.02  -0.07   0.02     0.23  -0.26   0.11     0.01  -0.00   0.00
    18   1     0.22  -0.28   0.11     0.13  -0.15   0.06    -0.04   0.05  -0.03
    19   1     0.03   0.11   0.08     0.11   0.12   0.13     0.00   0.01   0.01
    20   1     0.10   0.14   0.15     0.07   0.09   0.12     0.00   0.01   0.00
    21   1    -0.09   0.16  -0.03    -0.26  -0.13  -0.04     0.01  -0.03   0.01
    22   1     0.07  -0.11  -0.01    -0.03   0.02  -0.04     0.35  -0.41   0.26
    23   1     0.12  -0.06   0.01    -0.00   0.02   0.01     0.49  -0.14  -0.01
    24   1     0.08   0.04   0.00    -0.01   0.02  -0.05     0.50   0.04   0.27
                     46                     47                     48
                      A                      A                      A
 Frequencies --   1514.0935              1523.5048              1524.4907
 Red. masses --      1.0725                 1.0640                 1.0636
 Frc consts  --      1.4486                 1.4551                 1.4563
 IR Inten    --      0.1928                 4.1070                 2.5175
  Atom  AN      X      Y      Z        X      Y      Z        X      Y      Z
     1   8     0.00   0.00   0.00     0.00   0.00   0.00     0.00   0.00  -0.00
     2   6    -0.00   0.00  -0.00     0.00  -0.00  -0.00     0.00  -0.00  -0.00
     3   6    -0.00   0.00  -0.01    -0.01   0.00   0.00    -0.01   0.00   0.00
     4   6     0.01  -0.02  -0.03    -0.00   0.00   0.01    -0.01   0.02   0.04
     5   6    -0.00  -0.03   0.02     0.00   0.03  -0.02     0.00   0.01  -0.01
     6   6     0.00  -0.00   0.01     0.01   0.01   0.00    -0.00   0.00  -0.00
     7   6     0.02   0.02   0.02     0.01   0.01   0.02     0.02   0.02   0.02
     8   6    -0.02   0.03  -0.01    -0.02   0.03  -0.01    -0.01   0.01  -0.01
     9   6     0.00  -0.00  -0.00    -0.02  -0.00   0.01     0.01   0.01  -0.01
    10   6     0.00  -0.00  -0.01    -0.01  -0.00   0.03     0.01   0.03  -0.03
    11   1     0.00  -0.00   0.01     0.01   0.01  -0.01    -0.00   0.00   0.01
    12   1    -0.29   0.08   0.18     0.08  -0.02  -0.05     0.30  -0.09  -0.18
    13   1     0.12   0.12   0.30    -0.04  -0.02  -0.09    -0.13  -0.11  -0.31
    14   1    -0.19   0.20  -0.21     0.15  -0.15   0.19     0.07  -0.07   0.09
    15   1     0.23   0.24  -0.10    -0.18  -0.19   0.08    -0.09  -0.10   0.04
    16   1     0.01   0.00  -0.01    -0.02   0.01  -0.01    -0.00  -0.00   0.02
    17   1    -0.27  -0.20  -0.03    -0.20  -0.14  -0.03    -0.23  -0.17  -0.02
    18   1     0.01  -0.10  -0.32    -0.00  -0.05  -0.24     0.01  -0.08  -0.27
    19   1     0.32  -0.11  -0.03     0.32  -0.12  -0.04     0.12  -0.04  -0.01
    20   1     0.03  -0.23   0.25     0.03  -0.21   0.26     0.02  -0.07   0.10
    21   1     0.01   0.02  -0.00     0.05  -0.01   0.02    -0.03  -0.01  -0.01
    22   1    -0.04   0.09   0.13     0.15  -0.28  -0.26    -0.15   0.22   0.00
    23   1     0.08   0.02   0.00    -0.25   0.16   0.02     0.11  -0.41  -0.05
    24   1    -0.12  -0.05   0.03     0.30   0.20  -0.28    -0.16  -0.21   0.42
                     49                     50                     51
                      A                      A                      A
 Frequencies --   1531.7770              1537.2992              1549.9100
 Red. masses --      1.0703                 1.0736                 1.0891
 Frc consts  --      1.4795                 1.4949                 1.5414
 IR Inten    --      2.3461                 7.6846                 5.2354
  Atom  AN      X      Y      Z        X      Y      Z        X      Y      Z
     1   8     0.00   0.00  -0.00     0.00   0.00   0.00     0.00   0.00   0.00
     2   6    -0.00  -0.00   0.00    -0.00  -0.00  -0.00     0.00  -0.01  -0.00
     3   6    -0.00  -0.00   0.00    -0.00   0.00   0.00    -0.00   0.01   0.00
     4   6    -0.01   0.02   0.04     0.00  -0.00  -0.00    -0.01   0.01   0.04
     5   6    -0.00  -0.02   0.01     0.00   0.03  -0.02    -0.00  -0.04   0.04
     6   6    -0.00   0.01  -0.00    -0.00   0.00   0.00     0.00  -0.01  -0.00
     7   6     0.01   0.01   0.02    -0.02  -0.02  -0.03    -0.02  -0.01  -0.03
     8   6     0.01  -0.01   0.01    -0.03   0.03  -0.02    -0.02   0.02  -0.02
     9   6    -0.01  -0.02  -0.00     0.00  -0.01  -0.01     0.00   0.01   0.00
    10   6    -0.01  -0.04  -0.01    -0.00  -0.02  -0.03     0.00   0.01   0.02
    11   1     0.01  -0.00   0.02    -0.01   0.01  -0.02    -0.01   0.01   0.01
    12   1     0.30  -0.09  -0.18     0.00   0.01  -0.01     0.27  -0.07  -0.16
    13   1    -0.13  -0.13  -0.30    -0.00   0.01  -0.01    -0.12  -0.10  -0.27
    14   1    -0.10   0.10  -0.10     0.14  -0.15   0.16    -0.23   0.23  -0.27
    15   1     0.11   0.13  -0.03    -0.17  -0.18   0.08     0.29   0.29  -0.14
    16   1     0.03   0.01   0.02     0.01   0.01  -0.03    -0.02  -0.02   0.01
    17   1    -0.18  -0.14  -0.02     0.25   0.18   0.02     0.25   0.17   0.03
    18   1     0.01  -0.06  -0.22    -0.01   0.09   0.30    -0.01   0.07   0.29
    19   1    -0.13   0.05   0.02     0.36  -0.13  -0.04     0.26  -0.09  -0.03
    20   1    -0.01   0.10  -0.10     0.03  -0.25   0.29     0.02  -0.17   0.21
    21   1     0.01   0.03   0.00    -0.02   0.03  -0.01    -0.02  -0.02  -0.00
    22   1     0.07   0.01   0.38    -0.03   0.15   0.41     0.01  -0.07  -0.21
    23   1     0.18   0.48   0.06     0.30   0.21   0.03    -0.16  -0.09  -0.01
    24   1    -0.12   0.09  -0.32    -0.22  -0.05  -0.04     0.11   0.03  -0.00
                     52                     53                     54
                      A                      A                      A
 Frequencies --   1816.8671              3002.5019              3041.8721
 Red. masses --     11.8153                 1.0820                 1.0666
 Frc consts  --     22.9795                 5.7472                 5.8147
 IR Inten    --    183.7129                14.3845                 6.4663
  Atom  AN      X      Y      Z        X      Y      Z        X      Y      Z
     1   8    -0.37  -0.36  -0.01     0.00  -0.00   0.00     0.00   0.00  -0.00
     2   6     0.56   0.55   0.02     0.00   0.00  -0.00    -0.00  -0.00  -0.00
     3   6    -0.05  -0.03   0.00    -0.00  -0.00  -0.00     0.00   0.00   0.00
     4   6    -0.01  -0.01   0.01     0.00  -0.00  -0.00     0.00  -0.00  -0.01
     5   6     0.00   0.00   0.00     0.00   0.00   0.00    -0.00  -0.01   0.01
     6   6     0.00  -0.02  -0.00    -0.00   0.00  -0.00    -0.01   0.04   0.01
     7   6     0.00   0.00  -0.00    -0.00   0.00   0.00    -0.02  -0.03  -0.04
     8   6    -0.01  -0.01  -0.01    -0.00  -0.00   0.00     0.02  -0.02   0.01
     9   6    -0.04  -0.04  -0.00     0.01   0.00  -0.08     0.00   0.00   0.00
    10   6     0.02   0.00   0.01    -0.00   0.00   0.01     0.00  -0.00  -0.00
    11   1     0.25   0.06  -0.05     0.00   0.00   0.00     0.01  -0.04  -0.01
    12   1     0.05   0.02  -0.03     0.00  -0.00  -0.00     0.04   0.02   0.05
    13   1    -0.03   0.03  -0.05    -0.01   0.00   0.00    -0.07   0.01   0.02
    14   1    -0.01   0.01  -0.02    -0.01  -0.01   0.00     0.11   0.07  -0.02
    15   1     0.01   0.01  -0.00     0.00  -0.00   0.00    -0.09   0.04  -0.07
    16   1    -0.00  -0.03  -0.01     0.01  -0.06  -0.01     0.08  -0.49  -0.13
    17   1     0.00   0.00  -0.00     0.01  -0.00  -0.04    -0.13   0.04   0.51
    18   1     0.00   0.00   0.01    -0.00  -0.00   0.00     0.42   0.26  -0.09
    19   1     0.05   0.02   0.01     0.00   0.00  -0.01     0.05   0.14  -0.20
    20   1    -0.00   0.01   0.05     0.00  -0.00  -0.00    -0.28   0.04   0.09
    21   1     0.02   0.05   0.01    -0.14  -0.04   0.98     0.00  -0.00  -0.01
    22   1    -0.02   0.07   0.02     0.01   0.01  -0.00    -0.01  -0.01   0.00
    23   1    -0.03   0.04   0.02     0.01   0.01  -0.06     0.00   0.00  -0.01
    24   1    -0.11  -0.00  -0.06     0.00  -0.03  -0.01    -0.00   0.03   0.01
                     55                     56                     57
                      A                      A                      A
 Frequencies --   3047.0006              3050.9871              3054.7929
 Red. masses --      1.0632                 1.0687                 1.0394
 Frc consts  --      5.8160                 5.8610                 5.7150
 IR Inten    --      0.1729                57.7757                27.0868
  Atom  AN      X      Y      Z        X      Y      Z        X      Y      Z
     1   8    -0.00  -0.00   0.00     0.00  -0.00  -0.00     0.00   0.00   0.00
     2   6     0.00   0.00  -0.00    -0.00   0.00   0.00     0.00  -0.00  -0.00
     3   6     0.00  -0.00  -0.00    -0.00   0.01   0.00     0.00  -0.00  -0.00
     4   6    -0.03   0.01   0.03     0.02  -0.01  -0.03    -0.01   0.01   0.01
     5   6     0.01   0.03  -0.02    -0.00  -0.00   0.00     0.00  -0.01   0.01
     6   6     0.00  -0.02  -0.01     0.01  -0.05  -0.01    -0.00   0.00   0.00
     7   6    -0.01  -0.01  -0.01    -0.00  -0.00  -0.00    -0.00  -0.00  -0.00
     8   6     0.02  -0.01   0.01     0.03  -0.02   0.01    -0.00   0.00  -0.00
     9   6     0.00  -0.00  -0.00     0.00  -0.00  -0.00     0.00   0.00  -0.00
    10   6     0.00  -0.00   0.00    -0.01   0.01  -0.00    -0.03   0.03  -0.02
[...]
 0,0.00043129,-0.00042550,0.00023364,0.00072222,-0.00009629,-0.00132325
 ,0.00255206,-0.00456354,0.00019827,-0.12920635,0.11864760,-0.00941201,
 0.00607207,-0.00944480,0.00097137,-0.00025220,-0.00063973,0.00218984,-
 0.02015835,0.02714113,-0.00177037,0.00170631,0.00158936,-0.00028600,0.
 00005781,0.00011776,-0.00000933,0.00017776,-0.00022609,0.00001301,0.00
 003168,0.00000920,0.00022322,0.00055193,0.00005674,0.00056568,0.000055
 03,0.00027427,0.00034238,0.14112116,-0.00041376,0.00124660,0.00000675,
 -0.00253849,-0.00140443,-0.00006042,-0.00080742,0.00099677,-0.00006723
 ,-0.00107757,-0.00019211,-0.00323500,0.00982934,-0.01487157,0.00106337
 ,0.11835706,-0.22326529,0.01341883,0.00957842,-0.01420912,0.00124882,-
 0.00167675,-0.00014047,0.00274998,-0.00570248,0.00812697,-0.00026236,-
 0.00010907,0.00093862,-0.00017785,-0.00000857,0.00007033,-0.00000156,0
 .00026029,-0.00061789,-0.00001925,0.00034302,-0.00055828,0.00000749,-0
 .00049171,0.00021574,0.00038168,0.00003451,0.00084731,-0.00023813,-0.1
 2696041,0.24209711,-0.00036393,0.00028735,0.00009240,-0.00022283,-0.00
 075181,0.00038650,0.00005743,-0.00008612,-0.00044730,-0.00180207,-0.00
 228430,-0.00473104,0.01647596,-0.02441221,0.00160136,-0.00973691,0.013
 42986,-0.04952969,-0.01595798,0.02318814,-0.00253881,0.00291216,0.0021
 7446,-0.00394667,-0.00209396,0.00324152,-0.00042761,0.00047401,-0.0003
 5505,0.00014261,-0.00000025,0.00002427,0.00016103,0.00051952,-0.000932
 04,0.00003631,0.00062274,-0.00100685,-0.00007327,-0.00027606,0.0006844
 4,0.00108068,0.00040073,0.00084317,0.00093172,0.01026604,-0.01471831,0
 .05572774,-0.00007028,-0.00033692,-0.00006541,-0.00004649,0.00087612,0
 .00008724,-0.00112555,0.00236363,-0.00050387,-0.00003705,-0.00027649,-
 0.00041613,-0.00038724,-0.00091432,0.00100079,-0.00032462,0.00510494,0
 .00780266,-0.05255048,-0.01328954,-0.01689885,-0.00031232,0.01179238,0
 .01522787,0.00070426,0.00069976,0.00116684,0.00018330,-0.00005472,-0.0
 0014756,-0.00054370,-0.00009539,0.00061111,0.00004910,-0.00009678,0.00
 000389,-0.00001328,0.00006417,-0.00000289,0.00041942,0.00009179,0.0002
 8622,0.00049663,0.00026745,0.00041285,0.00025068,-0.00001668,-0.000545
 57,0.05462822,0.00030216,0.00035385,0.00009104,-0.00046199,-0.00087385
 ,-0.00016128,0.00082223,-0.00267187,0.00116043,-0.00008178,-0.00017538
 ,0.00032606,-0.00166243,-0.00183217,0.00286932,0.00117472,0.01098737,0
 .01633694,-0.01264905,-0.12896072,-0.12089063,-0.00124130,-0.01490497,
 -0.01924549,0.00071717,0.00083192,0.00025858,0.00025388,0.00013471,0.0
 0015260,0.00060281,0.00011720,-0.00081424,-0.00001977,0.00008982,-0.00
 008873,-0.00001938,0.00013021,0.00007373,0.00007163,-0.00009941,-0.000
 04087,0.00006667,0.00059733,0.00116559,0.00038524,0.00092787,-0.000725
 05,0.01052144,0.14116950,0.00010909,0.00018420,-0.00000658,-0.00001851
 ,-0.00072470,-0.00003122,0.00008348,0.00038636,0.00030503,-0.00045542,
 0.00068347,0.00035961,0.00222935,0.00504602,-0.00389414,-0.00263881,-0
 .01534764,-0.02316695,-0.01538904,-0.12052442,-0.22410391,-0.00071649,
 0.00403783,0.00402179,-0.00176044,-0.00108512,0.00059332,0.00003314,0.
 00026366,0.00030367,-0.00001374,0.00001361,0.00003224,0.00009143,-0.00
 005961,0.00007858,0.00004053,-0.00010996,0.00003081,0.00002072,0.00022
 007,0.00047333,-0.00004000,-0.00124743,-0.00171801,-0.00056861,0.00021
 568,0.00082490,0.01888715,0.12769439,0.24504805,-0.00029870,0.00004668
 ,0.00000320,0.00101509,-0.00016191,-0.00026429,-0.00076569,0.00175405,
 -0.00105656,-0.00036262,0.00002584,-0.00026276,0.00012492,0.00020424,-
 0.00102851,-0.00894316,-0.00296782,-0.00093314,-0.28693717,-0.06637575
 ,-0.02556697,-0.01463799,-0.00385701,-0.00219713,0.00088336,-0.0015531
 8,0.00214805,-0.00059065,0.00032709,-0.00044468,-0.00039914,-0.0000195
 0,0.00063952,0.00013221,-0.00000486,0.00009292,0.00003694,0.00019594,0
 .00010135,0.00062084,0.00028231,0.00084074,0.00048428,0.00006353,-0.00
 003002,0.00057619,-0.00038815,0.00021253,-0.00178847,-0.00113948,-0.00
 101189,0.30993252,-0.00019712,0.00065745,0.00000208,-0.00001345,-0.001
 63974,0.00008959,0.00169769,-0.00196910,0.00114984,0.00004386,0.000124
 72,0.00009355,0.00057952,0.00047874,-0.00122238,-0.01855213,-0.0055837
 8,-0.00264548,-0.06712909,-0.06577786,-0.00914345,0.02685415,0.0043819
 5,0.00318737,-0.00036730,-0.00172952,0.00399983,-0.00128639,0.00039851
 ,-0.00023578,0.00051176,0.00004680,-0.00078658,-0.00005562,-0.00002105
 ,-0.00007288,-0.00000800,-0.00002847,-0.00007585,0.00023124,0.00035887
 ,0.00033797,0.00015054,-0.00010381,-0.00017694,0.00022035,0.00017250,-
 0.00065301,-0.01779288,-0.00513677,-0.00149155,0.07182166,0.07598622,0
 .00013537,-0.00031523,0.00002437,-0.00044519,0.00064399,-0.00003936,0.
 00021598,-0.00017873,-0.00032569,0.00004279,-0.00025185,-0.00003236,0.
 00140020,0.00038764,0.00173182,0.02736050,0.00740215,0.00180613,-0.026
 70880,-0.00984716,-0.05327702,-0.00201837,-0.00035653,-0.00103441,0.00
 025977,0.00258528,-0.00486989,0.00178611,0.00013180,0.00082737,-0.0000
 2402,-0.00008710,-0.00005076,-0.00005814,0.00003440,0.00001158,0.00005
 144,-0.00007233,-0.00011342,-0.00069284,-0.00025552,-0.00032540,-0.000
 28115,0.00008420,0.00042109,-0.00067338,-0.00047227,0.00097781,-0.0275
 7467,-0.00788651,-0.00206015,0.02749871,0.00667158,0.05505353,-0.00001
 735,0.00030144,-0.00019685,0.00187010,0.00028992,0.00039602,0.01202719
 ,-0.00025834,0.02077639,-0.00351335,-0.00033511,0.00349045,-0.00028872
 ,0.00011178,-0.00000329,-0.00162373,0.00080901,0.00076238,-0.00949725,
 0.00014904,-0.01394374,-0.11512543,-0.00354035,-0.11442473,-0.00021742
 ,-0.00006146,-0.00011344,0.00010251,-0.00004643,0.00008320,0.00087126,
 0.00012188,-0.00096453,0.00088848,0.00014416,0.00145392,-0.00001640,0.
 00023435,-0.00002359,0.00013078,-0.00006510,0.00009223,0.00006292,-0.0
 0004626,-0.00009499,0.00025707,0.00022962,-0.00046128,0.00151267,0.000
 04278,0.00014486,-0.00118034,0.00252345,-0.00045315,0.12317851,0.00008
 985,0.00017507,-0.00014570,0.00016949,-0.00012714,0.00094245,-0.001001
 22,-0.00053027,-0.00037353,0.00038713,0.00033869,-0.00054693,-0.000142
 93,-0.00010741,-0.00041842,0.00267462,-0.00191719,-0.00049914,0.013986
 87,-0.00186818,0.02233553,-0.00375889,-0.05002983,-0.00191456,0.000217
 62,0.00017677,0.00015185,-0.00020335,-0.00005140,-0.00008302,-0.000258
 00,0.00006671,-0.00019620,0.00013189,0.00041979,-0.00021089,0.00027098
 ,0.00030698,0.00036621,-0.00001642,-0.00002258,-0.00005005,-0.00010864
 ,0.00011611,0.00003712,-0.00037473,-0.00053246,0.00076670,-0.00005852,
 0.00158516,0.00036161,0.00173911,-0.00223133,0.00095222,-0.00016765,0.
 05435182,0.00140988,0.00014699,0.00024392,-0.00252262,-0.00121897,-0.0
 0028398,-0.01130000,0.00044293,-0.02086894,0.00507810,-0.00009286,-0.0
 0355976,0.00040192,-0.00056357,0.00055871,-0.00022364,0.00031176,0.000
 37733,0.00056044,-0.00108750,0.00052782,-0.11369694,-0.00147542,-0.244
 37473,-0.00023872,-0.00002908,-0.00049542,0.00008545,0.00012509,0.0000
 6038,0.00003109,-0.00046301,0.00072149,-0.00104003,0.00017705,-0.00153
 370,0.00020325,-0.00000306,0.00051244,-0.00006927,0.00007155,0.0000107
 7,0.00000171,0.00009301,0.00005266,0.00006710,0.00010457,-0.00009153,0
 .00045631,0.00004487,0.00190318,0.00066830,0.00027922,0.00009320,0.120
 70452,0.00368103,0.26573333,-0.00153771,-0.00168178,-0.00081397,-0.000
 93646,0.00470057,0.00413321,-0.01505877,-0.02028865,0.00305602,0.00110
 706,0.00075865,-0.00202895,0.00011387,-0.00004321,0.00001739,-0.001385
 06,0.00189476,0.00063463,0.00948313,0.01859199,-0.00010626,-0.12706067
 ,-0.12256142,-0.00595934,-0.00013061,-0.00042137,-0.00095828,0.0001810
 8,0.00015836,-0.00002249,0.00023223,0.00029619,-0.00054747,0.00001667,
 0.00029268,-0.00027954,0.00063660,0.00023470,0.00079987,0.00005259,-0.
 00001510,0.00000048,-0.00001264,-0.00001025,-0.00005424,0.00022178,0.0
 0035728,-0.00064418,-0.00080741,0.00221839,0.00014496,0.00189974,0.000
 38948,0.00005328,-0.00940296,-0.01350160,-0.00056157,0.14230068,0.0000
 1684,0.00002472,0.00034846,0.00006117,0.00071552,-0.00090700,0.0006994
 3,0.00188422,-0.00034065,0.00042624,0.00027021,-0.00014473,-0.00021520
 ,-0.00032312,-0.00027025,0.00239168,-0.00232875,-0.00107343,-0.0121276
 1,-0.01966334,-0.00083725,-0.12145406,-0.22695293,-0.00507485,0.000377
 71,0.00069284,-0.00016912,-0.00007404,-0.00000203,-0.00002809,-0.00033
 295,0.00056059,0.00042313,0.00021937,0.00029307,0.00005344,0.00009731,
 0.00019241,0.00082083,0.00014045,-0.00001894,0.00008561,0.00001866,0.0
 0012489,0.00011799,-0.00025242,-0.00055180,0.00102693,0.00145152,-0.00
 241720,0.00091184,0.00008192,0.00176014,0.00017858,-0.00043849,0.00009
 741,-0.00071558,0.12884866,0.24550766,0.00221379,0.00166744,0.00131185
 ,0.00142843,-0.00355977,-0.00499374,0.01722393,0.02372787,-0.00353906,
 0.00068464,0.00133617,0.00243087,-0.00017786,0.00019948,-0.00003173,-0
 .00039676,0.00075138,-0.00020803,0.00134648,0.00255182,-0.00055542,-0.
 00668026,-0.00545552,-0.04931145,-0.00024238,-0.00018485,0.00074823,-0
 .00007610,-0.00008483,0.00007647,-0.00064961,-0.00041460,0.00089304,-0
 .00007213,-0.00030518,0.00044783,-0.00070931,-0.00080662,-0.00024000,-
 0.00005395,0.00005320,-0.00011735,0.00000866,-0.00007633,0.00001237,-0
 .00011280,0.00009733,-0.00028707,0.00044926,-0.00014879,0.00002728,0.0
 0021114,0.00001076,0.00129161,-0.01724208,-0.02509691,0.00020101,0.002
 99554,0.00553042,0.05181025,-0.00084422,0.00026601,-0.00327029,0.00119
 892,0.00687848,0.01947353,-0.00027960,0.00110497,-0.00134453,-0.000756
 00,0.00041004,-0.00017320,-0.00681111,-0.00122704,0.00061019,-0.005519
 22,-0.01671019,-0.02884304,0.00118322,0.00000499,-0.00181959,0.0005552
 4,0.00024156,0.00012877,-0.04754543,-0.00700168,-0.02029534,0.00083987
 ,0.00291927,0.01163768,0.00018644,0.00025299,-0.00007024,0.00008225,-0
 .00012134,-0.00003159,0.00004760,-0.00005683,0.00000657,-0.00028615,-0
 .00131146,-0.00185065,0.00012834,0.00031396,0.00015534,0.00107688,0.00
 072467,0.00017259,-0.00025895,0.00006563,0.00098301,0.00029138,0.00054
 059,0.00000680,-0.00001353,-0.00007984,-0.00001270,0.00007673,0.000066
 56,-0.00014233,0.05599025,0.00005470,0.00113070,0.00307439,-0.00223903
 ,-0.01369424,-0.02719438,0.00151141,-0.00167273,0.00350844,0.00049378,
 0.00136463,0.00036143,-0.00170632,0.00012035,0.00018109,-0.00152446,-0
 .00334815,-0.00576433,-0.00022603,-0.00030032,-0.00108546,-0.00040783,
 -0.00094703,-0.00036488,-0.00852451,-0.08772593,-0.09978947,0.00091306
 ,0.00794813,0.02383179,-0.00038304,-0.00062078,0.00036603,-0.00000562,
 -0.00001533,0.00000575,0.00009398,-0.00002539,0.00020514,-0.00010206,-
 0.00024680,-0.00051950,-0.00001799,0.00007962,0.00003065,-0.00021646,0
 .00029636,0.00032951,-0.00041783,0.00012969,0.00065355,0.00016372,0.00
 021930,0.00030422,0.00000876,-0.00025540,0.00020078,-0.00021080,0.0001
 3762,0.00027885,0.01387610,0.09789625,0.00009688,0.00026150,0.00134587
 ,-0.00050277,-0.00167364,-0.00136386,0.00079861,-0.00034385,-0.0007476
 6,-0.00001150,0.00030461,-0.00001757,-0.00135796,0.00081115,0.00118042
 ,-0.00099686,-0.00270522,-0.00540535,0.00134189,0.00106095,0.00077388,
 0.00009814,0.00012327,-0.00009277,-0.02400945,-0.09309890,-0.24542244,
 -0.00045910,-0.00712483,-0.02362294,-0.00004521,-0.00014919,-0.0000488
 8,0.00000737,-0.00001924,0.00002599,0.00003614,-0.00007770,0.00003971,
 -0.00007088,-0.00037402,-0.00025664,0.00016626,0.00007603,0.00016659,-
 0.00021450,0.00027466,0.00004916,-0.00018844,-0.00013564,0.00073575,0.
 00001362,0.00029502,0.00026923,0.00006750,-0.00005341,0.00014459,0.000
 10702,0.00000428,0.00005284,0.02376172,0.09915591,0.27213212,0.0015146
 9,0.00174103,-0.00066223,-0.00226509,0.00085687,-0.00010299,0.00005762
 ,0.00003832,-0.00005205,-0.00008277,0.00004053,-0.00004482,0.00018192,
 0.00017249,0.00022809,0.00088706,-0.00086795,0.00230810,-0.00066052,-0
 .00018842,-0.00048293,-0.00008811,0.00013329,0.00002009,-0.01072158,-0
 .00368693,-0.00111473,-0.30545133,-0.04161251,-0.04694723,0.00004305,-
 0.00005839,-0.00000902,0.00002468,-0.00002852,-0.00002418,0.00002239,-
 0.00003703,-0.00000449,-0.00002520,-0.00002733,-0.00002394,0.00001614,
 0.00002490,-0.00001062,0.00029741,0.00007872,-0.00007239,0.00001115,0.
 00002558,0.00001644,-0.00008232,-0.00019396,0.00024313,0.00003021,-0.0
 0003539,0.00002453,0.00002823,-0.00003326,-0.00000966,0.00045624,0.000
 19931,0.00020322,0.33018908,0.00215397,0.00083195,-0.00029020,-0.00372
 960,0.00027371,-0.00091555,0.00044385,0.00016754,0.00009566,-0.0000115
 5,0.00034202,-0.00008491,-0.00006584,0.00034292,0.00016105,0.00047834,
 -0.00284714,0.00365918,-0.00150881,-0.00013047,-0.00041529,-0.00012710
 ,0.00034267,0.00008827,-0.02238593,-0.00548939,-0.00453637,-0.03883802
 ,-0.05480226,-0.00868997,0.00004400,-0.00002349,0.00001402,-0.00000283
 ,-0.00003939,-0.00003085,0.00009233,-0.00003020,0.00011891,-0.00001065
 ,-0.00007880,0.00001233,0.00014779,-0.00005979,0.00013202,-0.00013675,
 0.00016771,0.00003969,0.00004768,0.00001626,0.00002086,-0.00015783,-0.
 00032898,0.00045407,0.00001367,-0.00004924,0.00002124,0.00009631,-0.00
 001936,-0.00007069,0.00060480,0.00084323,-0.00020875,0.04594402,0.0566
 9791,-0.00065333,-0.00044224,-0.00086576,0.00055424,-0.00024991,0.0009
 3003,-0.00001243,-0.00015711,0.00018557,-0.00009442,-0.00001291,0.0000
 6132,-0.00003199,0.00002725,-0.00065443,-0.00014508,0.00315241,-0.0035
 0633,0.00131046,0.00041520,0.00055798,0.00007579,-0.00019276,-0.000012
 03,0.02421440,0.00419064,0.00369135,-0.04786994,-0.00928815,-0.0572708
 9,-0.00003007,-0.00001054,0.00003698,-0.00001009,0.00006676,0.00001252
 ,0.00000729,-0.00003415,-0.00000556,-0.00000866,-0.00003299,0.00028293
 ,0.00005027,-0.00005480,0.00055697,-0.00030482,-0.00007494,-0.00012684
 ,-0.00002164,-0.00006500,0.00003685,0.00023180,0.00031825,-0.00040568,
 -0.00002749,0.00004830,-0.00001738,-0.00005670,0.00002945,0.00001846,0
 .00014391,-0.00086577,0.00082391,0.04981540,0.00664787,0.06093827,-0.0
 0001938,0.00026413,0.00046571,0.00018175,0.00056491,-0.00063235,-0.000
 06497,0.00005652,0.00008540,0.00014972,-0.00010145,-0.00006977,-0.0002
 5801,-0.00084559,0.00057177,0.00039272,0.00089767,0.00023920,0.0000442
 3,-0.00006420,-0.00002840,0.00002783,-0.00006627,-0.00002649,0.0009721
 3,0.00456483,0.01128653,-0.05235110,-0.00813381,-0.02511837,-0.0000398
 4,-0.00000545,-0.00004524,-0.00001192,0.00005863,0.00004724,-0.0000641
 6,0.00007856,-0.00004440,0.00005563,0.00023447,-0.00014902,-0.00085034
 ,-0.00083925,-0.00056982,-0.00012987,0.00002965,0.00005495,0.00001923,
 0.00001675,-0.00015716,-0.00004341,-0.00003164,-0.00006613,-0.00001338
 ,0.00002607,-0.00002982,-0.00003638,0.00001221,0.00002102,-0.00003379,
 -0.00201589,0.00186109,-0.00088836,-0.01185245,-0.03098911,0.05130062,
 0.00052024,0.00002034,-0.00052845,-0.00078368,0.00193377,0.00101418,-0
 .00006921,0.00010182,0.00014039,-0.00012082,-0.00000546,0.00011625,-0.
 00048042,-0.00050686,-0.00000415,0.00030732,0.00081726,-0.00058991,0.0
 0016769,0.00002212,-0.00000289,-0.00000784,0.00002879,0.00001183,0.003
 88074,0.00800566,0.02181682,-0.00817133,-0.08112223,-0.08433245,0.0000
 1987,0.00001494,-0.00001318,0.00004502,-0.00013398,-0.00009864,0.00003
 422,0.00002641,-0.00008402,0.00008311,0.00009645,-0.00005512,-0.000906
 06,-0.00048721,-0.00009992,-0.00015633,-0.00003701,-0.00009877,0.00005
 905,-0.00001050,-0.00012470,-0.00003764,-0.00004651,-0.00010790,0.0000
 0372,0.00002506,-0.00005388,-0.00001678,-0.00001710,-0.00001608,-0.001
 73609,-0.00262830,0.00371755,0.00008045,-0.00257693,-0.00423845,0.0119
 9920,0.08561634,-0.00130859,0.00065474,0.00046523,0.00196427,-0.002385
 56,-0.00006890,-0.00006548,0.00024789,-0.00035480,-0.00017074,0.000189
 19,-0.00017587,-0.00021542,-0.00003822,-0.00063122,-0.00109131,-0.0007
 0833,-0.00011985,0.00015326,0.00005045,0.00003339,0.00004777,-0.000012
 56,0.00004003,-0.00236605,-0.00514954,-0.01994675,-0.02479444,-0.08400
 234,-0.27771875,0.00006197,0.00012391,0.00004780,-0.00000054,0.0001858
 9,0.00013397,0.00000148,-0.00007089,0.00010889,-0.00010907,-0.00012364
 ,0.00051010,-0.00002286,-0.00049121,0.00115478,0.00019261,0.00002214,-
 0.00000370,-0.00003977,0.00003634,0.00025631,0.00013015,0.00014017,0.0
 0000462,-0.00002228,-0.00003116,0.00008211,0.00004831,0.00003246,-0.00
 001796,0.00149430,0.00364031,-0.00189426,-0.00050051,-0.00207313,-0.00
 471986,0.02668779,0.09068915,0.30392340,0.00163086,0.00077520,-0.00055
 226,-0.00312149,-0.00085729,0.00168565,0.00042316,-0.00045462,-0.00035
 587,0.00003074,-0.00007375,0.00005922,-0.00011927,0.00004449,-0.000047
 96,0.00122640,-0.00050243,-0.00030818,0.00019194,0.00013860,0.00009047
 ,0.00012078,0.00002129,-0.00006706,0.00577208,-0.01329150,0.00025549,-
 0.11318275,0.11259904,0.00943850,-0.00004566,-0.00016091,-0.00003921,-
 0.00002812,0.00000235,-0.00000142,-0.00003384,0.00004423,-0.00002003,0
 .00000116,0.00000213,-0.00001131,0.00000456,-0.00001561,-0.00003837,-0
 .00007704,0.00036845,0.00000874,-0.00000883,-0.00001190,-0.00001404,0.
 00003219,0.00006329,-0.00005825,-0.00002183,0.00001355,0.00000273,0.00
 001827,0.00001831,-0.00001765,0.00023462,0.00068305,-0.00070278,-0.013
 49459,0.02876059,0.00385223,0.00166104,-0.00471444,-0.00007484,0.11878
 563,0.00053967,0.00010020,-0.00040588,-0.00362000,0.00018102,0.0033148
 1,0.00080252,-0.00070310,-0.00044341,0.00001657,-0.00009492,0.00017682
 ,-0.00021202,-0.00007507,-0.00012700,0.00138947,0.00024232,-0.00051942
 ,-0.00012686,0.00026768,0.00016549,0.00025633,0.00013559,-0.00028588,0
 .01052220,-0.01999870,-0.00006334,0.11294648,-0.24664860,-0.02014661,-
 0.00023152,-0.00032711,-0.00008192,-0.00002469,0.00008597,0.00002782,-
 0.00013319,0.00002619,-0.00007899,-0.00007470,-0.00004807,0.00001624,0
 .00011058,-0.00010256,-0.00002137,-0.00112480,0.00027654,-0.00001251,0
 .00001013,0.00001195,0.00002196,-0.00004297,0.00001170,0.00000098,-0.0
 0002439,0.00006284,0.00000286,-0.00008708,0.00003329,0.00001545,-0.000
 02615,0.00131451,-0.00012055,-0.00256581,0.00644955,0.00082360,0.00515
 237,-0.00913687,-0.00092603,-0.12345212,0.26793564,-0.00071041,-0.0001
 3785,0.00052054,0.00390467,0.00225722,-0.00286496,-0.00093006,0.000948
 26,0.00030746,0.00001587,0.00017077,-0.00032146,-0.00012779,-0.0000336
 6,-0.00019379,-0.00069158,-0.00057715,0.00059972,-0.00024406,-0.000089
 55,-0.00007978,-0.00016110,-0.00007405,0.00018529,-0.01227035,0.021311
 38,-0.00007886,0.01043936,-0.02059134,-0.05117385,0.00024273,0.0003942
 5,0.00006074,-0.00002181,0.00008765,0.00007059,0.00003349,-0.00002357,
 0.00012468,-0.00004348,-0.00007697,0.00011313,0.00015036,-0.00011248,0
 .00010113,0.00035191,-0.00026398,0.00019130,0.00001260,-0.00000765,-0.
 00004976,0.00000391,-0.00007135,0.00002178,-0.00000002,-0.00002310,0.0
 0000251,0.00004229,-0.00000249,-0.00002028,-0.00072089,-0.00054408,0.0
 0113231,-0.00279721,0.00585052,-0.00054839,0.01660539,-0.02705765,-0.0
 0110871,-0.01308382,0.01866686,0.05300866\\0.00008584,-0.00001958,0.00
 001389,-0.00003443,0.00001266,-0.00002499,0.00000509,0.00000232,0.0000
 0933,0.00000011,-0.00000794,-0.00001019,0.00000104,0.00001006,-0.00000
 944,0.00001448,-0.00000661,-0.00001375,-0.00004229,0.00000628,-0.00000
 643,0.00000954,0.00002226,0.00000772,-0.00000196,-0.00001785,0.0000339
 0,-0.00001986,-0.00002752,-0.00001740,-0.00000707,0.00000593,0.0000071
 3,0.00001808,0.00003303,0.00001910,0.00001428,0.00000114,-0.00003249,0
 .00000244,-0.00001241,0.00004015,-0.00003588,-0.00000683,-0.00000879,-
 0.00000274,-0.00000381,0.00000113,0.00003356,0.00000788,-0.00000915,-0
 .00000589,0.00000945,0.00002876,-0.00002457,-0.00002553,0.00001273,-0.
 00000930,0.00000351,-0.00004340,0.00000784,0.00002459,-0.00001760,-0.0
 0000682,0.00000201,0.00000822,0.00000264,-0.00000516,0.00001465,-0.000
 00413,-0.00000788,-0.00000306\\\@


 THE MOST INCOMPREHENSIBLE THING ABOUT THE WORLD
 IS THAT IT IS COMPREHENSIBLE. -- A. EINSTEIN
 Job cpu time:       0 days  0 hours  2 minutes  2.3 seconds.
 Elapsed time:       0 days  0 hours  2 minutes  3.5 seconds.
 File lengths (MBytes):  RWF=     95 Int=      0 D2E=      0 Chk=      5 Scr=      1
 Normal termination of Gaussian 16 at Wed Feb 21 19:24:21 2024.
