 Entering Gaussian System, Link 0=g16
 Input=/Volumes/SSD-PMU3/b3lyp_6-31gd_freq/ASNHUYVMPRNXNB-NAKRPEOUSA-N_calculating/gaussianinput0.gjf
 Output=/Volumes/SSD-PMU3/b3lyp_6-31gd_freq/ASNHUYVMPRNXNB-NAKRPEOUSA-N_calculating/gaussianinput0.log
 Initial command:
 /Applications/g16/l1.exe "/Users/macmini_m1_2022/PycharmProjects/sphere_model/sphere_model_lib/Gau-28613.inp" -scrdir="/Users/macmini_m1_2022/PycharmProjects/sphere_model/sphere_model_lib/"
 Entering Link 1 = /Applications/g16/l1.exe PID=     28614.
  
 Copyright (c) 1988,1990,1992,1993,1995,1998,2003,2009,2016,
            Gaussian, Inc.  All Rights Reserved.
  
 This is part of the Gaussian(R) 16 program.  It is based on
 the Gaussian(R) 09 system (copyright 2009, Gaussian, Inc.),
 the Gaussian(R) 03 system (copyright 2003, Gaussian, Inc.),
 the Gaussian(R) 98 system (copyright 1998, Gaussian, Inc.),
 the Gaussian(R) 94 system (copyright 1995, Gaussian, Inc.),
 the Gaussian 92(TM) system (copyright 1992, Gaussian, Inc.),
 the Gaussian 90(TM) system (copyright 1990, Gaussian, Inc.),
 the Gaussian 88(TM) system (copyright 1988, Gaussian, Inc.),
 the Gaussian 86(TM) system (copyright 1986, Carnegie Mellon
 University), and the Gaussian 82(TM) system (copyright 1983,
 Carnegie Mellon University). Gaussian is a federally registered
 trademark of Gaussian, Inc.
  
 This software contains proprietary and confidential information,
 including trade secrets, belonging to Gaussian, Inc.
  
 This software is provided under written license and may be
 used, copied, transmitted, or stored only in accord with that
 written license.
  
 The following legend is applicable only to US Government
 contracts under FAR:
  
                    RESTRICTED RIGHTS LEGEND
  
 Use, reproduction and disclosure by the US Government is
 subject to restrictions as set forth in subparagraphs (a)
 and (c) of the Commercial Computer Software - Restricted
 Rights clause in FAR 52.227-19.
  
 Gaussian, Inc.
 340 Quinnipiac St., Bldg. 40, Wallingford CT 06492
  
  
 ---------------------------------------------------------------
 Warning -- This program may not be used in any manner that
 competes with the business of Gaussian, Inc. or will provide
 assistance to any competitor of Gaussian, Inc.  The licensee
 of this program is prohibited from giving any competitor of
 Gaussian, Inc. access to this program.  By using this program,
 the user acknowledges that Gaussian, Inc. is engaged in the
 business of creating and licensing software in the field of
 computational chemistry and represents and warrants to the
 licensee that it is not a competitor of Gaussian, Inc. and that
 it will not use this program in any manner prohibited above.
 ---------------------------------------------------------------
  

 Cite this work as:
 Gaussian 16, Revision A.03,
 M. J. Frisch, G. W. Trucks, H. B. Schlegel, G. E. Scuseria, 
 M. A. Robb, J. R. Cheeseman, G. Scalmani, V. Barone, 
 G. A. Petersson, H. Nakatsuji, X. Li, M. Caricato, A. V. Marenich, 
 J. Bloino, B. G. Janesko, R. Gomperts, B. Mennucci, H. P. Hratchian, 
 J. V. Ortiz, A. F. Izmaylov, J. L. Sonnenberg, D. Williams-Young, 
 F. Ding, F. Lipparini, F. Egidi, J. Goings, B. Peng, A. Petrone, 
 T. Henderson, D. Ranasinghe, V. G. Zakrzewski, J. Gao, N. Rega, 
 G. Zheng, W. Liang, M. Hada, M. Ehara, K. Toyota, R. Fukuda, 
 J. Hasegawa, M. Ishida, T. Nakajima, Y. Honda, O. Kitao, H. Nakai, 
 T. Vreven, K. Throssell, J. A. Montgomery, Jr., J. E. Peralta, 
 F. Ogliaro, M. J. Bearpark, J. J. Heyd, E. N. Brothers, K. N. Kudin, 
 V. N. Staroverov, T. A. Keith, R. Kobayashi, J. Normand, 
 K. Raghavachari, A. P. Rendell, J. C. Burant, S. S. Iyengar, 
 J. Tomasi, M. Cossi, J. M. Millam, M. Klene, C. Adamo, R. Cammi, 
 J. W. Ochterski, R. L. Martin, K. Morokuma, O. Farkas, 
 J. B. Foresman, and D. J. Fox, Gaussian, Inc., Wallingford CT, 2016.
 
 ******************************************
 Gaussian 16:  EM64M-G16RevA.03 25-Dec-2016
                26-Feb-2024 
 ******************************************
 %nprocshared=10
 Will use up to   10 processors via shared memory.
 %mem=12GB
 %chk= 0.chk
 ---------------------
 # freq b3lyp/6-31g(d)
 ---------------------
 1/10=4,30=1,38=1/1,3;
 2/12=2,17=6,18=5,40=1/2;
 3/5=1,6=6,7=1,11=2,25=1,30=1,71=2,74=-5,140=1/1,2,3;
 4//1;
 5/5=2,38=5,98=1/2;
 8/6=4,10=90,11=11/1;
 11/6=1,8=1,9=11,15=111,16=1/1,2,10;
 10/6=1/2;
 6/7=2,8=2,9=2,10=2,28=1/1;
 7/8=1,10=1,25=1/1,2,3,16;
 1/10=4,30=1/3;
 99//99;
 ---------
 good luck
 ---------
 Symbolic Z-matrix:
 Charge =  0 Multiplicity = 1
 O                     1.21488   0.        0. 
 C                     0.        0.        0. 
 C                    -0.84606  -1.27538   0.0021 
 C                    -2.33547  -0.90167  -0.11346 
 C                    -2.74589  -0.07735   1.14256 
 C                    -4.21807   0.2513    1.14391 
 C                    -5.09732  -0.23497   2.02096 
 C                    -1.78067   1.17865   1.26678 
 C                    -2.4717    2.49342   1.52519 
 C                    -2.25712   3.25595   2.5982 
 C                    -0.86288   1.25399   0.0021 
 C                    -1.70996   1.2513   -1.29457 
 C                    -2.52333  -0.07177  -1.40044 
 H                    -0.52024  -1.91357  -0.82937 
 H                    -0.63463  -1.83455   0.924 
 H                    -2.9509   -1.80751  -0.1579 
 H                    -2.56564  -0.71181   2.01963 
 H                    -4.58206   0.91028   0.35602 
 H                    -6.15463   0.01081   1.96873 
 H                    -4.79253  -0.89493   2.83111 
 H                    -1.12421   0.99982   2.12727 
 H                    -3.17239   2.84438   0.76849 
 H                    -1.56877   2.95573   3.38595 
 H                    -2.76301   4.20813   2.73368 
 H                    -0.21669   2.13444   0.05421 
 H                    -1.05049   1.37603  -2.16021 
 H                    -2.37424   2.12261  -1.28983 
 H                    -3.58464   0.13328  -1.57425 
 H                    -2.18228  -0.66461  -2.25776 
 

 GradGradGradGradGradGradGradGradGradGradGradGradGradGradGradGradGradGrad
 Berny optimization.
 Initialization pass.
 Trust Radius=3.00D-01 FncErr=1.00D-07 GrdErr=1.00D-07 EigMax=2.50D+02 EigMin=1.00D-04
 Number of steps in this run=      2 maximum allowed number of steps=      2.
 GradGradGradGradGradGradGradGradGradGradGradGradGradGradGradGradGradGrad

                          Input orientation:                          
 ---------------------------------------------------------------------
 Center     Atomic      Atomic             Coordinates (Angstroms)
 Number     Number       Type             X           Y           Z
 ---------------------------------------------------------------------
      1          8           0        1.214877    0.000000    0.000000
      2          6           0        0.000000    0.000000    0.000000
      3          6           0       -0.846059   -1.275381    0.002096
      4          6           0       -2.335467   -0.901665   -0.113456
      5          6           0       -2.745886   -0.077346    1.142561
      6          6           0       -4.218072    0.251296    1.143905
      7          6           0       -5.097323   -0.234974    2.020961
      8          6           0       -1.780666    1.178651    1.266781
      9          6           0       -2.471697    2.493424    1.525192
     10          6           0       -2.257119    3.255953    2.598197
     11          6           0       -0.862878    1.253988    0.002096
     12          6           0       -1.709957    1.251300   -1.294566
     13          6           0       -2.523327   -0.071772   -1.400440
     14          1           0       -0.520239   -1.913574   -0.829371
     15          1           0       -0.634628   -1.834545    0.924003
     16          1           0       -2.950896   -1.807507   -0.157896
     17          1           0       -2.565644   -0.711806    2.019633
     18          1           0       -4.582062    0.910277    0.356022
     19          1           0       -6.154634    0.010810    1.968731
     20          1           0       -4.792527   -0.894928    2.831108
     21          1           0       -1.124205    0.999817    2.127268
     22          1           0       -3.172387    2.844384    0.768487
     23          1           0       -1.568766    2.955726    3.385954
     24          1           0       -2.763006    4.208126    2.733684
     25          1           0       -0.216685    2.134442    0.054211
     26          1           0       -1.050490    1.376033   -2.160212
     27          1           0       -2.374235    2.122607   -1.289828
     28          1           0       -3.584644    0.133279   -1.574249
     29          1           0       -2.182278   -0.664612   -2.257763
 ---------------------------------------------------------------------
                    Distance matrix (angstroms):
                    1          2          3          4          5
     1  O    0.000000
     2  C    1.214877   0.000000
     3  C    2.423646   1.530496   0.000000
     4  C    3.664808   2.506048   1.539920   0.000000
     5  C    4.122993   2.975116   2.518986   1.557409   0.000000
     6  C    5.557752   4.377648   3.873621   2.540566   1.508423
     7  C    6.631996   5.488369   4.819907   3.553598   2.515092
     8  C    3.459368   2.482886   2.914651   2.557454   1.588902
     9  C    4.704700   3.827879   4.377946   3.772314   2.613512
    10  C    5.422787   4.737768   5.409604   4.964372   3.669966
    11  C    2.426841   1.522186   2.529425   2.613180   2.572709
    12  C    3.434575   2.483064   2.968462   2.534076   2.962775
    13  C    3.992562   2.886791   2.495798   1.542836   2.552727
    14  H    2.712978   2.149481   1.097628   2.198078   3.494818
    15  H    2.764056   2.149905   1.098763   2.199873   2.755526
    16  H    4.543751   3.464073   2.176946   1.096028   2.174092
    17  H    4.344873   3.341873   2.710174   2.153856   1.097398
    18  H    5.878763   4.685152   4.342820   2.924164   2.228359
    19  H    7.627956   6.461853   5.805421   4.444564   3.508545
    20  H    6.701117   5.637764   4.870592   3.835055   2.776395
    21  H    3.316053   2.605521   3.125739   3.178621   2.181691
    22  H    5.284806   4.329565   4.792872   3.938419   2.976296
    23  H    5.286745   4.760465   5.465809   5.264330   3.951955
    24  H    6.403507   5.728486   6.419120   5.865063   4.571349
    25  H    2.570632   2.146097   3.467812   3.706116   3.531766
    26  H    3.419338   2.768305   3.427443   3.320886   3.986852
    27  H    4.364727   3.436002   3.943439   3.245239   3.300672
    28  H    5.052863   3.917358   3.459629   2.182995   2.851129
    29  H    4.132779   3.209601   2.695456   2.162802   3.496389
                    6          7          8          9         10
     6  C    0.000000
     7  C    1.333705   0.000000
     8  C    2.610753   3.683387   0.000000
     9  C    2.867463   3.818881   1.507623   0.000000
    10  C    3.871468   4.537238   2.512938   1.333729   0.000000
    11  C    3.683266   4.921722   1.564429   2.538567   3.562515
    12  C    3.638240   4.967492   2.563353   3.173981   4.412666
    13  C    3.074122   4.284632   3.037955   3.891300   5.209004
    14  H    4.717462   5.647282   3.942637   5.364120   6.441194
    15  H    4.152127   4.865962   3.241952   4.739996   5.598980
    16  H    2.745740   3.439103   3.509456   4.643320   5.806548
    17  H    2.103564   2.576193   2.181010   3.244503   4.021571
    18  H    1.089727   2.085453   2.957926   2.885646   3.991855
    19  H    2.118595   1.086759   4.581286   4.463645   5.110558
    20  H    2.119076   1.088475   3.977204   4.309594   4.869533
    21  H    3.331561   4.161932   1.096978   2.099784   2.568155
    22  H    2.821082   3.841421   2.227072   1.089377   2.086850
    23  H    4.399949   4.949191   2.773768   2.119302   1.088360
    24  H    4.505676   5.069334   3.506354   2.117904   1.086698
    25  H    4.554643   5.770863   2.197703   2.716198   3.448626
    26  H    4.713364   6.037749   3.509473   4.104948   5.256663
    27  H    3.581145   4.892312   2.789198   2.841011   4.051534
    28  H    2.793478   3.917824   3.524002   4.051601   5.377985
    29  H    4.068745   5.195147   3.997664   4.936365   6.241537
                   11         12         13         14         15
    11  C    0.000000
    12  C    1.548833   0.000000
    13  C    2.545945   1.556695   0.000000
    14  H    3.292748   3.412955   2.780417   0.000000
    15  H    3.231261   3.949787   3.475282   1.758878   0.000000
    16  H    3.709200   3.491167   2.177041   2.523930   2.556626
    17  H    3.291537   3.945871   3.479703   3.707391   2.487925
    18  H    3.751764   3.330124   2.878883   5.087013   4.841372
    19  H    5.780642   5.651821   4.954243   6.578680   5.913312
    20  H    5.297480   5.579401   4.871638   5.717446   4.669909
    21  H    2.156212   3.480704   3.943421   4.194560   3.117874
    22  H    2.906982   2.988780   3.691814   5.676725   5.325109
    23  H    3.852880   4.983199   5.743387   6.525217   5.466307
    24  H    4.449606   5.106714   5.955330   7.429709   6.657237
    25  H    1.093380   2.197499   3.507704   4.154431   4.084614
    26  H    2.173860   1.095353   2.200600   3.588010   4.471368
    27  H    2.169739   1.095657   2.202218   4.465432   4.856576
    28  H    3.338991   2.200601   1.094828   3.759658   4.337763
    29  H    3.244812   2.195804   1.096712   2.522416   3.726607
                   16         17         18         19         20
    16  H    0.000000
    17  H    2.467917   0.000000
    18  H    3.211100   3.076475   0.000000
    19  H    4.253558   3.661368   2.425460   0.000000
    20  H    3.627472   2.377190   3.070686   1.849160   0.000000
    21  H    4.054608   2.240309   3.886143   5.129180   4.188321
    22  H    4.748403   3.818375   2.428596   4.285268   4.567462
    23  H    6.095699   4.038736   4.737542   5.631273   5.052527
    24  H    6.677153   4.975395   4.453993   5.450299   5.492687
    25  H    4.802068   4.181103   4.543807   6.590481   6.150331
    26  H    4.213756   4.911809   4.361234   6.705542   6.638779
    27  H    4.130327   4.361544   3.008831   5.419346   5.651174
    28  H    2.484822   3.829950   2.307491   4.378648   4.682239
    29  H    2.511259   4.294801   3.882153   5.839440   5.723902
                   21         22         23         24         25
    21  H    0.000000
    22  H    3.073071   0.000000
    23  H    2.368017   3.071666   0.000000
    24  H    3.653308   2.426805   1.849370   0.000000
    25  H    2.531508   3.122560   3.688244   4.238336   0.000000
    26  H    4.304586   3.903304   5.789991   5.907934   2.484770
    27  H    3.807857   2.322643   4.817240   4.548536   2.541968
    28  H    4.528341   3.606724   6.052568   5.986464   4.242603
    29  H    4.808153   4.738307   6.733111   6.999669   4.128375
                   26         27         28         29
    26  H    0.000000
    27  H    1.751354   0.000000
    28  H    2.882660   2.345935   0.000000
    29  H    2.335528   2.956744   1.752270   0.000000
 Stoichiometry    C12H16O
 Framework group  C1[X(C12H16O)]
 Deg. of freedom    81
 Full point group                 C1      NOp   1
 Largest Abelian subgroup         C1      NOp   1
 Largest concise Abelian subgroup C1      NOp   1
                         Standard orientation:                         
 ---------------------------------------------------------------------
 Center     Atomic      Atomic             Coordinates (Angstroms)
 Number     Number       Type             X           Y           Z
 ---------------------------------------------------------------------
      1          8           0       -3.038903    0.923810   -0.891807
      2          6           0       -2.046506    0.339839   -0.504443
      3          6           0       -1.704703   -1.099540   -0.896588
      4          6           0       -0.443987   -1.551409   -0.136482
      5          6           0        0.754781   -0.659650   -0.576081
      6          6           0        2.048336   -1.100569    0.062392
      7          6           0        3.077817   -1.623153   -0.605321
      8          6           0        0.374381    0.863653   -0.332252
      9          6           0        1.431133    1.683439    0.363561
     10          6           0        2.009560    2.764196   -0.162005
     11          6           0       -0.996078    0.941830    0.418193
     12          6           0       -0.962524    0.097723    1.716361
     13          6           0       -0.715288   -1.400786    1.374825
     14          1           0       -2.567901   -1.738807   -0.670727
     15          1           0       -1.563445   -1.141876   -1.985411
     16          1           0       -0.212660   -2.596106   -0.373912
     17          1           0        0.878091   -0.793020   -1.658342
     18          1           0        2.127097   -1.005751    1.145125
     19          1           0        3.982537   -1.949747   -0.099492
     20          1           0        3.058434   -1.739748   -1.687360
     21          1           0        0.225442    1.322810   -1.317316
     22          1           0        1.716126    1.377286    1.369439
     23          1           0        1.764331    3.115937   -1.162339
     24          1           0        2.753111    3.337962    0.384655
     25          1           0       -1.255618    1.983318    0.626577
     26          1           0       -1.906008    0.225545    2.257931
     27          1           0       -0.178120    0.485992    2.375467
     28          1           0        0.119849   -1.803074    1.957371
     29          1           0       -1.591580   -2.004654    1.639837
 ---------------------------------------------------------------------
 Rotational constants (GHZ):           1.0841190           0.7185561           0.5578367
 Standard basis: 6-31G(d) (6D, 7F)
 There are   227 symmetry adapted cartesian basis functions of A   symmetry.
 There are   227 symmetry adapted basis functions of A   symmetry.
   227 basis functions,   428 primitive gaussians,   227 cartesian basis functions
    48 alpha electrons       48 beta electrons
       nuclear repulsion energy       817.5272513508 Hartrees.
 NAtoms=   29 NActive=   29 NUniq=   29 SFac= 1.00D+00 NAtFMM=   60 NAOKFM=F Big=F
 Integral buffers will be    131072 words long.
 Raffenetti 2 integral format.
 Two-electron integral symmetry is turned on.
 One-electron integrals computed using PRISM.
 NBasis=   227 RedAO= T EigKep=  1.04D-03  NBF=   227
 NBsUse=   227 1.00D-06 EigRej= -1.00D+00 NBFU=   227
 ExpMin= 1.61D-01 ExpMax= 5.48D+03 ExpMxC= 8.25D+02 IAcc=3 IRadAn=         5 AccDes= 0.00D+00
 Harris functional with IExCor=  402 and IRadAn=       5 diagonalized for initial guess.
 HarFok:  IExCor=  402 AccDes= 0.00D+00 IRadAn=         5 IDoV= 1 UseB2=F ITyADJ=14
 ICtDFT=  3500011 ScaDFX=  1.000000  1.000000  1.000000  1.000000
 FoFCou: FMM=F IPFlag=           0 FMFlag=      100000 FMFlg1=           0
         NFxFlg=           0 DoJE=T BraDBF=F KetDBF=T FulRan=T
         wScrn=  0.000000 ICntrl=       500 IOpCl=  0 I1Cent=   200000004 NGrid=           0
         NMat0=    1 NMatS0=      1 NMatT0=    0 NMatD0=    1 NMtDS0=    0 NMtDT0=    0
 Petite list used in FoFCou.
 Requested convergence on RMS density matrix=1.00D-08 within 128 cycles.
 Requested convergence on MAX density matrix=1.00D-06.
 Requested convergence on             energy=1.00D-06.
 No special actions if energy rises.
 Integral accuracy reduced to 1.0D-05 until final iterations.
 Initial convergence to 1.0D-05 achieved.  Increase integral accuracy.
 SCF Done:  E(RB3LYP) =  -542.080655777     A.U. after   14 cycles
            NFock= 14  Conv=0.79D-08     -V/T= 2.0097
 DoSCS=F DFT=T ScalE2(SS,OS)=  1.000000  1.000000
 Range of M.O.s used for correlation:     1   227
 NBasis=   227 NAE=    48 NBE=    48 NFC=     0 NFV=     0
 NROrb=    227 NOA=    48 NOB=    48 NVA=   179 NVB=   179
 Symmetrizing basis deriv contribution to polar:
 IMax=3 JMax=2 DiffMx= 0.00D+00
 G2DrvN: will do    30 centers at a time, making    1 passes.
 Calling FoFCou, ICntrl=  3107 FMM=F I1Cent=   0 AccDes= 0.00D+00.
 End of G2Drv F.D. properties file   721 does not exist.
 End of G2Drv F.D. properties file   722 does not exist.
 End of G2Drv F.D. properties file   788 does not exist.
          IDoAtm=11111111111111111111111111111
          Differentiating once with respect to electric field.
                with respect to dipole field.
          Differentiating once with respect to nuclear coordinates.
 Keep R1 ints in memory in canonical form, NReq=345395575.
          There are    90 degrees of freedom in the 1st order CPHF.  IDoFFX=6 NUNeed=     3.
     87 vectors produced by pass  0 Test12= 9.55D-15 1.11D-09 XBig12= 1.05D+02 3.35D+00.
 AX will form    87 AO Fock derivatives at one time.
     87 vectors produced by pass  1 Test12= 9.55D-15 1.11D-09 XBig12= 1.12D+01 7.61D-01.
     87 vectors produced by pass  2 Test12= 9.55D-15 1.11D-09 XBig12= 1.41D-01 4.75D-02.
     87 vectors produced by pass  3 Test12= 9.55D-15 1.11D-09 XBig12= 4.61D-04 2.34D-03.
     87 vectors produced by pass  4 Test12= 9.55D-15 1.11D-09 XBig12= 5.77D-07 6.55D-05.
     49 vectors produced by pass  5 Test12= 9.55D-15 1.11D-09 XBig12= 3.98D-10 2.54D-06.
      4 vectors produced by pass  6 Test12= 9.55D-15 1.11D-09 XBig12= 2.60D-13 6.58D-08.
      1 vectors produced by pass  7 Test12= 9.55D-15 1.11D-09 XBig12= 1.61D-16 1.35D-09.
 InvSVY:  IOpt=1 It=  1 EMax= 7.11D-15
 Solved reduced A of dimension   489 with    90 vectors.
 Isotropic polarizability for W=    0.000000      119.97 Bohr**3.
 End of Minotr F.D. properties file   721 does not exist.
 End of Minotr F.D. properties file   722 does not exist.
 End of Minotr F.D. properties file   788 does not exist.

 **********************************************************************

            Population analysis using the SCF density.

 **********************************************************************

 Orbital symmetries:
       Occupied  (A) (A) (A) (A) (A) (A) (A) (A) (A) (A) (A) (A)
                 (A) (A) (A) (A) (A) (A) (A) (A) (A) (A) (A) (A)
                 (A) (A) (A) (A) (A) (A) (A) (A) (A) (A) (A) (A)
                 (A) (A) (A) (A) (A) (A) (A) (A) (A) (A) (A) (A)
       Virtual   (A) (A) (A) (A) (A) (A) (A) (A) (A) (A) (A) (A)
                 (A) (A) (A) (A) (A) (A) (A) (A) (A) (A) (A) (A)
                 (A) (A) (A) (A) (A) (A) (A) (A) (A) (A) (A) (A)
                 (A) (A) (A) (A) (A) (A) (A) (A) (A) (A) (A) (A)
                 (A) (A) (A) (A) (A) (A) (A) (A) (A) (A) (A) (A)
                 (A) (A) (A) (A) (A) (A) (A) (A) (A) (A) (A) (A)
                 (A) (A) (A) (A) (A) (A) (A) (A) (A) (A) (A) (A)
                 (A) (A) (A) (A) (A) (A) (A) (A) (A) (A) (A) (A)
                 (A) (A) (A) (A) (A) (A) (A) (A) (A) (A) (A) (A)
                 (A) (A) (A) (A) (A) (A) (A) (A) (A) (A) (A) (A)
                 (A) (A) (A) (A) (A) (A) (A) (A) (A) (A) (A) (A)
                 (A) (A) (A) (A) (A) (A) (A) (A) (A) (A) (A) (A)
                 (A) (A) (A) (A) (A) (A) (A) (A) (A) (A) (A) (A)
                 (A) (A) (A) (A) (A) (A) (A) (A) (A) (A) (A) (A)
                 (A) (A) (A) (A) (A) (A) (A) (A) (A) (A) (A)
 The electronic state is 1-A.
 Alpha  occ. eigenvalues --  -19.13209 -10.26686 -10.20451 -10.20101 -10.19835
 Alpha  occ. eigenvalues --  -10.19457 -10.19424 -10.19213 -10.19198 -10.19058
 Alpha  occ. eigenvalues --  -10.19022 -10.18260 -10.18208  -1.03140  -0.86848
 Alpha  occ. eigenvalues --   -0.79402  -0.78659  -0.74989  -0.73184  -0.70819
 Alpha  occ. eigenvalues --   -0.62823  -0.61814  -0.58382  -0.57455  -0.53740
 Alpha  occ. eigenvalues --   -0.51451  -0.49302  -0.47941  -0.46648  -0.44923
 Alpha  occ. eigenvalues --   -0.44088  -0.42000  -0.41503  -0.41214  -0.40269
 Alpha  occ. eigenvalues --   -0.39251  -0.38024  -0.37813  -0.37003  -0.36628
 Alpha  occ. eigenvalues --   -0.35649  -0.33420  -0.32161  -0.31012  -0.30332
 Alpha  occ. eigenvalues --   -0.25818  -0.25551  -0.23105
 Alpha virt. eigenvalues --   -0.01562   0.00980   0.02739   0.07059   0.07879
 Alpha virt. eigenvalues --    0.11444   0.12206   0.12940   0.13494   0.13875
 Alpha virt. eigenvalues --    0.14825   0.15515   0.16378   0.16940   0.17516
 Alpha virt. eigenvalues --    0.18070   0.18689   0.19741   0.20576   0.21240
 Alpha virt. eigenvalues --    0.21675   0.22961   0.23867   0.25554   0.26200
 Alpha virt. eigenvalues --    0.28242   0.30389   0.32118   0.34236   0.35027
 Alpha virt. eigenvalues --    0.36229   0.38297   0.41078   0.45384   0.50628
 Alpha virt. eigenvalues --    0.51753   0.52533   0.53304   0.55095   0.55947
 Alpha virt. eigenvalues --    0.57062   0.58721   0.59975   0.60410   0.62077
 Alpha virt. eigenvalues --    0.62579   0.63027   0.64322   0.65461   0.65622
 Alpha virt. eigenvalues --    0.67750   0.68304   0.68682   0.69442   0.70262
 Alpha virt. eigenvalues --    0.72270   0.74496   0.75869   0.78470   0.81579
 Alpha virt. eigenvalues --    0.81981   0.83075   0.83523   0.84510   0.84935
 Alpha virt. eigenvalues --    0.85873   0.86445   0.86606   0.88513   0.88711
 Alpha virt. eigenvalues --    0.89554   0.89943   0.90647   0.92647   0.93793
 Alpha virt. eigenvalues --    0.94731   0.95159   0.95595   0.96197   0.97926
 Alpha virt. eigenvalues --    0.99309   1.00515   1.03313   1.07184   1.08822
 Alpha virt. eigenvalues --    1.11224   1.12057   1.19077   1.20248   1.23024
 Alpha virt. eigenvalues --    1.26563   1.27672   1.36807   1.38565   1.42175
 Alpha virt. eigenvalues --    1.43470   1.47039   1.48528   1.51564   1.52638
 Alpha virt. eigenvalues --    1.54737   1.56123   1.60300   1.64592   1.66203
 Alpha virt. eigenvalues --    1.67635   1.68449   1.70057   1.71871   1.73205
 Alpha virt. eigenvalues --    1.75466   1.79500   1.80832   1.82348   1.82758
 Alpha virt. eigenvalues --    1.84300   1.86395   1.88292   1.90884   1.92621
 Alpha virt. eigenvalues --    1.93144   1.95265   1.97297   2.00507   2.01378
 Alpha virt. eigenvalues --    2.01671   2.04541   2.04939   2.08315   2.10226
 Alpha virt. eigenvalues --    2.10740   2.12921   2.15912   2.18800   2.20255
 Alpha virt. eigenvalues --    2.22131   2.22796   2.26834   2.27775   2.30864
 Alpha virt. eigenvalues --    2.31649   2.36445   2.39146   2.41416   2.43219
 Alpha virt. eigenvalues --    2.44768   2.48734   2.49264   2.50057   2.54482
 Alpha virt. eigenvalues --    2.55434   2.60452   2.65858   2.67864   2.70173
 Alpha virt. eigenvalues --    2.71868   2.75440   2.76593   2.77584   2.81742
 Alpha virt. eigenvalues --    2.83179   2.88414   2.89886   2.94489   3.01335
 Alpha virt. eigenvalues --    3.09195   4.06944   4.09530   4.14307   4.14555
 Alpha virt. eigenvalues --    4.25116   4.30657   4.38932   4.41951   4.55428
 Alpha virt. eigenvalues --    4.56867   4.66084   4.71941   4.98007
          Condensed to atoms (all electrons):
               1          2          3          4          5          6
     1  O    8.020607   0.568032  -0.077662   0.003269   0.000171   0.000000
     2  C    0.568032   4.516203   0.302312  -0.025472  -0.015758   0.000355
     3  C   -0.077662   0.302312   5.414591   0.286752  -0.037524   0.004583
     4  C    0.003269  -0.025472   0.286752   5.012473   0.365091  -0.045575
     5  C    0.000171  -0.015758  -0.037524   0.365091   5.060957   0.403382
     6  C    0.000000   0.000355   0.004583  -0.045575   0.403382   4.783159
     7  C   -0.000000  -0.000007   0.000001  -0.001119  -0.024320   0.670114
     8  C   -0.000566  -0.029667  -0.005124  -0.047423   0.304491  -0.041074
     9  C   -0.000072   0.003247  -0.000188   0.002002  -0.041253  -0.002842
    10  C   -0.000000  -0.000000   0.000000  -0.000085   0.000784   0.000289
    11  C   -0.062596   0.346991  -0.146148   0.027894  -0.042343  -0.000333
    12  C    0.000421  -0.026771  -0.009502  -0.050665  -0.017604   0.000117
    13  C    0.000029  -0.018878  -0.040907   0.376557  -0.040683  -0.006147
    14  H   -0.000166  -0.022221   0.348038  -0.027044   0.004212  -0.000141
    15  H   -0.000465  -0.021680   0.349302  -0.030732  -0.004471   0.000046
    16  H   -0.000066   0.003393  -0.030775   0.363879  -0.039993  -0.000300
    17  H   -0.000009  -0.000172  -0.004362  -0.042466   0.364457  -0.046359
    18  H    0.000000  -0.000010  -0.000006  -0.005187  -0.052770   0.362890
    19  H    0.000000   0.000000   0.000003  -0.000125   0.004293  -0.022459
    20  H   -0.000000  -0.000000  -0.000025   0.000112  -0.012412  -0.036311
    21  H    0.001078  -0.001068   0.001849   0.001947  -0.035260   0.004115
    22  H   -0.000000  -0.000017  -0.000009   0.000332  -0.004954   0.003201
    23  H   -0.000000  -0.000026   0.000002  -0.000004   0.000073   0.000051
    24  H   -0.000000   0.000003  -0.000000   0.000002  -0.000154   0.000007
    25  H    0.003423  -0.031186   0.008501  -0.000758   0.005156  -0.000076
    26  H    0.000881  -0.003303   0.001424   0.002171  -0.000033  -0.000012
    27  H   -0.000076   0.003876  -0.000515   0.001116   0.001803  -0.000155
    28  H    0.000002   0.000332   0.005008  -0.030395  -0.008633   0.005436
    29  H   -0.000036   0.000609  -0.005989  -0.035195   0.005296   0.000039
               7          8          9         10         11         12
     1  O   -0.000000  -0.000566  -0.000072  -0.000000  -0.062596   0.000421
     2  C   -0.000007  -0.029667   0.003247  -0.000000   0.346991  -0.026771
     3  C    0.000001  -0.005124  -0.000188   0.000000  -0.146148  -0.009502
     4  C   -0.001119  -0.047423   0.002002  -0.000085   0.027894  -0.050665
     5  C   -0.024320   0.304491  -0.041253   0.000784  -0.042343  -0.017604
     6  C    0.670114  -0.041074  -0.002842   0.000289  -0.000333   0.000117
     7  C    5.026377   0.000475   0.000876  -0.000419  -0.000060   0.000012
     8  C    0.000475   5.103436   0.402491  -0.025769   0.331224  -0.031768
     9  C    0.000876   0.402491   4.770204   0.672310  -0.037704  -0.008253
    10  C   -0.000419  -0.025769   0.672310   5.023401  -0.001457   0.000117
    11  C   -0.000060   0.331224  -0.037704  -0.001457   5.210369   0.343654
    12  C    0.000012  -0.031768  -0.008253   0.000117   0.343654   5.097913
    13  C   -0.000062  -0.019844   0.000260  -0.000005  -0.043691   0.342634
    14  H   -0.000000   0.000165   0.000002  -0.000000   0.004341  -0.000253
    15  H   -0.000006  -0.000036   0.000039  -0.000001   0.003311   0.000145
    16  H    0.002093   0.005957  -0.000086   0.000001  -0.000550   0.005820
    17  H   -0.008368  -0.037739   0.003357   0.000227   0.003924  -0.000064
    18  H   -0.048939  -0.004094   0.001434   0.000294   0.000539  -0.000100
    19  H    0.363083  -0.000153   0.000009   0.000009   0.000002  -0.000000
    20  H    0.368547   0.000142   0.000041   0.000005  -0.000004  -0.000001
    21  H    0.000044   0.366989  -0.047128  -0.007908  -0.050200   0.005737
    22  H    0.000384  -0.053728   0.363689  -0.048046  -0.004040   0.001841
    23  H    0.000002  -0.012789  -0.035492   0.368688   0.000182   0.000006
    24  H    0.000011   0.004547  -0.022826   0.363111  -0.000134   0.000005
    25  H    0.000001  -0.036781   0.000025   0.001821   0.346706  -0.033342
    26  H    0.000000   0.004947   0.000023  -0.000012  -0.033819   0.372373
    27  H    0.000005  -0.011054   0.005669   0.000205  -0.031519   0.367085
    28  H    0.000306   0.001134  -0.000115  -0.000001   0.002114  -0.031680
    29  H   -0.000014   0.000027  -0.000000   0.000000   0.001154  -0.032862
              13         14         15         16         17         18
     1  O    0.000029  -0.000166  -0.000465  -0.000066  -0.000009   0.000000
     2  C   -0.018878  -0.022221  -0.021680   0.003393  -0.000172  -0.000010
     3  C   -0.040907   0.348038   0.349302  -0.030775  -0.004362  -0.000006
     4  C    0.376557  -0.027044  -0.030732   0.363879  -0.042466  -0.005187
     5  C   -0.040683   0.004212  -0.004471  -0.039993   0.364457  -0.052770
     6  C   -0.006147  -0.000141   0.000046  -0.000300  -0.046359   0.362890
     7  C   -0.000062  -0.000000  -0.000006   0.002093  -0.008368  -0.048939
     8  C   -0.019844   0.000165  -0.000036   0.005957  -0.037739  -0.004094
     9  C    0.000260   0.000002   0.000039  -0.000086   0.003357   0.001434
    10  C   -0.000005  -0.000000  -0.000001   0.000001   0.000227   0.000294
    11  C   -0.043691   0.004341   0.003311  -0.000550   0.003924   0.000539
    12  C    0.342634  -0.000253   0.000145   0.005820  -0.000064  -0.000100
    13  C    5.083978  -0.004118   0.005045  -0.040479   0.005775   0.002624
    14  H   -0.004118   0.548236  -0.021845  -0.003335   0.000010   0.000003
    15  H    0.005045  -0.021845   0.550739  -0.002463   0.005186   0.000002
    16  H   -0.040479  -0.003335  -0.002463   0.614267  -0.003254  -0.000142
    17  H    0.005775   0.000010   0.005186  -0.003254   0.627838   0.005891
    18  H    0.002624   0.000003   0.000002  -0.000142   0.005891   0.611351
    19  H    0.000010  -0.000000   0.000000  -0.000060   0.000123  -0.007497
    20  H    0.000014   0.000000   0.000001   0.000101   0.008007   0.006065
    21  H    0.000012  -0.000015  -0.000140  -0.000159  -0.012418  -0.000155
    22  H   -0.000127   0.000000  -0.000000  -0.000007  -0.000182   0.000111
    23  H   -0.000001  -0.000000  -0.000000   0.000000  -0.000054  -0.000003
    24  H    0.000000   0.000000   0.000000  -0.000000   0.000002  -0.000008
    25  H    0.005038  -0.000169  -0.000181   0.000013  -0.000155  -0.000010
    26  H   -0.031387  -0.000065  -0.000004  -0.000114   0.000009   0.000006
    27  H   -0.030572   0.000047   0.000011  -0.000172   0.000001   0.000269
    28  H    0.368478  -0.000072  -0.000172  -0.002511  -0.000010   0.002553
    29  H    0.370612   0.004888   0.000051  -0.002369  -0.000168  -0.000042
              19         20         21         22         23         24
     1  O    0.000000  -0.000000   0.001078  -0.000000  -0.000000  -0.000000
     2  C    0.000000  -0.000000  -0.001068  -0.000017  -0.000026   0.000003
     3  C    0.000003  -0.000025   0.001849  -0.000009   0.000002  -0.000000
     4  C   -0.000125   0.000112   0.001947   0.000332  -0.000004   0.000002
     5  C    0.004293  -0.012412  -0.035260  -0.004954   0.000073  -0.000154
     6  C   -0.022459  -0.036311   0.004115   0.003201   0.000051   0.000007
     7  C    0.363083   0.368547   0.000044   0.000384   0.000002   0.000011
     8  C   -0.000153   0.000142   0.366989  -0.053728  -0.012789   0.004547
     9  C    0.000009   0.000041  -0.047128   0.363689  -0.035492  -0.022826
    10  C    0.000009   0.000005  -0.007908  -0.048046   0.368688   0.363111
    11  C    0.000002  -0.000004  -0.050200  -0.004040   0.000182  -0.000134
    12  C   -0.000000  -0.000001   0.005737   0.001841   0.000006   0.000005
    13  C    0.000010   0.000014   0.000012  -0.000127  -0.000001   0.000000
    14  H   -0.000000   0.000000  -0.000015   0.000000  -0.000000   0.000000
    15  H    0.000000   0.000001  -0.000140  -0.000000  -0.000000   0.000000
    16  H   -0.000060   0.000101  -0.000159  -0.000007   0.000000  -0.000000
    17  H    0.000123   0.008007  -0.012418  -0.000182  -0.000054   0.000002
    18  H   -0.007497   0.006065  -0.000155   0.000111  -0.000003  -0.000008
    19  H    0.565180  -0.042917   0.000003  -0.000011   0.000000  -0.000000
    20  H   -0.042917   0.571077  -0.000044  -0.000002  -0.000002   0.000000
    21  H    0.000003  -0.000044   0.616938   0.005804   0.007910   0.000128
    22  H   -0.000011  -0.000002   0.005804   0.608081   0.005970  -0.007428
    23  H    0.000000  -0.000002   0.007910   0.005970   0.568053  -0.042651
    24  H   -0.000000   0.000000   0.000128  -0.007428  -0.042651   0.564195
    25  H   -0.000000   0.000000  -0.001232  -0.000108   0.000112  -0.000073
    26  H    0.000000   0.000000  -0.000164  -0.000072   0.000000  -0.000000
    27  H   -0.000001   0.000000  -0.000003   0.003601   0.000002   0.000012
    28  H    0.000009   0.000001   0.000003  -0.000101   0.000000   0.000000
    29  H   -0.000000   0.000000   0.000011   0.000006  -0.000000   0.000000
              25         26         27         28         29
     1  O    0.003423   0.000881  -0.000076   0.000002  -0.000036
     2  C   -0.031186  -0.003303   0.003876   0.000332   0.000609
     3  C    0.008501   0.001424  -0.000515   0.005008  -0.005989
     4  C   -0.000758   0.002171   0.001116  -0.030395  -0.035195
     5  C    0.005156  -0.000033   0.001803  -0.008633   0.005296
     6  C   -0.000076  -0.000012  -0.000155   0.005436   0.000039
     7  C    0.000001   0.000000   0.000005   0.000306  -0.000014
     8  C   -0.036781   0.004947  -0.011054   0.001134   0.000027
     9  C    0.000025   0.000023   0.005669  -0.000115  -0.000000
    10  C    0.001821  -0.000012   0.000205  -0.000001   0.000000
    11  C    0.346706  -0.033819  -0.031519   0.002114   0.001154
    12  C   -0.033342   0.372373   0.367085  -0.031680  -0.032862
    13  C    0.005038  -0.031387  -0.030572   0.368478   0.370612
    14  H   -0.000169  -0.000065   0.000047  -0.000072   0.004888
    15  H   -0.000181  -0.000004   0.000011  -0.000172   0.000051
    16  H    0.000013  -0.000114  -0.000172  -0.002511  -0.002369
    17  H   -0.000155   0.000009   0.000001  -0.000010  -0.000168
    18  H   -0.000010   0.000006   0.000269   0.002553  -0.000042
    19  H   -0.000000   0.000000  -0.000001   0.000009  -0.000000
    20  H    0.000000   0.000000   0.000000   0.000001   0.000000
    21  H   -0.001232  -0.000164  -0.000003   0.000003   0.000011
    22  H   -0.000108  -0.000072   0.003601  -0.000101   0.000006
    23  H    0.000112   0.000000   0.000002   0.000000  -0.000000
    24  H   -0.000073  -0.000000   0.000012   0.000000   0.000000
    25  H    0.591438  -0.002522  -0.002237  -0.000118  -0.000134
    26  H   -0.002522   0.576637  -0.035639   0.003468  -0.010373
    27  H   -0.002237  -0.035639   0.586677  -0.010120   0.004191
    28  H   -0.000118   0.003468  -0.010120   0.585687  -0.035313
    29  H   -0.000134  -0.010373   0.004191  -0.035313   0.593733
 Mulliken charges:
               1
     1  O   -0.456195
     2  C    0.450885
     3  C   -0.363629
     4  C   -0.101352
     5  C   -0.142005
     6  C   -0.036001
     7  C   -0.349018
     8  C   -0.168415
     9  C   -0.029720
    10  C   -0.347559
    11  C   -0.167807
    12  C   -0.295017
    13  C   -0.284166
    14  H    0.169499
    15  H    0.168319
    16  H    0.131313
    17  H    0.130973
    18  H    0.124930
    19  H    0.140499
    20  H    0.137603
    21  H    0.143325
    22  H    0.125810
    23  H    0.139971
    24  H    0.141254
    25  H    0.146844
    26  H    0.155579
    27  H    0.147494
    28  H    0.144710
    29  H    0.141878
 Sum of Mulliken charges =  -0.00000
 Mulliken charges with hydrogens summed into heavy atoms:
               1
     1  O   -0.456195
     2  C    0.450885
     3  C   -0.025811
     4  C    0.029961
     5  C   -0.011032
     6  C    0.088929
     7  C   -0.070916
     8  C   -0.025091
     9  C    0.096090
    10  C   -0.066334
    11  C   -0.020963
    12  C    0.008055
    13  C    0.002422
 APT charges:
               1
     1  O   -0.673534
     2  C    0.762164
     3  C   -0.055433
     4  C    0.102658
     5  C    0.086460
     6  C    0.035594
     7  C   -0.083606
     8  C    0.107696
     9  C    0.038073
    10  C   -0.082776
    11  C   -0.104605
    12  C    0.104600
    13  C    0.082687
    14  H   -0.020321
    15  H   -0.007851
    16  H   -0.060513
    17  H   -0.067188
    18  H    0.003193
    19  H    0.014457
    20  H    0.020090
    21  H   -0.059946
    22  H    0.003765
    23  H    0.021485
    24  H    0.016034
    25  H   -0.037153
    26  H   -0.037455
    27  H   -0.027763
    28  H   -0.033000
    29  H   -0.047811
 Sum of APT charges =  -0.00000
 APT charges with hydrogens summed into heavy atoms:
               1
     1  O   -0.673534
     2  C    0.762164
     3  C   -0.083604
     4  C    0.042145
     5  C    0.019271
     6  C    0.038787
     7  C   -0.049059
     8  C    0.047750
     9  C    0.041838
    10  C   -0.045257
    11  C   -0.141758
    12  C    0.039381
    13  C    0.001876
 Electronic spatial extent (au):  <R**2>=           2301.3079
 Charge=             -0.0000 electrons
 Dipole moment (field-independent basis, Debye):
    X=              2.2276    Y=             -1.5525    Z=              1.0482  Tot=              2.9105
 Quadrupole moment (field-independent basis, Debye-Ang):
   XX=            -88.4254   YY=            -78.8758   ZZ=            -75.4071
   XY=              5.6178   XZ=             -3.0938   YZ=              1.4000
 Traceless Quadrupole moment (field-independent basis, Debye-Ang):
   XX=             -7.5226   YY=              2.0269   ZZ=              5.4957
   XY=              5.6178   XZ=             -3.0938   YZ=              1.4000
 Octapole moment (field-independent basis, Debye-Ang**2):
  XXX=             27.1005  YYY=              6.1415  ZZZ=             -5.3471  XYY=              1.9277
  XXY=            -19.0259  XXZ=             17.7917  XZZ=              1.9469  YZZ=             -0.3858
  YYZ=             -2.7289  XYZ=             -3.8332
 Hexadecapole moment (field-independent basis, Debye-Ang**3):
 XXXX=          -1685.9060 YYYY=          -1040.3655 ZZZZ=           -461.2200 XXXY=             28.3340
 XXXZ=            -28.5018 YYYX=             24.6103 YYYZ=             -9.5142 ZZZX=              6.8619
 ZZZY=              0.8260 XXYY=           -421.8544 XXZZ=           -341.2164 YYZZ=           -244.9501
 XXYZ=             20.9838 YYXZ=             -0.9689 ZZXY=             -0.6832
 N-N= 8.175272513508D+02 E-N=-2.891977961130D+03  KE= 5.368762941309D+02
  Exact polarizability: 135.697   1.179 120.067  -1.551  -0.703 104.160
 Approx polarizability: 187.812  -2.545 168.027  -2.612  -4.917 161.820
 Calling FoFJK, ICntrl=    100127 FMM=F ISym2X=0 I1Cent= 0 IOpClX= 0 NMat=1 NMatS=1 NMatT=0.
 Full mass-weighted force constant matrix:
 Low frequencies ---   -8.7961   -4.4133   -0.0010   -0.0006   -0.0005    5.9766
 Low frequencies ---   15.9832   72.9601   82.6726
 Diagonal vibrational polarizability:
       22.4027207      10.4532461     115.6441980
 Harmonic frequencies (cm**-1), IR intensities (KM/Mole), Raman scattering
 activities (A**4/AMU), depolarization ratios for plane and unpolarized
 incident light, reduced masses (AMU), force constants (mDyne/A),
 and normal coordinates:
                      1                      2                      3
                      A                      A                      A
 Frequencies --     15.6745                72.9600                82.6697
 Red. masses --      3.6831                 3.1543                 3.0054
 Frc consts  --      0.0005                 0.0099                 0.0121
 IR Inten    --      1.1296                 0.0175                 1.0124
  Atom  AN      X      Y      Z        X      Y      Z        X      Y      Z
     1   8    -0.05   0.03   0.17    -0.04  -0.02   0.02     0.11   0.11  -0.08
     2   6    -0.01   0.03   0.05    -0.03  -0.01   0.00     0.03   0.03   0.00
     3   6     0.02   0.08  -0.11    -0.02  -0.00  -0.00    -0.05   0.00   0.04
     4   6    -0.01   0.00  -0.11    -0.03  -0.01   0.01    -0.06  -0.05   0.03
     5   6     0.03   0.01  -0.00    -0.03  -0.01   0.01    -0.03  -0.09   0.01
     6   6    -0.03   0.01   0.12    -0.02   0.02   0.01    -0.03  -0.10   0.02
     7   6     0.03  -0.01   0.23     0.09   0.28  -0.02     0.09   0.18  -0.01
     8   6    -0.00  -0.00  -0.02    -0.03  -0.01   0.02     0.02  -0.08  -0.01
     9   6     0.01   0.05  -0.10    -0.00  -0.04   0.02     0.05  -0.07  -0.07
    10   6    -0.03   0.03  -0.18     0.22  -0.20  -0.08    -0.17   0.08  -0.01
    11   6     0.03  -0.03   0.05    -0.03  -0.00   0.00     0.04  -0.02   0.02
    12   6     0.08  -0.10  -0.00    -0.05  -0.01   0.00     0.05  -0.01   0.03
    13   6    -0.06  -0.10  -0.11    -0.05  -0.01   0.00    -0.05  -0.03   0.03
    14   1     0.02   0.05  -0.24    -0.02  -0.00  -0.02    -0.08   0.05   0.08
    15   1     0.08   0.22  -0.11    -0.01   0.01  -0.00    -0.08  -0.04   0.04
    16   1    -0.02   0.01  -0.18    -0.03  -0.01   0.01    -0.11  -0.06   0.03
    17   1     0.13   0.02   0.01    -0.02  -0.00   0.01    -0.03  -0.11   0.02
    18   1    -0.13   0.03   0.13    -0.09  -0.13   0.03    -0.13  -0.32   0.05
    19   1    -0.02  -0.01   0.32     0.11   0.33  -0.02     0.09   0.19  -0.01
    20   1     0.12  -0.03   0.23     0.17   0.45  -0.03     0.18   0.40  -0.04
    21   1    -0.07  -0.03  -0.03    -0.01  -0.00   0.01    -0.00  -0.10  -0.02
    22   1     0.05   0.10  -0.10    -0.14   0.05   0.09     0.25  -0.18  -0.16
    23   1    -0.07  -0.02  -0.18     0.37  -0.31  -0.15    -0.38   0.19   0.08
    24   1    -0.01   0.07  -0.23     0.25  -0.24  -0.08    -0.16   0.10  -0.04
    25   1     0.05  -0.04   0.11    -0.03  -0.00   0.00     0.09  -0.01   0.02
    26   1     0.14  -0.06   0.09    -0.05  -0.00  -0.01     0.08   0.05   0.07
    27   1     0.17  -0.19  -0.06    -0.06  -0.01   0.02     0.10  -0.05  -0.01
    28   1    -0.13  -0.23  -0.10    -0.06  -0.01   0.02    -0.09  -0.09   0.04
    29   1    -0.14  -0.03  -0.20    -0.05  -0.00  -0.01    -0.10   0.03   0.02
                      4                      5                      6
                      A                      A                      A
 Frequencies --     97.7402               182.1240               220.2348
 Red. masses --      4.3662                 2.8471                 1.9660
 Frc consts  --      0.0246                 0.0556                 0.0562
 IR Inten    --      2.6630                 0.2896                 0.1396
  Atom  AN      X      Y      Z        X      Y      Z        X      Y      Z
     1   8    -0.18  -0.13   0.22    -0.01   0.03  -0.02     0.02  -0.06  -0.06
     2   6    -0.02  -0.01  -0.02    -0.04  -0.01   0.02    -0.00  -0.05   0.00
     3   6     0.03   0.01  -0.07    -0.12  -0.05   0.09     0.03  -0.03  -0.03
     4   6    -0.02   0.01   0.01    -0.02  -0.01  -0.06    -0.01  -0.00   0.02
     5   6     0.03  -0.07  -0.02    -0.04   0.01  -0.12    -0.02   0.02   0.02
     6   6     0.01  -0.10   0.00    -0.08   0.07  -0.01    -0.02   0.02   0.01
     7   6     0.07   0.03   0.00     0.01   0.03   0.16    -0.06   0.01  -0.04
     8   6     0.09  -0.04  -0.08    -0.03   0.01  -0.11    -0.03   0.03  -0.01
     9   6     0.08  -0.09  -0.01    -0.02  -0.07  -0.03    -0.03   0.02   0.01
    10   6    -0.02   0.05   0.16     0.04  -0.03   0.13     0.04   0.00   0.05
    11   6     0.06   0.06  -0.16     0.00  -0.01  -0.04    -0.02  -0.00   0.01
    12   6    -0.00   0.15  -0.09     0.13   0.00  -0.04     0.20   0.04   0.03
    13   6    -0.07   0.12  -0.01     0.15   0.00  -0.03    -0.11   0.00   0.00
    14   1     0.02  -0.01  -0.18    -0.09  -0.02   0.30     0.03  -0.05  -0.10
    15   1     0.13   0.07  -0.06    -0.31  -0.15   0.07     0.09   0.02  -0.02
    16   1    -0.05  -0.02   0.09    -0.02  -0.00  -0.08     0.03  -0.00   0.04
    17   1     0.03  -0.11  -0.01    -0.02  -0.01  -0.11    -0.03   0.01   0.03
    18   1    -0.06  -0.23   0.02    -0.17   0.18  -0.02    -0.01  -0.00   0.01
    19   1     0.06   0.01   0.02    -0.04   0.11   0.32    -0.05  -0.03  -0.09
    20   1     0.14   0.16  -0.01     0.15  -0.09   0.18    -0.11   0.04  -0.04
    21   1     0.18  -0.05  -0.10    -0.03   0.06  -0.08    -0.02   0.02  -0.02
    22   1     0.15  -0.24  -0.07    -0.06  -0.17  -0.05    -0.07   0.02   0.02
    23   1    -0.08   0.21   0.24     0.11   0.11   0.16     0.11   0.03   0.04
    24   1    -0.04   0.00   0.24     0.04  -0.13   0.24     0.03  -0.04   0.09
    25   1     0.08   0.08  -0.23     0.01  -0.01  -0.02    -0.06  -0.01  -0.00
    26   1    -0.01   0.23  -0.12     0.17  -0.02   0.03     0.39   0.19   0.32
    27   1     0.00   0.16  -0.11     0.16   0.03  -0.10     0.46  -0.06  -0.22
    28   1    -0.12   0.10   0.05     0.22   0.04  -0.12    -0.27  -0.22   0.09
    29   1    -0.12   0.18  -0.01     0.20  -0.02   0.08    -0.29   0.20  -0.12
                      7                      8                      9
                      A                      A                      A
 Frequencies --    263.8334               284.1305               311.3865
 Red. masses --      2.0799                 1.9845                 2.9957
 Frc consts  --      0.0853                 0.0944                 0.1711
 IR Inten    --      0.1377                 0.0079                 0.4265
  Atom  AN      X      Y      Z        X      Y      Z        X      Y      Z
     1   8    -0.02  -0.09  -0.05     0.01   0.03   0.01    -0.05   0.01  -0.07
     2   6    -0.00  -0.03  -0.00     0.01   0.01   0.01    -0.06   0.03   0.01
     3   6     0.02  -0.02   0.00     0.04   0.03  -0.04     0.09   0.10  -0.09
     4   6     0.03   0.03  -0.01    -0.01  -0.02   0.04     0.03   0.06  -0.01
     5   6    -0.03   0.09  -0.00    -0.02  -0.03   0.00     0.02   0.00  -0.02
     6   6    -0.08  -0.00   0.02     0.07   0.19  -0.02     0.01  -0.07  -0.01
     7   6    -0.08   0.01   0.02    -0.00   0.02   0.00     0.05  -0.03   0.02
     8   6    -0.02   0.08   0.05    -0.03  -0.05  -0.02    -0.09  -0.03   0.03
     9   6     0.16  -0.04  -0.06     0.04  -0.13  -0.05    -0.09  -0.11   0.04
    10   6     0.07   0.03  -0.02    -0.03  -0.06   0.02    -0.11  -0.14  -0.02
    11   6    -0.04   0.02   0.05    -0.00  -0.01   0.02    -0.09   0.02   0.06
    12   6    -0.04  -0.02   0.03    -0.03  -0.00   0.02     0.08   0.07   0.07
    13   6     0.02  -0.00  -0.01    -0.06  -0.00   0.03     0.15   0.10   0.02
    14   1     0.03  -0.04   0.01     0.02   0.01  -0.17     0.09   0.01  -0.34
    15   1     0.01  -0.02  -0.00     0.15   0.10  -0.03     0.29   0.27  -0.07
    16   1     0.09   0.05  -0.02    -0.03  -0.03   0.05    -0.03   0.04   0.02
    17   1    -0.01   0.13  -0.00    -0.05  -0.08   0.01     0.03   0.05  -0.02
    18   1    -0.15  -0.18   0.04     0.22   0.56  -0.07    -0.07  -0.23   0.01
    19   1    -0.14  -0.14   0.03     0.10   0.27  -0.02    -0.03  -0.14   0.08
    20   1    -0.02   0.18  -0.00    -0.16  -0.37   0.05     0.16   0.11   0.00
    21   1    -0.07   0.11   0.07    -0.05  -0.03  -0.01    -0.09  -0.01   0.05
    22   1     0.50  -0.29  -0.23     0.18  -0.26  -0.13    -0.01  -0.16   0.00
    23   1    -0.25   0.28   0.15    -0.17   0.09   0.11    -0.22  -0.16  -0.00
    24   1     0.30  -0.15  -0.14     0.05  -0.15   0.00    -0.03  -0.15  -0.13
    25   1    -0.10  -0.00   0.06     0.03  -0.00   0.01    -0.04   0.04   0.03
    26   1    -0.06  -0.07   0.01    -0.03   0.02   0.01     0.13  -0.01   0.19
    27   1    -0.07  -0.01   0.05    -0.03  -0.02   0.03     0.13   0.14  -0.03
    28   1     0.02   0.01  -0.01    -0.08  -0.02   0.04     0.24   0.15  -0.07
    29   1     0.04  -0.04  -0.03    -0.08   0.01  -0.00     0.23   0.04   0.13
                     10                     11                     12
                      A                      A                      A
 Frequencies --    349.3304               371.8796               379.0286
 Red. masses --      2.6678                 2.6600                 3.4311
 Frc consts  --      0.1918                 0.2167                 0.2904
 IR Inten    --      0.3769                 1.6726                 3.5264
  Atom  AN      X      Y      Z        X      Y      Z        X      Y      Z
     1   8    -0.05  -0.02  -0.05    -0.01  -0.02   0.02     0.16  -0.03   0.09
     2   6    -0.06   0.01   0.02     0.03  -0.01  -0.06     0.14  -0.08   0.03
     3   6    -0.06  -0.01   0.08    -0.06  -0.04  -0.00     0.08  -0.07  -0.07
     4   6     0.02   0.04  -0.02    -0.02  -0.00  -0.06    -0.00  -0.01   0.02
     5   6     0.05   0.03  -0.07    -0.02   0.02   0.02    -0.10   0.03  -0.17
     6   6     0.11  -0.02  -0.14    -0.04   0.06   0.04    -0.16   0.02  -0.18
     7   6     0.20  -0.09   0.03    -0.08   0.05   0.00    -0.02   0.01   0.06
     8   6    -0.00   0.03   0.07     0.09  -0.01   0.12     0.00   0.02   0.00
     9   6     0.03  -0.00   0.06     0.09  -0.05   0.20    -0.02   0.01   0.05
    10   6    -0.02  -0.02  -0.03    -0.11  -0.09  -0.07    -0.04  -0.02  -0.01
    11   6    -0.05   0.02   0.04     0.04   0.02  -0.06     0.07  -0.02   0.04
    12   6    -0.03   0.02   0.03     0.06   0.03  -0.07    -0.05   0.06   0.06
    13   6    -0.12   0.02  -0.04     0.03   0.02  -0.06    -0.05   0.07   0.03
    14   1    -0.00  -0.01   0.30    -0.05   0.02   0.16     0.02  -0.05  -0.22
    15   1    -0.26  -0.10   0.06    -0.18  -0.15  -0.02     0.22   0.03  -0.05
    16   1     0.01   0.04  -0.01     0.01   0.00  -0.06     0.06  -0.02   0.12
    17   1    -0.05   0.10  -0.09     0.02   0.08   0.01    -0.23   0.04  -0.18
    18   1     0.05  -0.00  -0.14     0.01   0.18   0.02    -0.34  -0.00  -0.16
    19   1     0.10  -0.06   0.25    -0.02   0.13  -0.07    -0.16   0.03   0.33
    20   1     0.43  -0.19   0.04    -0.20  -0.04   0.01     0.29  -0.02   0.06
    21   1    -0.00   0.08   0.09     0.25   0.08   0.15    -0.04   0.13   0.06
    22   1     0.14  -0.02   0.02     0.18   0.06   0.21    -0.12   0.10   0.10
    23   1    -0.16  -0.04  -0.00    -0.35  -0.37  -0.11     0.02  -0.15  -0.08
    24   1     0.07  -0.01  -0.16    -0.09   0.16  -0.35    -0.12   0.10  -0.03
    25   1    -0.03   0.03   0.03     0.02   0.02  -0.09    -0.02  -0.02  -0.06
    26   1     0.03   0.06   0.13     0.10   0.05  -0.01    -0.13   0.07  -0.07
    27   1     0.06  -0.05  -0.04     0.11   0.03  -0.12    -0.13   0.04   0.17
    28   1    -0.27  -0.11   0.09     0.05   0.02  -0.09    -0.08   0.04   0.07
    29   1    -0.24   0.11  -0.23     0.03   0.04  -0.00    -0.07   0.08  -0.01
                     13                     14                     15
                      A                      A                      A
 Frequencies --    419.1944               464.7933               512.0199
 Red. masses --      2.6679                 3.9902                 3.6859
 Frc consts  --      0.2762                 0.5079                 0.5693
 IR Inten    --      3.2835                11.3541                 0.7325
  Atom  AN      X      Y      Z        X      Y      Z        X      Y      Z
     1   8     0.08   0.06   0.08     0.06   0.22   0.12    -0.08   0.11   0.03
     2   6     0.05  -0.02   0.04    -0.08  -0.15  -0.08    -0.02   0.09  -0.12
     3   6     0.04  -0.05   0.07    -0.09  -0.20  -0.16     0.10   0.01   0.07
     4   6     0.14   0.05  -0.03    -0.04  -0.02  -0.00     0.06  -0.03   0.18
     5   6     0.09   0.09   0.00     0.01   0.02   0.05    -0.04   0.08   0.02
     6   6     0.03   0.04   0.08     0.07  -0.02   0.01    -0.03   0.05  -0.09
     7   6    -0.06  -0.00  -0.02     0.06  -0.03  -0.01     0.00  -0.02   0.02
     8   6    -0.06   0.00  -0.07    -0.05   0.04   0.07    -0.00   0.08  -0.04
     9   6    -0.11  -0.09  -0.04     0.01   0.06   0.02    -0.01  -0.00   0.06
    10   6    -0.07  -0.11   0.01     0.05   0.04  -0.01    -0.02  -0.03  -0.01
    11   6     0.00   0.01  -0.03    -0.11  -0.13  -0.06    -0.01  -0.01  -0.14
    12   6    -0.04   0.03  -0.04     0.01   0.06   0.01     0.04  -0.12  -0.14
    13   6    -0.05   0.03  -0.07     0.02   0.07   0.03     0.01  -0.17   0.15
    14   1     0.12  -0.07   0.34    -0.03  -0.30  -0.21     0.05   0.02  -0.09
    15   1    -0.19  -0.17   0.05     0.03  -0.20  -0.15     0.35  -0.08   0.10
    16   1     0.20   0.05  -0.01     0.05  -0.02   0.10     0.12   0.01   0.03
    17   1     0.18   0.07   0.01     0.04   0.07   0.05    -0.22  -0.01   0.01
    18   1    -0.04  -0.21   0.11     0.12  -0.03   0.01    -0.14  -0.16  -0.06
    19   1    -0.10  -0.30  -0.13     0.07  -0.02  -0.01    -0.17  -0.22   0.19
    20   1    -0.11   0.27  -0.05     0.06  -0.04  -0.01     0.24   0.12  -0.00
    21   1    -0.09   0.01  -0.07    -0.05   0.02   0.06     0.12   0.12  -0.04
    22   1    -0.11  -0.20  -0.07     0.22  -0.06  -0.08     0.06  -0.08   0.01
    23   1    -0.10  -0.05   0.03    -0.11   0.19   0.09    -0.17  -0.06   0.01
    24   1    -0.02  -0.18   0.00     0.26  -0.14  -0.11     0.07  -0.04  -0.15
    25   1    -0.01   0.01  -0.07    -0.31  -0.16  -0.19    -0.02  -0.05   0.05
    26   1    -0.07   0.03  -0.09     0.07   0.06   0.11     0.09  -0.01  -0.08
    27   1    -0.07   0.00   0.01     0.08   0.14  -0.13     0.09  -0.05  -0.24
    28   1    -0.21  -0.05   0.11     0.10   0.12  -0.06    -0.05  -0.14   0.27
    29   1    -0.16   0.09  -0.28     0.08   0.03   0.15    -0.04  -0.13   0.09
                     16                     17                     18
                      A                      A                      A
 Frequencies --    581.8386               608.2456               637.3925
 Red. masses --      3.1156                 2.8048                 3.0054
 Frc consts  --      0.6214                 0.6114                 0.7194
 IR Inten    --      1.0197                 1.4017                 1.7230
  Atom  AN      X      Y      Z        X      Y      Z        X      Y      Z
     1   8     0.07  -0.09   0.07     0.08   0.01  -0.04    -0.05   0.08   0.02
     2   6     0.20   0.06  -0.08    -0.08  -0.07   0.25    -0.02   0.06  -0.04
     3   6     0.01   0.04  -0.02    -0.01  -0.01   0.11     0.16  -0.03   0.05
     4   6    -0.09  -0.09  -0.02     0.00  -0.10  -0.01     0.17  -0.07  -0.01
     5   6    -0.07  -0.03   0.10    -0.02  -0.02   0.03    -0.01  -0.13  -0.06
     6   6     0.03  -0.05  -0.01     0.00  -0.03   0.00    -0.12  -0.10  -0.02
     7   6     0.07  -0.02  -0.01     0.01  -0.00  -0.00    -0.05   0.04   0.01
     8   6    -0.13   0.09   0.05    -0.02   0.05  -0.01    -0.04  -0.08   0.10
     9   6    -0.13   0.05  -0.01    -0.01   0.04   0.06     0.01   0.04  -0.00
    10   6    -0.00  -0.03  -0.00     0.01   0.00  -0.00     0.04   0.05  -0.00
    11   6    -0.02   0.11   0.00    -0.02   0.09  -0.06    -0.12   0.04   0.03
    12   6     0.02   0.01  -0.08    -0.00   0.03  -0.16    -0.03   0.02  -0.03
    13   6     0.00  -0.02  -0.04    -0.00  -0.02  -0.08     0.04   0.04  -0.07
    14   1    -0.14   0.34   0.23     0.04  -0.25  -0.41     0.21  -0.03   0.23
    15   1    -0.15  -0.21  -0.03     0.24   0.58   0.12     0.05  -0.20   0.05
    16   1    -0.10  -0.09  -0.05     0.01  -0.08  -0.07     0.11  -0.10   0.05
    17   1    -0.09   0.06   0.09    -0.02   0.00   0.02    -0.02  -0.04  -0.07
    18   1     0.15   0.01  -0.02     0.04   0.02  -0.00    -0.08   0.21  -0.05
    19   1     0.09   0.12   0.04     0.05   0.08  -0.01     0.11   0.47  -0.02
    20   1     0.10  -0.15   0.01    -0.00  -0.07   0.00    -0.16  -0.25   0.04
    21   1    -0.10   0.00   0.00     0.08   0.04  -0.03    -0.03  -0.12   0.08
    22   1     0.07  -0.15  -0.12     0.09  -0.05   0.00     0.10   0.10  -0.01
    23   1    -0.16   0.20   0.12    -0.15   0.03   0.04     0.07   0.13   0.02
    24   1     0.28  -0.32  -0.09     0.16  -0.06  -0.15     0.06  -0.03   0.04
    25   1    -0.12   0.08   0.05    -0.05   0.08  -0.06    -0.06   0.06   0.02
    26   1     0.06   0.01  -0.02    -0.04  -0.00  -0.22     0.06  -0.07   0.15
    27   1     0.06  -0.01  -0.12    -0.06  -0.00  -0.08     0.07   0.05  -0.17
    28   1     0.12   0.09  -0.14    -0.02   0.05  -0.01    -0.13  -0.01   0.15
    29   1     0.08  -0.04   0.16    -0.01   0.02  -0.03    -0.06   0.09  -0.28
                     19                     20                     21
                      A                      A                      A
 Frequencies --    684.6076               716.6847               758.7237
 Red. masses --      2.1998                 2.2656                 3.1027
 Frc consts  --      0.6075                 0.6856                 1.0523
 IR Inten    --      5.0338                 2.4403                 2.0969
  Atom  AN      X      Y      Z        X      Y      Z        X      Y      Z
     1   8     0.00  -0.02  -0.01    -0.02  -0.01  -0.02     0.09  -0.04   0.03
     2   6    -0.01  -0.03  -0.01     0.00   0.04   0.00     0.05  -0.08   0.03
     3   6    -0.01   0.05   0.02    -0.01   0.04  -0.00     0.01   0.17   0.09
     4   6     0.00   0.15   0.02    -0.00  -0.12  -0.02    -0.02   0.16   0.02
     5   6     0.04   0.01  -0.05     0.07  -0.10  -0.11     0.01   0.02   0.03
     6   6    -0.06  -0.13   0.03     0.03   0.14  -0.01    -0.02   0.04  -0.04
     7   6    -0.01   0.02   0.00    -0.04   0.01   0.01    -0.02   0.01  -0.00
     8   6     0.04   0.04  -0.07     0.01  -0.11   0.04     0.01  -0.14   0.09
     9   6    -0.11   0.08   0.07    -0.08   0.11   0.07     0.02  -0.01  -0.04
    10   6    -0.00  -0.03  -0.00     0.03   0.02  -0.01     0.01   0.02  -0.01
    11   6     0.08  -0.11  -0.05     0.04  -0.05  -0.00    -0.11  -0.17  -0.09
    12   6     0.02  -0.04   0.04    -0.00   0.03   0.02    -0.07  -0.03  -0.11
    13   6    -0.00   0.00   0.05     0.00   0.02   0.03    -0.02   0.03  -0.01
    14   1     0.04  -0.01   0.02    -0.07   0.11   0.00     0.04   0.13   0.10
    15   1     0.01   0.04   0.02    -0.06   0.05  -0.01    -0.03   0.21   0.08
    16   1    -0.02   0.15  -0.00    -0.13  -0.16   0.03    -0.14   0.16  -0.07
    17   1     0.04  -0.06  -0.04     0.09  -0.09  -0.11    -0.05   0.02   0.02
    18   1     0.03   0.17  -0.01    -0.18  -0.08   0.03    -0.03  -0.01  -0.04
    19   1     0.20   0.44  -0.09    -0.19  -0.44  -0.02    -0.10  -0.06   0.10
    20   1    -0.17  -0.25   0.03    -0.02   0.30  -0.02     0.10   0.03  -0.01
    21   1     0.05   0.06  -0.06     0.00  -0.09   0.05    -0.00  -0.17   0.08
    22   1     0.09  -0.15  -0.06     0.19  -0.00  -0.04     0.09   0.11  -0.02
    23   1    -0.28   0.11   0.11    -0.16   0.22   0.11     0.16   0.11  -0.01
    24   1     0.36  -0.27  -0.24     0.38  -0.26  -0.17    -0.06  -0.02   0.15
    25   1     0.08  -0.11  -0.03     0.18  -0.01  -0.03    -0.13  -0.17  -0.17
    26   1    -0.06   0.01  -0.11    -0.02   0.04  -0.01     0.15   0.11   0.23
    27   1    -0.08   0.01   0.12    -0.02   0.07   0.02     0.22   0.02  -0.48
    28   1    -0.06  -0.11   0.05    -0.04   0.01   0.08     0.09   0.18  -0.06
    29   1    -0.05   0.02  -0.08    -0.03   0.07   0.03     0.10  -0.13   0.02
                     22                     23                     24
                      A                      A                      A
 Frequencies --    782.1903               837.3775               846.1730
 Red. masses --      2.5704                 1.4857                 2.5344
 Frc consts  --      0.9266                 0.6138                 1.0692
 IR Inten    --      1.9160                 4.3666                 2.1387
  Atom  AN      X      Y      Z        X      Y      Z        X      Y      Z
     1   8    -0.05   0.02  -0.03     0.01  -0.01   0.01    -0.00   0.01   0.01
     2   6    -0.05   0.01   0.00     0.02  -0.02  -0.03    -0.01  -0.01  -0.01
     3   6    -0.00  -0.06  -0.02    -0.06   0.07   0.01     0.06  -0.01   0.03
     4   6     0.02   0.05   0.02     0.01  -0.03  -0.00    -0.07   0.08   0.11
     5   6    -0.06   0.07   0.17    -0.01   0.00  -0.01    -0.06  -0.11   0.01
     6   6    -0.04   0.02  -0.08     0.01  -0.01   0.01     0.04   0.05   0.01
     7   6    -0.02   0.01  -0.02     0.01  -0.01   0.00     0.01  -0.01   0.00
     8   6     0.02  -0.12   0.12    -0.06   0.01   0.06    -0.02   0.04  -0.07
     9   6    -0.08   0.01  -0.06     0.03  -0.02  -0.02     0.03   0.02   0.05
    10   6    -0.02  -0.01  -0.02     0.00   0.01  -0.00     0.02   0.02   0.02
    11   6     0.16  -0.01   0.01    -0.03  -0.06  -0.02    -0.02  -0.05   0.06
    12   6     0.07   0.01  -0.04     0.07   0.02  -0.04     0.06  -0.11  -0.06
    13   6     0.02   0.04  -0.08     0.09   0.00   0.05     0.01   0.16  -0.15
    14   1     0.08  -0.17  -0.02    -0.13   0.14  -0.07     0.08  -0.02   0.09
    15   1     0.03  -0.05  -0.01    -0.01   0.10   0.01     0.15  -0.19   0.05
    16   1     0.15   0.08   0.01    -0.09  -0.03  -0.08    -0.21   0.00   0.33
    17   1    -0.14   0.15   0.16     0.03   0.10  -0.02    -0.15  -0.31   0.02
    18   1     0.08  -0.04  -0.08    -0.01  -0.00   0.02     0.00  -0.05   0.02
    19   1    -0.15   0.05   0.26     0.05   0.01  -0.05    -0.05  -0.21  -0.02
    20   1     0.27  -0.09  -0.01    -0.05  -0.01   0.00     0.01   0.12  -0.01
    21   1     0.01  -0.25   0.06    -0.08   0.04   0.07    -0.03   0.05  -0.07
    22   1     0.04   0.04  -0.08     0.00   0.05   0.01    -0.03  -0.04   0.05
    23   1     0.10   0.23   0.04     0.09  -0.01  -0.03    -0.12  -0.12  -0.00
    24   1     0.06  -0.26   0.15    -0.12   0.07   0.09     0.05   0.14  -0.16
    25   1     0.33   0.02   0.02    -0.16  -0.09  -0.00    -0.10  -0.11   0.23
    26   1    -0.08  -0.06  -0.29    -0.12  -0.21  -0.31    -0.03  -0.29  -0.17
    27   1    -0.12  -0.01   0.21    -0.23   0.30   0.15    -0.08  -0.11   0.10
    28   1    -0.03  -0.07  -0.09    -0.23  -0.35   0.26    -0.01   0.01  -0.23
    29   1    -0.05   0.13  -0.11    -0.23   0.37  -0.19    -0.02   0.20  -0.18
                     25                     26                     27
                      A                      A                      A
 Frequencies --    867.7564               897.4012               942.5636
 Red. masses --      2.2218                 2.1249                 1.3581
 Frc consts  --      0.9857                 1.0082                 0.7109
 IR Inten    --      4.7120                 2.4107                39.5392
  Atom  AN      X      Y      Z        X      Y      Z        X      Y      Z
     1   8     0.03   0.01   0.01     0.01  -0.00   0.03    -0.00  -0.00   0.00
     2   6    -0.01  -0.06   0.02     0.06   0.02  -0.10     0.00   0.00  -0.01
     3   6     0.05   0.06  -0.02    -0.08  -0.07   0.12    -0.01   0.00   0.01
     4   6     0.01   0.02  -0.03    -0.05   0.06   0.05     0.00  -0.01   0.00
     5   6    -0.05  -0.07   0.11    -0.00   0.01  -0.06     0.00   0.00   0.00
     6   6    -0.01   0.04  -0.04     0.03   0.00   0.02     0.02   0.05  -0.01
     7   6    -0.02   0.01  -0.02     0.03  -0.01   0.02    -0.06  -0.14   0.01
     8   6     0.04  -0.03  -0.09     0.03  -0.03   0.05    -0.00  -0.00  -0.00
     9   6     0.01   0.02   0.04    -0.04  -0.00  -0.02    -0.01   0.01   0.01
    10   6     0.02   0.01   0.01    -0.03  -0.02  -0.02     0.05  -0.04  -0.02
    11   6    -0.10   0.06  -0.09    -0.01   0.11  -0.05     0.00  -0.01  -0.00
    12   6     0.01   0.06   0.15    -0.03  -0.02   0.10    -0.00  -0.00   0.01
    13   6     0.05  -0.10  -0.03     0.05  -0.03  -0.09     0.00   0.01  -0.01
    14   1     0.13   0.02   0.19    -0.16  -0.13  -0.38    -0.02   0.01  -0.02
    15   1    -0.15  -0.03  -0.04     0.46   0.08   0.18     0.01   0.02   0.01
    16   1    -0.06   0.04  -0.17    -0.07   0.05   0.05     0.01  -0.01   0.01
    17   1    -0.08  -0.17   0.12    -0.02   0.04  -0.07     0.00  -0.00   0.00
    18   1     0.07  -0.06  -0.04    -0.06   0.05   0.03     0.00  -0.02   0.00
    19   1    -0.17  -0.06   0.20     0.07  -0.11  -0.13     0.24   0.59  -0.06
    20   1     0.21  -0.01  -0.02    -0.12   0.07   0.01     0.26   0.58  -0.07
    21   1     0.23  -0.17  -0.18     0.09  -0.00   0.06    -0.00  -0.01  -0.01
    22   1    -0.00  -0.05   0.02     0.03   0.07  -0.02    -0.00  -0.01   0.00
    23   1    -0.13  -0.05   0.02     0.08   0.15   0.01    -0.21   0.15   0.11
    24   1     0.10   0.06  -0.14     0.01  -0.19   0.12    -0.19   0.17   0.09
    25   1    -0.24   0.08  -0.35    -0.02   0.14  -0.23     0.01  -0.00  -0.01
    26   1    -0.07  -0.15   0.06     0.04  -0.15   0.24     0.00  -0.00   0.01
    27   1    -0.11   0.13   0.24     0.06  -0.07   0.02     0.00  -0.01   0.00
    28   1    -0.01  -0.31  -0.10    -0.02  -0.18  -0.08     0.00   0.01  -0.01
    29   1    -0.05  -0.00  -0.14     0.00  -0.04  -0.29     0.00   0.00  -0.01
                     28                     29                     30
                      A                      A                      A
 Frequencies --    944.5690               948.1425               964.7452
 Red. masses --      1.3582                 1.9432                 2.7856
 Frc consts  --      0.7140                 1.0292                 1.5276
 IR Inten    --     28.6223                 3.2031                 1.5121
  Atom  AN      X      Y      Z        X      Y      Z        X      Y      Z
     1   8     0.00  -0.00   0.00    -0.01   0.02  -0.01    -0.05   0.02  -0.00
     2   6     0.00   0.00   0.00    -0.05  -0.05   0.01     0.01   0.01  -0.10
     3   6    -0.01   0.00  -0.01     0.13   0.01   0.02     0.06   0.03   0.18
     4   6     0.01  -0.00   0.00    -0.07   0.07  -0.03    -0.02  -0.13  -0.06
     5   6    -0.00   0.00   0.00    -0.05  -0.03  -0.07    -0.01   0.06   0.04
     6   6     0.01   0.02  -0.00     0.03   0.00   0.02    -0.00  -0.01   0.01
     7   6    -0.03  -0.06   0.01     0.05  -0.03   0.04    -0.01   0.01  -0.02
     8   6     0.00  -0.00  -0.01    -0.06   0.01   0.08    -0.10   0.03  -0.03
     9   6     0.04  -0.03  -0.02     0.01  -0.01  -0.01     0.03  -0.00   0.00
    10   6    -0.11   0.09   0.06    -0.02   0.00  -0.02     0.03   0.03   0.04
    11   6    -0.01   0.00   0.00     0.04   0.01  -0.02     0.09  -0.17  -0.04
    12   6    -0.00  -0.00  -0.00     0.06   0.07  -0.01    -0.02   0.08   0.10
    13   6     0.01   0.00   0.00    -0.05  -0.10   0.01    -0.03   0.02  -0.10
    14   1    -0.02   0.01  -0.01     0.31  -0.16   0.23    -0.00   0.03  -0.10
    15   1    -0.01   0.01  -0.01     0.06  -0.20   0.02     0.30   0.08   0.20
    16   1     0.03   0.00   0.01    -0.23   0.07  -0.20    -0.14  -0.13  -0.17
    17   1    -0.00  -0.01   0.01    -0.16  -0.00  -0.09     0.15   0.16   0.05
    18   1     0.00  -0.02   0.00    -0.13   0.09   0.03     0.14  -0.10   0.01
    19   1     0.10   0.25  -0.02     0.19  -0.11  -0.27    -0.06   0.09   0.12
    20   1     0.11   0.24  -0.03    -0.20   0.21   0.01     0.11  -0.16  -0.01
    21   1    -0.00  -0.00  -0.00    -0.05   0.10   0.12    -0.31   0.07   0.02
    22   1    -0.02   0.01   0.01     0.05   0.12   0.02    -0.07  -0.16  -0.01
    23   1     0.45  -0.37  -0.24     0.13   0.08  -0.02    -0.06  -0.28  -0.05
    24   1     0.47  -0.36  -0.25    -0.03  -0.10   0.11     0.03   0.26  -0.19
    25   1     0.00   0.00   0.01     0.00   0.02  -0.10     0.14  -0.13  -0.18
    26   1     0.00  -0.02   0.01    -0.07   0.13  -0.24    -0.03   0.21   0.05
    27   1     0.00   0.01  -0.02    -0.08   0.05   0.16     0.03   0.04   0.07
    28   1    -0.01  -0.01   0.02     0.11  -0.09  -0.22     0.05   0.08  -0.18
    29   1    -0.01   0.01  -0.02     0.02  -0.12   0.20     0.04  -0.04   0.01
                     31                     32                     33
                      A                      A                      A
 Frequencies --    991.5546              1017.4922              1030.5464
 Red. masses --      2.0622                 2.0584                 1.1795
 Frc consts  --      1.1946                 1.2556                 0.7381
 IR Inten    --      0.8718                 1.2248                 9.2619
  Atom  AN      X      Y      Z        X      Y      Z        X      Y      Z
     1   8    -0.01   0.02  -0.00     0.02  -0.01   0.01     0.00  -0.00  -0.00
     2   6    -0.02  -0.03  -0.01     0.02   0.01  -0.02     0.00   0.01   0.02
     3   6     0.06   0.02   0.05    -0.00  -0.07   0.02     0.02  -0.01  -0.01
     4   6    -0.07  -0.08  -0.01    -0.10   0.10  -0.02    -0.02  -0.01   0.01
     5   6     0.14   0.01  -0.00     0.14  -0.01  -0.04    -0.02   0.03   0.00
     6   6    -0.03   0.00  -0.02    -0.01   0.01  -0.00     0.02   0.04  -0.01
     7   6    -0.06   0.02  -0.03    -0.06   0.02  -0.04     0.01  -0.01   0.01
     8   6     0.12   0.10   0.02    -0.04  -0.08   0.01     0.03  -0.03  -0.02
     9   6    -0.02  -0.02  -0.03    -0.00   0.01  -0.00    -0.06   0.05   0.04
    10   6    -0.07  -0.05  -0.05     0.04   0.03   0.04     0.01  -0.01  -0.01
    11   6    -0.05  -0.01   0.00    -0.04   0.08   0.08    -0.02  -0.00   0.00
    12   6     0.04  -0.03   0.02     0.02   0.03  -0.08    -0.00   0.00   0.00
    13   6    -0.05   0.05  -0.01    -0.01  -0.06   0.06     0.00   0.00  -0.01
    14   1     0.05   0.03   0.06     0.07  -0.20  -0.06     0.00   0.02   0.02
    15   1     0.05  -0.04   0.05     0.25  -0.21   0.06     0.01  -0.05  -0.01
    16   1    -0.26  -0.14   0.05    -0.26   0.09  -0.14     0.01  -0.00   0.01
    17   1     0.26   0.10  -0.00     0.35   0.02  -0.02    -0.04   0.04  -0.00
    18   1     0.06  -0.01  -0.03     0.11  -0.06  -0.01    -0.16  -0.32   0.04
    19   1    -0.15   0.13   0.21    -0.18   0.14   0.25     0.11   0.12  -0.08
    20   1     0.16  -0.08  -0.02     0.22  -0.11  -0.03    -0.14  -0.17   0.03
    21   1     0.27   0.13   0.01    -0.18  -0.18  -0.02     0.02   0.02   0.00
    22   1     0.07   0.09  -0.02    -0.05  -0.14  -0.03     0.52  -0.40  -0.27
    23   1     0.20   0.22  -0.02    -0.12  -0.21  -0.00     0.30  -0.21  -0.15
    24   1    -0.09  -0.33   0.28     0.06   0.23  -0.19    -0.21   0.14   0.12
    25   1    -0.27  -0.08   0.05     0.06   0.10   0.15     0.04   0.01   0.01
    26   1    -0.03  -0.13  -0.08    -0.00  -0.02  -0.11    -0.01  -0.06   0.01
    27   1    -0.06  -0.02   0.14    -0.05   0.10  -0.05    -0.01   0.06  -0.02
    28   1     0.04   0.05  -0.14     0.01  -0.12  -0.00     0.00  -0.04  -0.03
    29   1    -0.02   0.10   0.21    -0.06   0.03   0.11    -0.01   0.03   0.02
                     34                     35                     36
                      A                      A                      A
 Frequencies --   1034.8137              1045.7874              1054.7371
 Red. masses --      2.3865                 1.1798                 1.9652
 Frc consts  --      1.5057                 0.7602                 1.2881
 IR Inten    --     11.8412                11.3833                 0.2639
  Atom  AN      X      Y      Z        X      Y      Z        X      Y      Z
     1   8    -0.00   0.00   0.00    -0.00  -0.00  -0.00    -0.01  -0.01   0.00
     2   6     0.01   0.05   0.04     0.00   0.01  -0.01     0.02   0.04  -0.01
     3   6     0.07  -0.03   0.03    -0.02  -0.00   0.00     0.00  -0.04   0.03
     4   6    -0.09  -0.07  -0.02     0.02   0.01  -0.00    -0.02   0.03  -0.07
     5   6    -0.04   0.19  -0.00    -0.00  -0.04   0.00    -0.09  -0.05   0.03
     6   6    -0.02  -0.07  -0.00    -0.02  -0.06   0.02     0.03   0.05   0.01
     7   6     0.06  -0.01   0.03    -0.01   0.01  -0.01     0.00  -0.01  -0.01
     8   6     0.11  -0.13  -0.08     0.01   0.04  -0.00     0.11   0.06  -0.05
     9   6    -0.01   0.01   0.00    -0.03   0.02   0.02    -0.00  -0.01   0.00
    10   6     0.02   0.01   0.01    -0.01  -0.01  -0.01    -0.03  -0.03  -0.02
    11   6    -0.11  -0.04   0.04     0.02  -0.02   0.03    -0.01  -0.08   0.11
    12   6     0.01   0.01  -0.01    -0.02   0.04  -0.01    -0.08   0.09  -0.03
    13   6    -0.02   0.02  -0.01     0.02  -0.02  -0.01     0.06  -0.04  -0.00
    14   1    -0.07   0.14   0.02     0.00  -0.04  -0.02     0.07  -0.15  -0.05
    15   1     0.14  -0.16   0.04     0.00   0.02   0.00     0.17  -0.09   0.05
    16   1     0.16   0.01  -0.12     0.02   0.02  -0.04    -0.02   0.09  -0.34
    17   1    -0.10   0.20  -0.01    -0.01  -0.16   0.02    -0.09  -0.16   0.04
    18   1     0.06   0.45  -0.05     0.31   0.57  -0.06    -0.03  -0.31   0.05
    19   1     0.12  -0.19  -0.20    -0.16  -0.23   0.09     0.02   0.05   0.01
    20   1    -0.11   0.25   0.00     0.21   0.33  -0.05     0.00  -0.12   0.01
    21   1     0.14  -0.17  -0.10    -0.04   0.11   0.03     0.10   0.12  -0.02
    22   1    -0.09   0.01   0.03     0.31  -0.19  -0.14    -0.12   0.15   0.08
    23   1    -0.14   0.00   0.05     0.19  -0.09  -0.09    -0.04   0.19   0.06
    24   1     0.12   0.01  -0.12    -0.14   0.03   0.11     0.04  -0.21   0.07
    25   1     0.03  -0.01   0.09     0.00  -0.03   0.08    -0.01  -0.13   0.38
    26   1    -0.01  -0.20  -0.00    -0.00   0.11   0.01     0.01   0.22   0.10
    27   1    -0.08   0.21  -0.02     0.01   0.07  -0.07     0.03   0.28  -0.26
    28   1     0.00  -0.06  -0.10    -0.01  -0.03   0.02    -0.06  -0.09   0.13
    29   1    -0.09   0.22   0.20    -0.00  -0.03  -0.09    -0.03   0.05  -0.13
                     37                     38                     39
                      A                      A                      A
 Frequencies --   1074.2552              1092.9270              1111.9598
 Red. masses --      2.5785                 1.8391                 1.8677
 Frc consts  --      1.7532                 1.2943                 1.3606
 IR Inten    --      0.2239                10.5614                12.1976
  Atom  AN      X      Y      Z        X      Y      Z        X      Y      Z
     1   8    -0.00  -0.00  -0.01     0.01  -0.00  -0.02    -0.00  -0.01   0.01
     2   6    -0.02  -0.02   0.02    -0.03   0.02   0.12     0.05   0.07  -0.01
     3   6    -0.05   0.04  -0.04     0.06  -0.01  -0.07    -0.01  -0.04   0.03
     4   6     0.03  -0.01   0.19    -0.10  -0.02   0.05     0.04   0.03  -0.03
     5   6     0.11   0.03  -0.02    -0.01   0.06  -0.03    -0.06   0.02  -0.07
     6   6    -0.02  -0.01  -0.02     0.01  -0.02   0.05     0.04  -0.01   0.08
     7   6    -0.01   0.01   0.01    -0.01   0.00  -0.03    -0.02   0.01  -0.04
     8   6     0.03  -0.00  -0.00    -0.05   0.01  -0.02    -0.09  -0.08  -0.06
     9   6     0.01  -0.01  -0.01     0.03  -0.01   0.03     0.05   0.00   0.09
    10   6    -0.00  -0.00   0.00    -0.01  -0.00  -0.02    -0.02   0.01  -0.05
    11   6    -0.04  -0.05   0.09     0.04  -0.01  -0.08    -0.07  -0.02  -0.02
    12   6     0.03   0.17  -0.04    -0.09  -0.02   0.01     0.07  -0.01   0.02
    13   6    -0.01  -0.14  -0.14     0.09  -0.01  -0.01    -0.08  -0.01   0.01
    14   1    -0.32   0.39  -0.04     0.01   0.13   0.14    -0.07   0.01  -0.07
    15   1     0.03  -0.14  -0.02     0.01  -0.28  -0.06    -0.01   0.16   0.02
    16   1     0.19  -0.01   0.32    -0.20  -0.09   0.26     0.40   0.10   0.05
    17   1    -0.06  -0.16  -0.01     0.13   0.07  -0.02     0.05  -0.27  -0.02
    18   1    -0.14  -0.05  -0.01     0.20  -0.05   0.04     0.25  -0.17   0.08
    19   1     0.01   0.08  -0.00    -0.06   0.07   0.11    -0.10   0.09   0.16
    20   1    -0.08  -0.07   0.02     0.14  -0.07  -0.02     0.21  -0.14  -0.03
    21   1    -0.08   0.03   0.03    -0.12   0.21   0.09     0.02   0.15   0.03
    22   1    -0.06   0.05   0.03     0.03   0.17   0.08     0.24   0.28   0.12
    23   1    -0.03   0.02   0.02     0.05   0.13   0.01     0.15   0.23  -0.01
    24   1     0.02  -0.03  -0.00    -0.02  -0.08   0.08    -0.03  -0.14   0.13
    25   1    -0.10  -0.04  -0.02     0.36   0.08  -0.14     0.05  -0.00   0.03
    26   1    -0.05   0.21  -0.19     0.04  -0.05   0.23    -0.05  -0.05  -0.17
    27   1    -0.04   0.13   0.07     0.06   0.12  -0.25    -0.08   0.12   0.12
    28   1     0.11  -0.11  -0.29    -0.04  -0.29  -0.01     0.08   0.04  -0.18
    29   1     0.09  -0.30  -0.14    -0.05   0.08  -0.23     0.01  -0.04   0.20
                     40                     41                     42
                      A                      A                      A
 Frequencies --   1139.5246              1184.1348              1190.7038
 Red. masses --      1.4061                 1.3678                 1.7530
 Frc consts  --      1.0758                 1.1300                 1.4644
 IR Inten    --     14.7560                 5.8386                 1.4139
[...]
 57,-0.00052208,-0.00005584,0.00711149,0.00325275,-0.00457094,0.1588546
 8,-0.00016550,0.00006600,-0.00006213,0.00008739,-0.00025159,0.00020254
 ,-0.00001135,0.00000752,-0.00005280,-0.00010491,-0.00015895,0.00002406
 ,0.00030669,-0.00026270,-0.00041476,0.00004838,0.00009808,0.00000755,0
 .00002600,0.00002633,0.00005910,-0.00439616,-0.00041211,0.00073517,-0.
 01104196,0.00870345,-0.01399787,0.06036691,-0.07727330,0.05368156,-0.0
 0012982,0.00073335,0.00024346,-0.00004944,0.00000421,-0.00009003,0.000
 01329,0.00001368,-0.00000218,0.,-0.00000584,0.00000834,0.00001468,-0.0
 0000270,0.00000387,0.00003123,-0.00002554,-0.00003058,-0.00000795,-0.0
 0006782,-0.00000453,0.00004454,0.00000761,-0.00000354,0.00000217,-0.00
 000212,0.00000149,-0.00001525,-0.00002589,-0.00000130,0.00040425,-0.00
 001162,0.00037584,0.00322963,0.00114561,-0.00552145,-0.06420264,0.0715
 8949,0.00022511,-0.00003058,0.00010601,-0.00013476,0.00016748,-0.00027
 197,0.00000009,0.00000599,0.00003823,0.00014715,0.00016656,-0.00004121
 ,-0.00018291,0.00025842,0.00054025,-0.00027051,0.00012945,-0.00016012,
 0.00011994,-0.00011021,-0.00000536,0.00201388,0.00399422,-0.00095587,-
 0.01853463,0.00827490,-0.01583150,-0.13355732,0.05067550,-0.19521472,0
 .00032889,-0.00083649,-0.00007153,-0.00018464,0.00022305,-0.00005250,-
 0.00000634,0.00002387,-0.00000485,0.00000602,0.00001110,0.00000306,-0.
 00000104,-0.00001930,-0.00000034,-0.00002809,0.00004466,0.00006661,0.0
 0003081,-0.00001962,0.00002357,0.00011847,-0.00007717,0.00015793,0.000
 00883,-0.00002069,-0.00002553,-0.00001478,0.00001736,0.00005728,0.0008
 2538,-0.00107902,0.00040035,-0.00431994,-0.00564305,-0.00021679,0.1500
 2432,-0.05400494,0.20638468,0.00032636,-0.00026601,0.00021821,-0.00008
 074,0.00070290,-0.00073016,0.00004851,-0.00008191,0.00015191,0.0003908
 5,0.00038618,-0.00019203,-0.00095583,0.00097343,0.00091722,-0.00026431
 ,-0.00000244,0.00003467,0.00001593,-0.00002465,-0.00000039,0.00737360,
 0.00433194,-0.00543610,0.00555810,-0.00631042,-0.00214605,-0.10863805,
 0.12716520,0.00677859,0.00099430,-0.00222849,-0.00042536,0.00003393,0.
 00003350,0.00015654,-0.00002066,0.00004586,-0.00001859,-0.00003481,0.0
 0001521,0.00000896,-0.00002532,-0.00005406,-0.00000399,-0.00009024,0.0
 0009257,0.00016760,0.00003953,0.00011155,0.00000716,0.00004226,-0.0000
 4616,0.00002592,-0.00000292,-0.00003456,-0.00002453,-0.00001007,0.0000
 0787,0.00001699,0.00018206,-0.00031326,0.00018991,-0.00358608,-0.00307
 625,0.00339393,-0.00557571,0.01543426,0.00320264,0.10444004,0.00038531
 ,-0.00027100,0.00014943,-0.00017710,0.00074351,-0.00055340,-0.00000196
 ,-0.00002078,0.00014145,0.00001769,0.00007433,-0.00003432,-0.00009610,
 0.00054555,0.00011601,-0.00002366,-0.00007327,0.00003078,-0.00007948,0
 .00001632,0.00003136,0.00300451,0.00329436,-0.00487705,0.00953934,-0.0
 1239748,-0.00023379,0.12512980,-0.26945723,-0.03364644,0.00045966,-0.0
 0196879,-0.00030101,0.00013399,0.00003250,0.00004439,0.00001919,0.0000
 4093,0.00001861,-0.00001811,0.00000498,-0.00001135,-0.00002559,-0.0000
 2367,0.00000261,-0.00004654,-0.00001247,0.00000809,-0.00000151,0.00003
 395,0.00000812,0.00000565,-0.00002777,-0.00001134,-0.00004617,-0.00002
 820,-0.00000850,0.00000019,-0.00000156,0.00000110,-0.00036970,0.000385
 15,-0.00001377,-0.00315132,-0.00073587,0.00180014,0.00231511,-0.003760
 33,-0.00197583,-0.13683887,0.28365275,0.00005406,0.00005984,-0.0000098
 0,-0.00008378,-0.00013272,0.00016894,-0.00007037,0.00009585,-0.0000362
 5,-0.00039589,-0.00040066,0.00019388,0.00128093,-0.00097968,-0.0006040
 4,0.00032176,-0.00000214,0.00005064,-0.00007934,0.00006152,-0.00000699
 ,-0.00670384,-0.00373339,-0.00006878,0.01357999,-0.02473643,-0.0002140
 3,0.00478561,-0.03052737,-0.05610561,-0.00021436,0.00060537,0.00042170
 ,-0.00004981,-0.00001981,0.00006268,0.00003453,-0.00002920,0.00003971,
 0.00002626,-0.00000503,-0.00000887,-0.00000072,0.00001490,0.00000333,0
 .00006130,-0.00011088,-0.00019699,-0.00010672,-0.00024771,-0.00002304,
 -0.00005412,0.00002973,-0.00005321,-0.00001838,0.00001085,0.00003259,0
 .00000600,-0.00001692,-0.00002032,0.00027565,-0.00003440,0.00026545,0.
 00316460,0.00196780,-0.00081955,-0.00960886,0.01863448,0.00506446,-0.0
 0628525,0.03939736,0.05197677,0.00195797,-0.00218710,-0.00010603,0.011
 81727,0.01814030,0.00090841,-0.00227522,0.00270048,-0.00008002,-0.0001
 6365,0.00076275,0.00001409,-0.00060700,0.00060657,0.00314516,0.0000759
 8,-0.00071119,0.00009573,-0.00024894,0.00010435,-0.00002252,-0.0117247
 0,-0.01396855,-0.00015405,0.00040260,-0.00112161,-0.00098338,0.0004313
 5,0.00059572,0.00017795,-0.14187089,-0.12963642,-0.00812352,-0.0094650
 1,-0.01390215,-0.00077907,-0.00046125,0.00108144,-0.00284004,0.0003275
 7,0.00060487,-0.00000312,0.00026789,0.00051722,0.00000728,0.00004093,-
 0.00002737,-0.00000178,-0.00047995,-0.00049978,0.00002155,-0.00004437,
 0.00001794,-0.00006464,-0.00004961,0.00008144,0.00009550,-0.00000326,-
 0.00005606,-0.00005815,0.00060802,0.00023869,0.00006406,-0.00026023,0.
 00006395,0.00006809,-0.00005162,-0.00003935,0.00003169,-0.00004519,0.0
 0000254,0.00005999,0.15152670,0.00060733,0.00573225,0.00029877,-0.0205
 2538,-0.02562456,-0.00109324,0.00364100,-0.00269593,-0.00018825,0.0010
 2105,0.00036571,0.00009211,0.00080250,0.00076921,-0.00038144,0.0000164
 4,0.00008366,0.00014034,0.00002000,0.00004082,-0.00004999,0.00084765,0
 .00060413,0.00016478,0.00090511,0.00054973,-0.00034213,-0.00003006,0.0
 0039713,0.00007817,-0.12597692,-0.22398851,-0.01000523,0.00209386,0.00
 284750,-0.00012217,0.00054788,0.00085897,0.00078164,-0.00043068,-0.000
 97363,0.00000879,-0.00030862,-0.00075590,0.00002675,-0.00007787,0.0001
 0266,-0.00001836,0.00004156,0.00003126,-0.00001898,-0.00003091,0.00000
 462,-0.00000299,-0.00001500,-0.00003949,-0.00002281,0.00001214,0.00001
 302,0.00000811,-0.00009743,-0.00002997,0.00039626,-0.00002607,0.000039
 06,0.00007517,0.00003391,0.00002100,0.00001098,-0.00005239,-0.00002221
 ,0.00009057,0.13708390,0.24080981,0.00019538,0.00000487,-0.00104760,-0
 .00002850,0.00048523,-0.00048658,-0.00003896,0.00019589,0.00204679,0.0
 0004609,0.00006838,-0.00075087,0.00242004,-0.00112271,-0.00382012,-0.0
 0008260,0.00126246,-0.00017678,0.00042744,-0.00012061,0.00010995,0.016
 32900,0.02030159,0.00060607,-0.00022223,0.00127925,0.00127498,-0.00039
 943,-0.00031169,-0.00004340,-0.00814659,-0.01036293,-0.04917428,-0.015
 96755,-0.02369456,-0.00175543,-0.00284382,0.00189120,-0.00420031,0.000
 12696,0.00032809,-0.00003466,-0.00009232,-0.00032329,-0.00005036,0.000
 02065,-0.00000440,0.00015361,0.00054230,0.00076722,0.00002857,0.000129
 55,-0.00012813,0.00006570,0.00006110,-0.00013222,-0.00015704,-0.000006
 49,0.00004905,0.00007779,-0.00085049,0.00007502,0.00064161,0.00011318,
 -0.00012944,-0.00007578,-0.00001454,0.00003837,-0.00006942,0.00003350,
 0.00002772,-0.00008635,0.00806055,0.01113492,0.05541809,0.00011100,-0.
 00034065,0.00024243,0.00164044,-0.00013145,-0.00041328,-0.00020809,0.0
 0004246,0.00004341,-0.00147228,-0.00093742,-0.00123202,-0.00020682,-0.
 00005065,-0.00015781,-0.00007641,0.00019722,-0.00012595,0.00008164,-0.
 00003280,0.00006032,-0.00264640,0.00058979,-0.00345044,-0.00042887,0.0
 0041642,-0.00008739,0.00018836,-0.00021856,0.00005810,0.01241855,0.002
 23374,-0.01655262,-0.14739769,-0.01461240,0.12791132,-0.00899760,-0.00
 150925,0.01101732,-0.00000457,-0.00000619,-0.00002090,0.00007945,0.000
 00520,0.00001057,0.00020869,-0.00024916,0.00053976,0.00004010,0.000023
 48,0.00008652,0.00016885,-0.00006260,-0.00001573,-0.00000797,-0.000015
 49,-0.00001349,-0.00001186,-0.00001921,0.00002453,0.00076978,-0.000024
 78,-0.00115573,0.00026408,-0.00027152,0.00006598,0.00004460,0.00005941
 ,0.00006074,-0.00003581,-0.00004382,0.00002342,0.00087506,-0.00010949,
 0.00087917,0.15662241,0.00019573,0.00020483,-0.00028981,-0.00072732,-0
 .00034188,0.00103338,-0.00027518,0.00022705,0.00006287,-0.00298410,-0.
 00280993,-0.00122302,0.00014282,-0.00020245,-0.00043252,0.00016764,-0.
 00000626,0.00009150,-0.00001830,0.00006794,-0.00000457,-0.00012051,0.0
 0032601,-0.00025743,0.00029936,-0.00007237,0.00010071,-0.00016104,0.00
 020145,-0.00013138,0.00042462,-0.00045709,0.00018096,-0.01395627,-0.05
 148240,0.02139296,-0.01676668,-0.00545401,0.02108819,0.00005452,-0.000
 15286,0.00000066,0.00015293,-0.00001790,-0.00000064,0.00028244,-0.0006
 9985,0.00107951,0.00004338,0.00009579,0.00005360,-0.00007036,-0.000046
 35,-0.00006374,-0.00000580,-0.00001226,-0.00000712,0.00000558,-0.00001
 061,-0.00002630,-0.00004227,0.00016644,-0.00008129,-0.00032998,0.00022
 903,0.00003913,-0.00002199,-0.00006038,-0.00006164,0.00001622,-0.00000
 966,-0.00000078,0.00031047,0.00024559,-0.00026166,0.01858766,0.0574958
 1,-0.00149335,0.00000634,0.00036628,0.00300574,-0.00109010,-0.00021646
 ,0.00018496,0.00002921,-0.00019653,-0.00033614,-0.00009051,0.00023487,
 -0.00046271,-0.00059960,0.00045102,-0.00007487,0.00016525,0.00000145,0
 .00006695,-0.00000303,0.00003262,-0.00505543,0.00048901,-0.00386563,-0
 .00044977,0.00057748,0.00030731,0.00004938,-0.00019802,-0.00005872,0.0
 1539183,0.00317066,-0.02221514,0.12664465,0.02179684,-0.21103940,-0.00
 320116,-0.00156407,0.00400434,-0.00001025,0.00011024,0.00002019,-0.000
 02486,0.00001823,0.00002757,0.00001436,-0.00002675,0.00005333,0.000001
 00,0.00004418,0.00008621,0.00003368,-0.00003381,-0.00001917,0.00001798
 ,-0.00001866,-0.00002524,-0.00000854,-0.00000360,0.00000219,0.00124555
 ,-0.00001103,-0.00156292,0.00008258,-0.00006539,0.00011295,0.00005183,
 0.00003074,0.00002278,-0.00000054,-0.00007498,-0.00000250,0.00008280,-
 0.00054766,0.00092796,-0.13491196,-0.02124707,0.23040987,-0.00098437,0
 .00126990,0.00065297,-0.00060687,-0.00380737,-0.00371045,-0.00012235,0
 .00040930,0.00073701,-0.00079558,-0.00134300,-0.00073461,0.00015362,0.
 00011749,-0.00005803,0.00002682,-0.00002669,0.00010274,-0.00000785,0.0
 0000461,-0.00004896,0.00066677,-0.00046537,0.00136091,-0.00025959,0.00
 040431,0.00004192,0.00020712,-0.00042878,0.00011189,-0.01241944,0.0156
 4181,-0.00285672,-0.14621992,0.12806503,0.00503959,0.01034676,-0.01652
 470,-0.00058130,0.00006800,0.00016458,-0.00003859,0.00007034,-0.000097
 75,0.00002323,0.00003792,-0.00027476,0.00050366,-0.00001562,0.00002639
 ,0.00004309,-0.00001954,0.00003292,-0.00000505,0.00000931,-0.00001376,
 -0.00001080,0.00001047,0.00002011,-0.00000330,-0.00005917,-0.00004308,
 0.00011305,0.00054433,-0.00010733,0.00070366,0.00008513,0.00010105,0.0
 0005549,-0.00006197,-0.00006395,-0.00000487,0.00008554,-0.00020268,0.0
 0038767,-0.01290838,0.01614379,0.00039406,0.16082208,-0.00005440,-0.00
 002879,0.00020934,0.00013726,0.00059175,-0.00045763,-0.00032655,0.0007
 0949,-0.00034616,-0.00164408,-0.00200301,-0.00139936,0.00010804,-0.000
 37041,-0.00006053,0.00037109,-0.00019044,0.00041418,-0.00016646,0.0001
 6197,-0.00009311,0.00061916,-0.00020446,-0.00017569,0.00077313,-0.0003
 6621,0.00006903,-0.00035656,0.00028850,-0.00021611,-0.00044611,0.00150
 416,0.00099826,0.12695014,-0.21108291,-0.00215573,0.01438555,-0.020038
 31,-0.00180143,-0.00006654,0.00010994,-0.00001412,0.00005407,0.0000021
 9,0.00009862,0.00002510,-0.00044044,0.00090312,-0.00005611,0.00011855,
 0.00009204,-0.00034122,-0.00000713,-0.00002016,-0.00001995,-0.00002259
 ,-0.00000039,0.00003122,0.00001805,-0.00006735,-0.00014063,0.00004238,
 0.00010117,-0.00036293,0.00039865,-0.00084106,-0.00006776,-0.00008634,
 -0.00012378,0.00004436,0.00001322,-0.00000945,0.00021136,0.00037528,0.
 00049805,-0.00171607,0.00301812,-0.00073374,-0.13617884,0.22887648,-0.
 00258829,0.00179792,0.00149584,-0.00081137,-0.00424879,-0.00578055,0.0
 0020235,-0.00006423,0.00098007,0.00012116,0.00038368,-0.00033924,0.000
 22420,0.00026134,-0.00004611,-0.00001396,0.00016717,-0.00023044,0.0000
 9125,-0.00009031,0.00003120,0.00053664,0.00011914,0.00196151,-0.000225
 08,0.00024606,-0.00072569,0.00020144,-0.00037407,0.00020699,-0.0207441
 3,0.02569145,-0.00352699,0.00563692,-0.00181254,-0.04792630,0.00070518
 ,-0.00217340,-0.00096989,0.00014770,0.00023958,0.00002246,0.00002537,-
 0.00016133,0.00002010,0.00021366,0.00001330,-0.00010437,-0.00000660,-0
 .00004224,0.00002649,0.00017154,-0.00000487,0.00007775,-0.00000006,0.0
 0000763,0.00000181,-0.00001703,-0.00000721,0.00003055,-0.00005194,-0.0
 0022091,0.00051623,0.00090576,-0.00076192,-0.00126407,0.00011083,0.000
 12893,0.00002553,-0.00005745,-0.00001953,0.00000349,0.00058410,-0.0005
 0622,0.00091006,0.01726281,-0.02184295,0.00050596,-0.00190705,0.004389
 23,0.05284835,-0.00026101,0.00002125,-0.00003943,0.00092182,0.00002908
 ,0.00040879,0.00087645,0.00073970,-0.00113811,-0.00199135,0.00074608,-
 0.00056978,-0.00043479,0.00024410,-0.00002140,-0.00079582,0.00100653,0
 .00042257,0.00042324,-0.00022700,0.00028459,-0.00017298,-0.00004694,0.
 00018025,-0.00006961,0.00017239,-0.00014171,0.00009208,-0.00004903,-0.
 00000450,-0.00072172,-0.00187239,0.00115577,-0.01271398,0.00239589,-0.
 00155882,-0.29671291,0.05020124,-0.03807111,0.00023444,-0.00018817,0.0
 0005872,-0.00030839,-0.00009138,0.00005469,0.00055444,0.00040155,-0.00
 028895,0.00008984,-0.00008639,-0.00010300,0.00029247,-0.00031593,0.001
 32582,0.00002927,0.00008413,0.00003740,-0.00010934,-0.00021223,0.00002
 670,0.00008596,0.00002877,-0.00005106,-0.00000173,-0.00008841,0.000015
 98,-0.00000459,0.00000333,0.00002544,-0.00001259,-0.00003054,-0.000003
 89,-0.00030428,0.00012972,-0.00064870,-0.00080838,-0.00140490,-0.00076
 797,0.00189627,0.00003993,-0.00002621,0.32051148,0.00012659,0.00066063
 ,-0.00001247,-0.00008267,-0.00186721,0.00010156,-0.00022404,-0.0014822
 4,0.00439136,0.01854395,-0.00437882,0.00139880,-0.00016557,0.00024626,
 -0.00066374,-0.00003201,0.00027466,-0.00041475,-0.00014386,-0.00011880
 ,0.00003400,-0.00012734,-0.00003166,0.00016737,-0.00004036,0.00016059,
 -0.00009948,0.00004806,-0.00002829,0.00002138,-0.00231805,-0.00291746,
 0.00080854,-0.02780870,0.00311402,-0.00476974,0.05051480,-0.05740171,0
 .00652865,-0.00048986,0.00024524,-0.00000277,0.00144526,-0.00005574,0.
 00048262,0.00003514,0.00028900,-0.00065265,0.00009753,-0.00007348,-0.0
 0005575,0.00021982,0.00008691,-0.00053306,-0.00002950,-0.00002039,-0.0
 0000675,0.00001725,0.00002876,0.00003646,0.00007022,-0.00001439,-0.000
 09572,-0.00000116,-0.00006419,0.00000215,0.00000910,0.00000684,0.00001
 524,-0.00001771,-0.00001332,0.00000653,-0.00057835,0.00013618,-0.00109
 880,-0.00185361,-0.00195202,-0.00012809,-0.00024028,0.00175992,-0.0001
 9727,-0.05438854,0.06699961,-0.00035531,-0.00032152,0.00009177,0.00085
 326,0.00067500,-0.00015014,0.00057983,0.00255773,-0.00500695,-0.028796
 71,0.00576422,-0.00333452,-0.00055539,-0.00045461,0.00152825,-0.000149
 01,0.00029505,-0.00085155,0.00047111,-0.00009402,0.00024637,-0.0002544
 0,-0.00024797,0.00006042,-0.00008074,0.00009250,-0.00012482,0.00008753
 ,-0.00004918,-0.00000311,-0.00048879,-0.00077071,-0.00031160,-0.001862
 67,0.00040303,-0.00089535,-0.03602009,0.00590231,-0.05580604,-0.000045
 94,0.00029041,0.00014593,-0.00185951,0.00049451,-0.00007327,0.00059386
 ,-0.00036601,0.00119153,0.00011955,0.00014981,0.00029317,0.00101940,-0
 .00092190,-0.00110558,0.00000535,0.00004486,0.00000093,-0.00008876,-0.
 00012695,0.00003188,0.00007329,0.00006995,0.00001979,0.00002274,-0.000
 11605,0.00002907,-0.00000188,0.00000412,0.00002630,-0.00001326,-0.0000
 1275,0.00000191,-0.00009283,-0.00005158,-0.00020886,0.00005540,0.00037
 140,-0.00014071,0.00004109,0.00002962,0.00116613,0.04034753,-0.0082008
 4,0.05826109,-0.00010384,0.00024482,0.00005723,0.00002085,-0.00055445,
 -0.00008550,0.00052757,-0.00044999,-0.00142439,0.00052055,-0.00186757,
 -0.00360295,0.00003633,0.00015613,-0.00109014,-0.00028794,0.00053345,-
 0.00005452,0.00029588,-0.00013227,0.00018124,-0.00011035,0.00010695,0.
 00032795,0.00003623,0.00001813,-0.00002057,0.00001924,0.00003259,-0.00
 001130,-0.00072233,-0.00160678,0.00006138,0.00452661,-0.01110851,-0.01
 362832,-0.07815795,0.04673432,0.06519932,0.00016309,0.00018274,0.00006
 095,0.00007957,-0.00008544,0.00008873,-0.00000886,-0.00002979,0.000341
 90,0.00026777,-0.00012673,-0.00018142,0.00034625,-0.00042015,0.0001284
 0,-0.00001049,0.00003161,0.00001547,-0.00008083,-0.00009083,0.00004556
 ,0.00005145,0.00008383,-0.00000165,-0.00004366,-0.00003942,0.00000310,
 -0.00001219,-0.00000887,0.00001008,-0.00000517,0.00000146,0.00000609,-
 0.00036170,0.00007946,-0.00043036,0.00169814,0.00005753,-0.00046982,-0
 .00054985,-0.00180621,-0.00069172,-0.01058427,0.01741387,0.02639534,0.
 08244990,-0.00034484,0.00031709,0.00013932,0.00054552,-0.00079344,-0.0
 0034436,-0.00059414,0.00091463,0.00014666,-0.00586747,0.01059596,0.015
 71696,0.00102459,-0.00208331,0.00329530,0.00044225,-0.00024122,0.00009
 227,-0.00014474,0.00007932,-0.00003884,-0.00016579,-0.00023466,0.00026
 075,0.00020674,0.00001767,0.00004475,-0.00002386,0.00008463,-0.0000407
 6,-0.00062807,-0.00220196,0.00064404,0.00791922,-0.01628545,-0.0188737
 7,0.04636029,-0.12258176,-0.10971980,-0.00002377,0.00012527,-0.0001235
 1,-0.00033128,0.00016250,-0.00001940,-0.00025478,0.00071929,-0.0008053
 8,-0.00030694,0.00062748,0.00103745,-0.00019267,0.00009133,-0.00011706
 ,-0.00002687,-0.00002637,-0.00002181,0.00002949,0.00003877,-0.00003013
 ,0.00005786,0.00004905,-0.00008950,-0.00012161,0.00008134,0.00002765,-
 0.00002432,-0.00001593,-0.00001646,-0.00001386,-0.00001393,0.00001178,
 -0.00039607,0.00010263,-0.00071688,0.00004975,0.00151022,-0.00000205,-
 0.00258293,-0.00314759,-0.00091764,0.00275820,-0.00358890,-0.00541043,
 -0.04734987,0.13569734,-0.00019169,0.00027170,0.00007704,-0.00013721,-
 0.00109901,-0.00027070,0.00147585,-0.00129654,0.00117446,0.00916994,-0
 .01516335,-0.02439920,-0.00132944,0.00514059,-0.00356181,-0.00088794,0
 .00036190,0.00021852,0.00027220,-0.00001934,0.00001756,0.00043692,0.00
 059001,0.00049270,-0.00021721,0.00000801,0.00003997,0.00001503,-0.0000
 5669,0.00002213,-0.00036427,-0.00019497,0.00017955,0.00051773,0.001212
 14,0.00030964,0.06375099,-0.10970619,-0.20450814,-0.00101366,0.0008069
 4,0.00023619,0.00024198,0.00017710,0.00055035,0.00037233,0.00022358,0.
 00083618,0.00051687,-0.00106563,-0.00167697,0.00011365,-0.00011157,0.0
 0012698,0.00007677,0.00003698,0.00001687,-0.00003127,-0.00007834,0.000
 00704,-0.00004150,-0.00003313,0.00005168,0.00002940,-0.00000947,-0.000
 01147,-0.00000119,0.00000646,0.00000469,0.00002996,-0.00000313,-0.0000
 2921,-0.00010780,0.00004367,-0.00012334,-0.00020448,0.00043704,0.00177
 553,-0.00035230,0.00071313,0.00008312,-0.00090959,0.00293726,0.0049179
 9,-0.07123009,0.11587086,0.22344266\\0.00004414,0.00002982,-0.00002112
 ,-0.00002431,-0.00002862,-0.00000407,0.00001278,0.00000349,0.00001682,
 0.00000027,-0.00000473,-0.00003541,0.00001988,-0.00000700,0.00002919,-
 0.00005156,0.00001274,0.00000520,0.00001311,-0.00003397,-0.00002721,0.
 00002315,-0.00004389,-0.00000682,-0.00001968,0.00000024,-0.00003961,0.
 00001994,0.00005296,0.00005352,0.00001815,0.00002047,0.00002213,-0.000
 00073,0.00000232,-0.00006358,-0.00001099,0.00001134,0.00000864,-0.0000
 1603,-0.00000645,0.00000578,-0.00001184,0.00000279,-0.00000006,0.00000
 715,0.00000092,-0.00000015,0.00000154,-0.00000349,-0.00000611,0.000014
 68,-0.00000664,0.00000930,0.00000091,0.00000587,0.00001099,-0.00001078
 ,0.00001856,0.00000339,-0.00001458,0.00001084,-0.00001010,-0.00000948,
 -0.00001147,0.00000566,-0.00001378,-0.00000026,-0.00000254,0.00000878,
 -0.00000888,0.00000108,-0.00000013,-0.00000542,0.00000468,-0.00000987,
 -0.00000750,0.00001982,0.00001095,-0.00000387,0.00000627,0.00000289,-0
 .00000016,0.00000679,-0.00000453,-0.00000003,0.00000751\\\@


 CLIMB THE MOUNTAINS AND GET THEIR GOOD TIDINGS.
 NATURE'S PEACE WILL FLOW INTO YOU AS SUNSHINE FLOWS INTO TREES.
 THE WINDS WILL BLOW THEIR OWN FRESHNESS INTO YOU, 
 AND CARES WILL DROP OFF LIKE AUTUMN LEAVES.

                                         -- JOHN MUIR
 Job cpu time:       0 days  0 hours  3 minutes 18.9 seconds.
 Elapsed time:       0 days  0 hours  3 minutes 25.7 seconds.
 File lengths (MBytes):  RWF=    177 Int=      0 D2E=      0 Chk=     16 Scr=      1
 Normal termination of Gaussian 16 at Mon Feb 26 15:44:08 2024.
