 Entering Gaussian System, Link 0=g16
 Input=/Volumes/SSD-PMU3/b3lyp_6-31gd_freq/YIVQHAYDEKPDMY-KFAAGGNTSA-N_calculating/gaussianinput0.gjf
 Output=/Volumes/SSD-PMU3/b3lyp_6-31gd_freq/YIVQHAYDEKPDMY-KFAAGGNTSA-N_calculating/gaussianinput0.log
 Initial command:
 /Applications/g16/l1.exe "/Users/macmini_m1_2022/PycharmProjects/sphere_model/sphere_model_lib/Gau-63869.inp" -scrdir="/Users/macmini_m1_2022/PycharmProjects/sphere_model/sphere_model_lib/"
 Entering Link 1 = /Applications/g16/l1.exe PID=     63870.
  
 Copyright (c) 1988,1990,1992,1993,1995,1998,2003,2009,2016,
            Gaussian, Inc.  All Rights Reserved.
  
 This is part of the Gaussian(R) 16 program.  It is based on
 the Gaussian(R) 09 system (copyright 2009, Gaussian, Inc.),
 the Gaussian(R) 03 system (copyright 2003, Gaussian, Inc.),
 the Gaussian(R) 98 system (copyright 1998, Gaussian, Inc.),
 the Gaussian(R) 94 system (copyright 1995, Gaussian, Inc.),
 the Gaussian 92(TM) system (copyright 1992, Gaussian, Inc.),
 the Gaussian 90(TM) system (copyright 1990, Gaussian, Inc.),
 the Gaussian 88(TM) system (copyright 1988, Gaussian, Inc.),
 the Gaussian 86(TM) system (copyright 1986, Carnegie Mellon
 University), and the Gaussian 82(TM) system (copyright 1983,
 Carnegie Mellon University). Gaussian is a federally registered
 trademark of Gaussian, Inc.
  
 This software contains proprietary and confidential information,
 including trade secrets, belonging to Gaussian, Inc.
  
 This software is provided under written license and may be
 used, copied, transmitted, or stored only in accord with that
 written license.
  
 The following legend is applicable only to US Government
 contracts under FAR:
  
                    RESTRICTED RIGHTS LEGEND
  
 Use, reproduction and disclosure by the US Government is
 subject to restrictions as set forth in subparagraphs (a)
 and (c) of the Commercial Computer Software - Restricted
 Rights clause in FAR 52.227-19.
  
 Gaussian, Inc.
 340 Quinnipiac St., Bldg. 40, Wallingford CT 06492
  
  
 ---------------------------------------------------------------
 Warning -- This program may not be used in any manner that
 competes with the business of Gaussian, Inc. or will provide
 assistance to any competitor of Gaussian, Inc.  The licensee
 of this program is prohibited from giving any competitor of
 Gaussian, Inc. access to this program.  By using this program,
 the user acknowledges that Gaussian, Inc. is engaged in the
 business of creating and licensing software in the field of
 computational chemistry and represents and warrants to the
 licensee that it is not a competitor of Gaussian, Inc. and that
 it will not use this program in any manner prohibited above.
 ---------------------------------------------------------------
  

 Cite this work as:
 Gaussian 16, Revision A.03,
 M. J. Frisch, G. W. Trucks, H. B. Schlegel, G. E. Scuseria, 
 M. A. Robb, J. R. Cheeseman, G. Scalmani, V. Barone, 
 G. A. Petersson, H. Nakatsuji, X. Li, M. Caricato, A. V. Marenich, 
 J. Bloino, B. G. Janesko, R. Gomperts, B. Mennucci, H. P. Hratchian, 
 J. V. Ortiz, A. F. Izmaylov, J. L. Sonnenberg, D. Williams-Young, 
 F. Ding, F. Lipparini, F. Egidi, J. Goings, B. Peng, A. Petrone, 
 T. Henderson, D. Ranasinghe, V. G. Zakrzewski, J. Gao, N. Rega, 
 G. Zheng, W. Liang, M. Hada, M. Ehara, K. Toyota, R. Fukuda, 
 J. Hasegawa, M. Ishida, T. Nakajima, Y. Honda, O. Kitao, H. Nakai, 
 T. Vreven, K. Throssell, J. A. Montgomery, Jr., J. E. Peralta, 
 F. Ogliaro, M. J. Bearpark, J. J. Heyd, E. N. Brothers, K. N. Kudin, 
 V. N. Staroverov, T. A. Keith, R. Kobayashi, J. Normand, 
 K. Raghavachari, A. P. Rendell, J. C. Burant, S. S. Iyengar, 
 J. Tomasi, M. Cossi, J. M. Millam, M. Klene, C. Adamo, R. Cammi, 
 J. W. Ochterski, R. L. Martin, K. Morokuma, O. Farkas, 
 J. B. Foresman, and D. J. Fox, Gaussian, Inc., Wallingford CT, 2016.
 
 ******************************************
 Gaussian 16:  EM64M-G16RevA.03 25-Dec-2016
                22-Feb-2024 
 ******************************************
 %nprocshared=10
 Will use up to   10 processors via shared memory.
 %mem=12GB
 %chk= 0.chk
 ---------------------
 # freq b3lyp/6-31g(d)
 ---------------------
 1/10=4,30=1,38=1/1,3;
 2/12=2,17=6,18=5,40=1/2;
 3/5=1,6=6,7=1,11=2,25=1,30=1,71=2,74=-5,140=1/1,2,3;
 4//1;
 5/5=2,38=5,98=1/2;
 8/6=4,10=90,11=11/1;
 11/6=1,8=1,9=11,15=111,16=1/1,2,10;
 10/6=1/2;
 6/7=2,8=2,9=2,10=2,28=1/1;
 7/8=1,10=1,25=1/1,2,3,16;
 1/10=4,30=1/3;
 99//99;
 ---------
 good luck
 ---------
 Symbolic Z-matrix:
 Charge =  0 Multiplicity = 1
 C                    -3.93128  -1.48457   0.09167 
 C                    -3.09314  -0.89766   1.24999 
 C                    -1.64917  -1.51135   1.28729 
 C                    -1.66098  -3.0139    1.63127 
 C                    -2.3681   -3.30504   2.95477 
 C                    -3.78898  -2.72598   2.99748 
 C                    -3.77002  -1.21019   2.64536 
 C                    -5.17137  -0.57873   2.83498 
 C                    -5.81764  -0.8748    4.20548 
 C                    -5.88429  -2.3837    4.50786 
 C                    -6.86857  -3.08741   3.54724 
 C                    -4.43121  -2.92157   4.37825 
 C                    -4.49377  -4.33465   4.97914 
 C                    -5.53657  -4.20303   6.12324 
 C                    -6.19129  -2.78735   5.99031 
 C                    -7.64938  -2.764     6.50858 
 C                    -7.70701  -3.21964   7.9792 
 C                    -8.3346   -1.39351   6.3815 
 C                    -0.78568  -1.29987   0.00821 
 C                     0.        0.        0. 
 C                    -0.76167   1.32338   0.00821 
 C                    -2.28753   1.25865  -0.11492 
 C                    -3.03036   0.65032   1.09207 
 O                     1.21815   0.        0. 
 H                    -4.05015  -2.56917   0.16684 
 H                    -4.93377  -1.04486   0.07531 
 H                    -3.48419  -1.27853  -0.88574 
 H                    -1.12716  -1.00997   2.1185 
 H                    -0.62493  -3.37208   1.68165 
 H                    -2.13683  -3.57834   0.81708 
 H                    -2.39412  -4.38729   3.13262 
 H                    -1.78175  -2.86941   3.77889 
 H                    -4.39271  -3.26171   2.25054 
 H                    -3.11443  -0.73896   3.39841 
 H                    -5.84677  -0.92193   2.04185 
 H                    -5.11006   0.50898   2.72735 
 H                    -6.80996  -0.41074   4.22546 
 H                    -5.2296   -0.383     4.99457 
 H                    -6.94896  -4.16015   3.75213 
 H                    -6.57679  -2.98058   2.4986 
 H                    -7.87345  -2.66173   3.6463 
 H                    -3.83324  -2.31387   5.07957 
 H                    -3.51994  -4.67716   5.34353 
 H                    -4.82237  -5.06372   4.22763 
 H                    -5.07071  -4.32675   7.10601 
 H                    -6.30096  -4.98583   6.04513 
 H                    -5.61929  -2.08943   6.62301 
 H                    -8.23083  -3.48809   5.91851 
 H                    -7.30763  -4.22925   8.11756 
 H                    -7.12927  -2.54058   8.62054 
 H                    -8.74085  -3.21852   8.34455 
 H                    -9.32468  -1.41546   6.85294 
 H                    -8.47614  -1.09116   5.34014 
 H                    -7.74931  -0.61061   6.88094 
 H                    -0.04279  -2.09924  -0.06748 
 H                    -1.4098   -1.35566  -0.89219 
 H                    -0.48122   1.84544   0.93452 
 H                    -0.33517   1.92729  -0.80327 
 H                    -2.64696   2.28903  -0.23163 
 H                    -2.57108   0.74809  -1.04412 
 H                    -4.06038   1.01887   1.04494 
 H                    -2.59942   1.08002   2.00961 
 

 GradGradGradGradGradGradGradGradGradGradGradGradGradGradGradGradGradGrad
 Berny optimization.
 Initialization pass.
 Trust Radius=3.00D-01 FncErr=1.00D-07 GrdErr=1.00D-07 EigMax=2.50D+02 EigMin=1.00D-04
 Number of steps in this run=      2 maximum allowed number of steps=      2.
 GradGradGradGradGradGradGradGradGradGradGradGradGradGradGradGradGradGrad

 Stoichiometry    C23H38O
 Framework group  C1[X(C23H38O)]
 Deg. of freedom   180
 Full point group                 C1      NOp   1
 Largest Abelian subgroup         C1      NOp   1
 Largest concise Abelian subgroup C1      NOp   1
                         Standard orientation:                         
 ---------------------------------------------------------------------
 Center     Atomic      Atomic             Coordinates (Angstroms)
 Number     Number       Type             X           Y           Z
 ---------------------------------------------------------------------
      1          6           0        2.073760   -0.611186    1.971876
      2          6           0        2.037019   -0.466426    0.433591
      3          6           0        2.793565    0.823053   -0.043824
      4          6           0        2.091957    2.116514    0.415350
      5          6           0        0.635589    2.186088   -0.043547
      6          6           0       -0.169992    0.950256    0.380478
      7          6           0        0.545976   -0.351626   -0.082653
      8          6           0       -0.329359   -1.597386    0.200846
      9          6           0       -1.778021   -1.483705   -0.320746
     10          6           0       -2.490397   -0.220933    0.199423
     11          6           0       -2.720957   -0.316255    1.724073
     12          6           0       -1.591962    0.984395   -0.197505
     13          6           0       -2.473251    2.216730    0.060274
     14          6           0       -3.904366    1.727517   -0.295120
     15          6           0       -3.819568    0.181552   -0.525945
     16          6           0       -5.141389   -0.538887   -0.166891
     17          6           0       -6.310994    0.038640   -0.986719
     18          6           0       -5.094923   -2.062836   -0.365264
     19          6           0        4.300590    0.910415    0.340371
     20          6           0        5.233705    0.252907   -0.661635
     21          6           0        5.123167   -1.251774   -0.896694
     22          6           0        4.160856   -2.036151    0.001259
     23          6           0        2.661476   -1.741019   -0.207178
     24          8           0        6.052294    0.906529   -1.283388
     25          1           0        1.609807    0.236124    2.484675
     26          1           0        1.546290   -1.516242    2.290074
     27          1           0        3.096055   -0.695435    2.353305
     28          1           0        2.738474    0.817809   -1.144606
     29          1           0        2.644126    2.977313    0.017399
     30          1           0        2.147219    2.201490    1.509731
     31          1           0        0.165575    3.097373    0.346609
     32          1           0        0.608300    2.268758   -1.141345
     33          1           0       -0.237150    0.953358    1.478155
     34          1           0        0.624034   -0.272459   -1.181098
     35          1           0       -0.354372   -1.799610    1.278565
     36          1           0        0.118744   -2.483237   -0.260578
     37          1           0       -2.315649   -2.397796   -0.045353
     38          1           0       -1.763310   -1.452190   -1.420342
     39          1           0       -3.242803    0.562210    2.118023
     40          1           0       -1.785540   -0.412749    2.282527
     41          1           0       -3.332115   -1.192861    1.966689
     42          1           0       -1.475817    0.911373   -1.292899
     43          1           0       -2.169647    3.080410   -0.540000
     44          1           0       -2.411886    2.527054    1.111091
     45          1           0       -4.291475    2.234206   -1.184831
     46          1           0       -4.606054    1.954170    0.516927
     47          1           0       -3.646894    0.009022   -1.600657
     48          1           0       -5.357171   -0.343051    0.894080
     49          1           0       -6.446206    1.111757   -0.819089
     50          1           0       -6.146094   -0.113812   -2.061800
     51          1           0       -7.251537   -0.459702   -0.723399
     52          1           0       -6.084619   -2.501939   -0.190115
     53          1           0       -4.395484   -2.552808    0.317819
     54          1           0       -4.797418   -2.319596   -1.390202
     55          1           0        4.605062    1.959950    0.389079
     56          1           0        4.470664    0.480557    1.335184
     57          1           0        4.848036   -1.388865   -1.952516
     58          1           0        6.142150   -1.650938   -0.810357
     59          1           0        4.314714   -3.101651   -0.212098
     60          1           0        4.439391   -1.910701    1.055376
     61          1           0        2.114366   -2.606675    0.180511
     62          1           0        2.464991   -1.722162   -1.290354
 ---------------------------------------------------------------------
 Rotational constants (GHZ):           0.6029689           0.1118209           0.1027880
 Standard basis: 6-31G(d) (6D, 7F)
 There are   436 symmetry adapted cartesian basis functions of A   symmetry.
 There are   436 symmetry adapted basis functions of A   symmetry.
   436 basis functions,   824 primitive gaussians,   436 cartesian basis functions
    92 alpha electrons       92 beta electrons
       nuclear repulsion energy      2284.6083442135 Hartrees.
 NAtoms=   62 NActive=   62 NUniq=   62 SFac= 1.00D+00 NAtFMM=   60 NAOKFM=T Big=T
 Integral buffers will be    131072 words long.
 Raffenetti 2 integral format.
 Two-electron integral symmetry is turned on.
 One-electron integrals computed using PRISM.
 NBasis=   436 RedAO= T EigKep=  1.69D-03  NBF=   436
 NBsUse=   436 1.00D-06 EigRej= -1.00D+00 NBFU=   436
 ExpMin= 1.61D-01 ExpMax= 5.48D+03 ExpMxC= 8.25D+02 IAcc=3 IRadAn=         5 AccDes= 0.00D+00
 Harris functional with IExCor=  402 and IRadAn=       5 diagonalized for initial guess.
 HarFok:  IExCor=  402 AccDes= 0.00D+00 IRadAn=         5 IDoV= 1 UseB2=F ITyADJ=14
 ICtDFT=  3500011 ScaDFX=  1.000000  1.000000  1.000000  1.000000
 FoFCou: FMM=F IPFlag=           0 FMFlag=      100000 FMFlg1=        2001
         NFxFlg=           0 DoJE=T BraDBF=F KetDBF=T FulRan=T
         wScrn=  0.000000 ICntrl=       500 IOpCl=  0 I1Cent=   200000004 NGrid=           0
         NMat0=    1 NMatS0=      1 NMatT0=    0 NMatD0=    1 NMtDS0=    0 NMtDT0=    0
 Petite list used in FoFCou.
 Requested convergence on RMS density matrix=1.00D-08 within 128 cycles.
 Requested convergence on MAX density matrix=1.00D-06.
 Requested convergence on             energy=1.00D-06.
 No special actions if energy rises.
 Integral accuracy reduced to 1.0D-05 until final iterations.
 Initial convergence to 1.0D-05 achieved.  Increase integral accuracy.
 SCF Done:  E(RB3LYP) =  -974.575271430     A.U. after   14 cycles
            NFock= 14  Conv=0.34D-08     -V/T= 2.0099
 DoSCS=F DFT=T ScalE2(SS,OS)=  1.000000  1.000000
 Range of M.O.s used for correlation:     1   436
 NBasis=   436 NAE=    92 NBE=    92 NFC=     0 NFV=     0
 NROrb=    436 NOA=    92 NOB=    92 NVA=   344 NVB=   344
 Symmetrizing basis deriv contribution to polar:
 IMax=3 JMax=2 DiffMx= 0.00D+00
 G2DrvN: will do    63 centers at a time, making    1 passes.
 Calling FoFCou, ICntrl=  3107 FMM=T I1Cent=   0 AccDes= 0.00D+00.
 End of G2Drv F.D. properties file   721 does not exist.
 End of G2Drv F.D. properties file   722 does not exist.
 End of G2Drv F.D. properties file   788 does not exist.
          IDoAtm=11111111111111111111111111111111111111111111111111
          IDoAtm=111111111111
          Differentiating once with respect to electric field.
                with respect to dipole field.
          Differentiating once with respect to nuclear coordinates.
 CalDSu exits because no D1Ps are significant.
          There are   189 degrees of freedom in the 1st order CPHF.  IDoFFX=6 NUNeed=     3.
    186 vectors produced by pass  0 Test12= 3.16D-14 1.00D-09 XBig12= 1.59D+02 2.34D+00.
 AX will form    72 AO Fock derivatives at one time.
    186 vectors produced by pass  1 Test12= 3.16D-14 1.00D-09 XBig12= 1.13D+01 7.02D-01.
    186 vectors produced by pass  2 Test12= 3.16D-14 1.00D-09 XBig12= 9.70D-02 3.36D-02.
    186 vectors produced by pass  3 Test12= 3.16D-14 1.00D-09 XBig12= 2.58D-04 1.07D-03.
    186 vectors produced by pass  4 Test12= 3.16D-14 1.00D-09 XBig12= 3.11D-07 3.56D-05.
     78 vectors produced by pass  5 Test12= 3.16D-14 1.00D-09 XBig12= 1.89D-10 8.49D-07.
      4 vectors produced by pass  6 Test12= 3.16D-14 1.00D-09 XBig12= 1.14D-13 2.99D-08.
      1 vectors produced by pass  7 Test12= 3.16D-14 1.00D-09 XBig12= 1.07D-16 1.11D-09.
 InvSVY:  IOpt=1 It=  1 EMax= 7.11D-15
 Solved reduced A of dimension  1013 with   189 vectors.
 Isotropic polarizability for W=    0.000000      232.43 Bohr**3.
 End of Minotr F.D. properties file   721 does not exist.
 End of Minotr F.D. properties file   722 does not exist.
 End of Minotr F.D. properties file   788 does not exist.

 **********************************************************************

            Population analysis using the SCF density.

 **********************************************************************

 Orbital symmetries:
       Occupied  (A) (A) (A) (A) (A) (A) (A) (A) (A) (A) (A) (A)
                 (A) (A) (A) (A) (A) (A) (A) (A) (A) (A) (A) (A)
                 (A) (A) (A) (A) (A) (A) (A) (A) (A) (A) (A) (A)
                 (A) (A) (A) (A) (A) (A) (A) (A) (A) (A) (A) (A)
                 (A) (A) (A) (A) (A) (A) (A) (A) (A) (A) (A) (A)
                 (A) (A) (A) (A) (A) (A) (A) (A) (A) (A) (A) (A)
                 (A) (A) (A) (A) (A) (A) (A) (A) (A) (A) (A) (A)
                 (A) (A) (A) (A) (A) (A) (A) (A)
       Virtual   (A) (A) (A) (A) (A) (A) (A) (A) (A) (A) (A) (A)
                 (A) (A) (A) (A) (A) (A) (A) (A) (A) (A) (A) (A)
                 (A) (A) (A) (A) (A) (A) (A) (A) (A) (A) (A) (A)
                 (A) (A) (A) (A) (A) (A) (A) (A) (A) (A) (A) (A)
                 (A) (A) (A) (A) (A) (A) (A) (A) (A) (A) (A) (A)
                 (A) (A) (A) (A) (A) (A) (A) (A) (A) (A) (A) (A)
                 (A) (A) (A) (A) (A) (A) (A) (A) (A) (A) (A) (A)
                 (A) (A) (A) (A) (A) (A) (A) (A) (A) (A) (A) (A)
                 (A) (A) (A) (A) (A) (A) (A) (A) (A) (A) (A) (A)
                 (A) (A) (A) (A) (A) (A) (A) (A) (A) (A) (A) (A)
                 (A) (A) (A) (A) (A) (A) (A) (A) (A) (A) (A) (A)
                 (A) (A) (A) (A) (A) (A) (A) (A) (A) (A) (A) (A)
                 (A) (A) (A) (A) (A) (A) (A) (A) (A) (A) (A) (A)
                 (A) (A) (A) (A) (A) (A) (A) (A) (A) (A) (A) (A)
                 (A) (A) (A) (A) (A) (A) (A) (A) (A) (A) (A) (A)
                 (A) (A) (A) (A) (A) (A) (A) (A) (A) (A) (A) (A)
                 (A) (A) (A) (A) (A) (A) (A) (A) (A) (A) (A) (A)
                 (A) (A) (A) (A) (A) (A) (A) (A) (A) (A) (A) (A)
                 (A) (A) (A) (A) (A) (A) (A) (A) (A) (A) (A) (A)
                 (A) (A) (A) (A) (A) (A) (A) (A) (A) (A) (A) (A)
                 (A) (A) (A) (A) (A) (A) (A) (A) (A) (A) (A) (A)
                 (A) (A) (A) (A) (A) (A) (A) (A) (A) (A) (A) (A)
                 (A) (A) (A) (A) (A) (A) (A) (A) (A) (A) (A) (A)
                 (A) (A) (A) (A) (A) (A) (A) (A) (A) (A) (A) (A)
                 (A) (A) (A) (A) (A) (A) (A) (A) (A) (A) (A) (A)
                 (A) (A) (A) (A) (A) (A) (A) (A) (A) (A) (A) (A)
                 (A) (A) (A) (A) (A) (A) (A) (A) (A) (A) (A) (A)
                 (A) (A) (A) (A) (A) (A) (A) (A) (A) (A) (A) (A)
                 (A) (A) (A) (A) (A) (A) (A) (A)
 The electronic state is 1-A.
 Alpha  occ. eigenvalues --  -19.12553 -10.26458 -10.20082 -10.19478 -10.18882
 Alpha  occ. eigenvalues --  -10.18722 -10.18664 -10.18599 -10.18486 -10.18331
 Alpha  occ. eigenvalues --  -10.18255 -10.18106 -10.17965 -10.17965 -10.17732
 Alpha  occ. eigenvalues --  -10.17660 -10.17624 -10.17550 -10.17524 -10.17459
 Alpha  occ. eigenvalues --  -10.17397 -10.17073 -10.16971 -10.16940  -1.02610
 Alpha  occ. eigenvalues --   -0.86326  -0.84292  -0.80435  -0.79069  -0.78054
 Alpha  occ. eigenvalues --   -0.76202  -0.75870  -0.72548  -0.70946  -0.69183
 Alpha  occ. eigenvalues --   -0.68274  -0.67478  -0.66880  -0.65580  -0.62290
 Alpha  occ. eigenvalues --   -0.60858  -0.58631  -0.57409  -0.56482  -0.53944
 Alpha  occ. eigenvalues --   -0.53011  -0.52180  -0.51805  -0.48010  -0.47870
 Alpha  occ. eigenvalues --   -0.46969  -0.46592  -0.45520  -0.44868  -0.44350
 Alpha  occ. eigenvalues --   -0.44122  -0.42971  -0.42531  -0.42334  -0.41287
 Alpha  occ. eigenvalues --   -0.40704  -0.40683  -0.40221  -0.40001  -0.39262
 Alpha  occ. eigenvalues --   -0.38667  -0.38520  -0.38099  -0.37515  -0.37230
 Alpha  occ. eigenvalues --   -0.36870  -0.36467  -0.36392  -0.35284  -0.34637
 Alpha  occ. eigenvalues --   -0.34456  -0.33994  -0.33482  -0.33166  -0.33099
 Alpha  occ. eigenvalues --   -0.32522  -0.32187  -0.31557  -0.31198  -0.30779
 Alpha  occ. eigenvalues --   -0.30418  -0.30227  -0.29931  -0.29244  -0.27405
 Alpha  occ. eigenvalues --   -0.26579  -0.23110
 Alpha virt. eigenvalues --   -0.00759   0.07039   0.07445   0.07853   0.09428
 Alpha virt. eigenvalues --    0.09485   0.10300   0.10631   0.11210   0.11479
 Alpha virt. eigenvalues --    0.12392   0.12728   0.13055   0.13517   0.13714
 Alpha virt. eigenvalues --    0.14928   0.15166   0.15238   0.15792   0.16222
 Alpha virt. eigenvalues --    0.16250   0.16354   0.16712   0.17285   0.17802
 Alpha virt. eigenvalues --    0.18055   0.18478   0.18621   0.18865   0.19200
 Alpha virt. eigenvalues --    0.19567   0.20013   0.20294   0.20771   0.21356
 Alpha virt. eigenvalues --    0.21840   0.22094   0.22440   0.22531   0.23039
 Alpha virt. eigenvalues --    0.23440   0.23649   0.24007   0.24510   0.24680
 Alpha virt. eigenvalues --    0.25049   0.25585   0.26322   0.26652   0.26809
 Alpha virt. eigenvalues --    0.27425   0.27797   0.28095   0.28590   0.29019
 Alpha virt. eigenvalues --    0.29153   0.29555   0.31477   0.31775   0.32332
 Alpha virt. eigenvalues --    0.32964   0.34041   0.35387   0.36903   0.37832
 Alpha virt. eigenvalues --    0.38222   0.48887   0.49834   0.50210   0.50907
 Alpha virt. eigenvalues --    0.51021   0.51403   0.52085   0.52557   0.53392
 Alpha virt. eigenvalues --    0.54022   0.55150   0.55551   0.57104   0.57864
 Alpha virt. eigenvalues --    0.57964   0.58606   0.60293   0.60464   0.61367
 Alpha virt. eigenvalues --    0.61548   0.62709   0.63325   0.63979   0.65050
 Alpha virt. eigenvalues --    0.65190   0.66093   0.66664   0.67010   0.67876
 Alpha virt. eigenvalues --    0.68494   0.69046   0.69833   0.70449   0.71121
 Alpha virt. eigenvalues --    0.72153   0.72416   0.73273   0.73968   0.74972
 Alpha virt. eigenvalues --    0.75719   0.76072   0.77246   0.77460   0.78391
 Alpha virt. eigenvalues --    0.79287   0.79958   0.81085   0.81586   0.82151
 Alpha virt. eigenvalues --    0.82509   0.83814   0.84289   0.85039   0.85494
 Alpha virt. eigenvalues --    0.85664   0.86319   0.87115   0.87252   0.87534
 Alpha virt. eigenvalues --    0.87895   0.88069   0.88629   0.88868   0.89414
 Alpha virt. eigenvalues --    0.89778   0.90273   0.90383   0.90597   0.91470
 Alpha virt. eigenvalues --    0.91705   0.92523   0.92783   0.93238   0.93865
 Alpha virt. eigenvalues --    0.94028   0.94422   0.94840   0.95035   0.95676
 Alpha virt. eigenvalues --    0.96097   0.96679   0.96833   0.97401   0.97746
 Alpha virt. eigenvalues --    0.97821   0.98478   0.99962   1.00417   1.01008
 Alpha virt. eigenvalues --    1.01201   1.01669   1.01996   1.02751   1.03161
 Alpha virt. eigenvalues --    1.04011   1.04571   1.05581   1.06350   1.06850
 Alpha virt. eigenvalues --    1.09342   1.09925   1.11706   1.12352   1.12667
 Alpha virt. eigenvalues --    1.16043   1.18064   1.19662   1.20378   1.22364
 Alpha virt. eigenvalues --    1.25157   1.25431   1.29059   1.30384   1.31814
 Alpha virt. eigenvalues --    1.33360   1.34610   1.35928   1.38865   1.40817
 Alpha virt. eigenvalues --    1.42351   1.43052   1.45220   1.48936   1.50370
 Alpha virt. eigenvalues --    1.51324   1.53323   1.53410   1.54495   1.55325
 Alpha virt. eigenvalues --    1.57140   1.60562   1.60858   1.62333   1.64195
 Alpha virt. eigenvalues --    1.65132   1.65543   1.66968   1.69630   1.70764
 Alpha virt. eigenvalues --    1.72251   1.73229   1.74417   1.74797   1.75127
 Alpha virt. eigenvalues --    1.76087   1.77413   1.78210   1.79449   1.80593
 Alpha virt. eigenvalues --    1.81261   1.82175   1.83896   1.84187   1.84592
 Alpha virt. eigenvalues --    1.86487   1.87857   1.88035   1.88410   1.89281
 Alpha virt. eigenvalues --    1.90377   1.90628   1.91861   1.92810   1.93461
 Alpha virt. eigenvalues --    1.93946   1.94956   1.95002   1.95256   1.96500
 Alpha virt. eigenvalues --    1.98528   1.98872   1.99386   2.00618   2.01359
 Alpha virt. eigenvalues --    2.01778   2.02478   2.02567   2.03523   2.03837
 Alpha virt. eigenvalues --    2.05119   2.05583   2.06016   2.06782   2.06938
 Alpha virt. eigenvalues --    2.09132   2.10346   2.10821   2.12135   2.13273
 Alpha virt. eigenvalues --    2.13933   2.14245   2.15339   2.17112   2.18363
 Alpha virt. eigenvalues --    2.18982   2.20300   2.22105   2.23155   2.24665
 Alpha virt. eigenvalues --    2.25981   2.26372   2.27398   2.28299   2.28584
 Alpha virt. eigenvalues --    2.29994   2.31304   2.33173   2.33628   2.34889
 Alpha virt. eigenvalues --    2.36480   2.37348   2.37851   2.38563   2.41027
 Alpha virt. eigenvalues --    2.42136   2.43069   2.43867   2.44922   2.45924
 Alpha virt. eigenvalues --    2.47249   2.48192   2.49231   2.50664   2.53035
 Alpha virt. eigenvalues --    2.53108   2.54827   2.55667   2.56739   2.57363
 Alpha virt. eigenvalues --    2.59794   2.60606   2.60990   2.63002   2.64659
 Alpha virt. eigenvalues --    2.66024   2.67130   2.68336   2.74177   2.74740
 Alpha virt. eigenvalues --    2.75166   2.76114   2.78193   2.79423   2.81074
 Alpha virt. eigenvalues --    2.84842   2.85211   2.86658   2.89782   2.91020
 Alpha virt. eigenvalues --    2.91768   2.96538   2.99650   3.01825   3.04270
 Alpha virt. eigenvalues --    4.01933   4.09028   4.13477   4.17433   4.22874
 Alpha virt. eigenvalues --    4.23494   4.27029   4.29077   4.30335   4.30878
 Alpha virt. eigenvalues --    4.35085   4.38572   4.40716   4.47185   4.49193
 Alpha virt. eigenvalues --    4.54662   4.56860   4.58953   4.64269   4.69051
 Alpha virt. eigenvalues --    4.71152   4.76215   4.80122   4.82833
          Condensed to atoms (all electrons):
 Mulliken charges:
               1
     1  C   -0.481649
     2  C    0.101327
     3  C   -0.098185
     4  C   -0.278207
     5  C   -0.271411
     6  C   -0.098499
     7  C   -0.092713
     8  C   -0.294209
     9  C   -0.279644
    10  C    0.094096
    11  C   -0.482870
    12  C   -0.090694
    13  C   -0.291221
    14  C   -0.295775
    15  C   -0.073008
    16  C   -0.079888
    17  C   -0.448472
    18  C   -0.450234
    19  C   -0.361851
    20  C    0.445674
    21  C   -0.350083
    22  C   -0.278876
    23  C   -0.278379
    24  O   -0.453675
    25  H    0.149932
    26  H    0.146846
    27  H    0.142866
    28  H    0.124136
    29  H    0.138121
    30  H    0.132670
    31  H    0.136101
    32  H    0.125005
    33  H    0.116783
    34  H    0.107362
    35  H    0.135091
    36  H    0.135583
    37  H    0.129892
    38  H    0.122227
    39  H    0.145197
    40  H    0.145577
    41  H    0.145481
    42  H    0.109016
    43  H    0.134915
    44  H    0.131519
    45  H    0.138295
    46  H    0.133685
    47  H    0.107400
    48  H    0.119712
    49  H    0.147484
    50  H    0.137065
    51  H    0.138094
    52  H    0.137288
    53  H    0.147172
    54  H    0.138307
    55  H    0.160896
    56  H    0.150686
    57  H    0.167260
    58  H    0.169140
    59  H    0.139786
    60  H    0.137424
    61  H    0.138933
    62  H    0.125501
 Sum of Mulliken charges =  -0.00000
 Mulliken charges with hydrogens summed into heavy atoms:
               1
     1  C   -0.042006
     2  C    0.101327
     3  C    0.025951
     4  C   -0.007416
     5  C   -0.010305
     6  C    0.018284
     7  C    0.014649
     8  C   -0.023535
     9  C   -0.027525
    10  C    0.094096
    11  C   -0.046614
    12  C    0.018322
    13  C   -0.024787
    14  C   -0.023795
    15  C    0.034392
    16  C    0.039824
    17  C   -0.025829
    18  C   -0.027466
    19  C   -0.050270
    20  C    0.445674
    21  C   -0.013683
    22  C   -0.001666
    23  C   -0.013945
    24  O   -0.453675
 APT charges:
               1
     1  C   -0.006972
     2  C    0.088497
     3  C    0.100610
     4  C    0.108167
     5  C    0.094137
     6  C    0.047757
     7  C    0.065592
     8  C    0.065520
     9  C    0.106338
    10  C    0.045744
    11  C    0.022722
    12  C    0.076759
    13  C    0.072069
    14  C    0.072571
    15  C    0.077103
    16  C    0.132900
    17  C    0.061586
    18  C    0.047807
    19  C   -0.119642
    20  C    0.773972
    21  C   -0.028488
    22  C    0.113208
    23  C    0.063169
    24  O   -0.687458
    25  H   -0.005013
    26  H   -0.006874
    27  H   -0.022126
    28  H   -0.052219
    29  H   -0.063696
    30  H   -0.040951
    31  H   -0.053115
    32  H   -0.042260
    33  H   -0.044506
    34  H   -0.057946
    35  H   -0.029106
    36  H   -0.048734
    37  H   -0.058736
    38  H   -0.045870
    39  H   -0.012329
    40  H   -0.018369
    41  H   -0.021138
    42  H   -0.061100
    43  H   -0.045962
    44  H   -0.043081
    45  H   -0.049577
    46  H   -0.048507
    47  H   -0.066333
    48  H   -0.066875
    49  H   -0.014089
    50  H   -0.024362
    51  H   -0.047745
    52  H   -0.047170
    53  H   -0.017873
    54  H   -0.016194
    55  H   -0.021823
    56  H    0.009772
    57  H   -0.009344
    58  H   -0.025503
    59  H   -0.061586
    60  H   -0.032467
    61  H   -0.038441
    62  H   -0.042422
 Sum of APT charges =  -0.00000
 APT charges with hydrogens summed into heavy atoms:
               1
     1  C   -0.040984
     2  C    0.088497
     3  C    0.048391
     4  C    0.003520
     5  C   -0.001238
     6  C    0.003250
     7  C    0.007646
     8  C   -0.012320
     9  C    0.001732
    10  C    0.045744
    11  C   -0.029114
    12  C    0.015659
    13  C   -0.016974
    14  C   -0.025513
    15  C    0.010770
    16  C    0.066025
    17  C   -0.024610
    18  C   -0.033430
    19  C   -0.131693
    20  C    0.773972
    21  C   -0.063335
    22  C    0.019156
    23  C   -0.017694
    24  O   -0.687458
 Electronic spatial extent (au):  <R**2>=          10810.0580
 Charge=              0.0000 electrons
 Dipole moment (field-independent basis, Debye):
    X=             -2.4880    Y=             -1.5304    Z=              1.4485  Tot=              3.2605
 Quadrupole moment (field-independent basis, Debye-Ang):
   XX=           -174.8439   YY=           -150.8780   ZZ=           -152.0026
   XY=            -10.6872   XZ=              9.1164   YZ=              2.4476
 Traceless Quadrupole moment (field-independent basis, Debye-Ang):
   XX=            -15.6024   YY=              8.3635   ZZ=              7.2389
   XY=            -10.6872   XZ=              9.1164   YZ=              2.4476
 Octapole moment (field-independent basis, Debye-Ang**2):
  XXX=           -148.1611  YYY=              1.8624  ZZZ=             -5.6664  XYY=              9.1775
  XXY=            -66.1477  XXZ=             68.1791  XZZ=             -2.8854  YZZ=             -1.2629
  YYZ=              0.2999  XYZ=             16.3976
 Hexadecapole moment (field-independent basis, Debye-Ang**3):
 XXXX=         -13138.2083 YYYY=          -1983.0997 ZZZZ=           -852.0573 XXXY=           -390.8152
 XXXZ=            356.1004 YYYX=             -1.9840 YYYZ=             -5.8133 ZZZX=            -10.3231
 ZZZY=              5.1673 XXYY=          -2329.8061 XXZZ=          -2201.1467 YYZZ=           -471.1866
 XXYZ=             92.2091 YYXZ=             -7.5335 ZZXY=            -18.5637
 N-N= 2.284608344213D+03 E-N=-6.825067833907D+03  KE= 9.650183443490D+02
  Exact polarizability: 289.381   1.308 219.970  -2.929  -0.640 187.930
 Approx polarizability: 335.213   5.923 322.804  -9.174  -3.641 323.982
 Calling FoFJK, ICntrl=    100127 FMM=F ISym2X=0 I1Cent= 0 IOpClX= 0 NMat=1 NMatS=1 NMatT=0.
 Full mass-weighted force constant matrix:
 Low frequencies ---   -3.2507   -0.0007   -0.0004   -0.0003    2.6061    5.4214
 Low frequencies ---   17.3512   38.1160   53.1315
 Diagonal vibrational polarizability:
      167.5407958       9.4999950     222.5357321
 Harmonic frequencies (cm**-1), IR intensities (KM/Mole), Raman scattering
 activities (A**4/AMU), depolarization ratios for plane and unpolarized
 incident light, reduced masses (AMU), force constants (mDyne/A),
 and normal coordinates:
                      1                      2                      3
                      A                      A                      A
 Frequencies --     17.1976                38.1134                53.1299
 Red. masses --      6.1966                 3.2871                 3.1344
 Frc consts  --      0.0011                 0.0028                 0.0052
 IR Inten    --      4.1080                 0.2124                 0.4787
  Atom  AN      X      Y      Z        X      Y      Z        X      Y      Z
     1   6    -0.01   0.01  -0.04    -0.07   0.04  -0.03    -0.02  -0.13  -0.04
     2   6    -0.02  -0.00  -0.04    -0.01   0.02  -0.03     0.00  -0.03  -0.03
     3   6    -0.00  -0.02  -0.05     0.01   0.01  -0.02     0.00  -0.01   0.06
     4   6    -0.01  -0.00  -0.11    -0.00   0.02  -0.05    -0.01  -0.03   0.09
     5   6    -0.01  -0.01  -0.11    -0.00   0.01  -0.07     0.02  -0.01   0.01
     6   6    -0.01   0.00  -0.06     0.00   0.01  -0.07     0.00  -0.02  -0.04
     7   6    -0.02  -0.01  -0.04     0.01   0.02  -0.09     0.00  -0.02  -0.04
     8   6    -0.02  -0.00  -0.02     0.01  -0.00  -0.17    -0.01  -0.01  -0.03
     9   6    -0.02  -0.01  -0.00     0.00   0.02  -0.14    -0.02  -0.01  -0.01
    10   6    -0.01  -0.00   0.00     0.01  -0.01  -0.05     0.00   0.01  -0.03
    11   6     0.02   0.02   0.01     0.08  -0.07  -0.05     0.02   0.05  -0.02
    12   6    -0.02  -0.01  -0.03    -0.01   0.01  -0.04     0.01  -0.01  -0.06
    13   6    -0.02  -0.00  -0.04    -0.01  -0.00   0.03     0.03   0.00  -0.12
    14   6    -0.02  -0.01   0.00    -0.02   0.00   0.09     0.03   0.01  -0.12
    15   6    -0.03  -0.01   0.03    -0.02   0.01   0.03    -0.01  -0.01  -0.02
    16   6    -0.02  -0.00   0.07     0.00  -0.01   0.07    -0.01   0.05   0.07
    17   6    -0.04  -0.02   0.09    -0.06   0.02   0.18    -0.02  -0.01   0.03
    18   6    -0.03  -0.01   0.09    -0.00  -0.00  -0.01    -0.04   0.03   0.22
    19   6    -0.02   0.01   0.01    -0.00   0.01   0.02    -0.00  -0.02   0.09
    20   6     0.09   0.02   0.11     0.01  -0.02   0.06    -0.01   0.04   0.05
    21   6    -0.08   0.07  -0.14     0.07  -0.05   0.17     0.07   0.03   0.04
    22   6    -0.02   0.01  -0.12     0.00  -0.00   0.12     0.02  -0.01  -0.05
    23   6    -0.03  -0.02  -0.03     0.02   0.01   0.01     0.03   0.01  -0.10
    24   8     0.32  -0.01   0.38    -0.02  -0.03   0.01    -0.08   0.09   0.01
    25   1     0.08   0.06  -0.04    -0.07   0.05  -0.06    -0.11  -0.20   0.00
    26   1    -0.09   0.07  -0.02    -0.09   0.05  -0.04     0.05  -0.19  -0.10
    27   1    -0.01  -0.08  -0.05    -0.08   0.03   0.01    -0.02  -0.06  -0.01
    28   1     0.04  -0.05  -0.06     0.04   0.00  -0.02     0.03   0.05   0.05
    29   1    -0.01  -0.02  -0.14    -0.00   0.01  -0.06     0.01  -0.01   0.17
    30   1    -0.02   0.04  -0.11    -0.02   0.04  -0.06    -0.07  -0.09   0.10
    31   1    -0.01   0.00  -0.14    -0.01   0.01  -0.08    -0.00  -0.02   0.01
    32   1    -0.02  -0.06  -0.11     0.01   0.00  -0.07     0.07   0.01   0.01
    33   1     0.01   0.04  -0.06     0.01  -0.00  -0.07    -0.02  -0.03  -0.04
    34   1    -0.02  -0.02  -0.04     0.05   0.05  -0.09     0.01  -0.02  -0.04
    35   1    -0.00  -0.00  -0.02     0.03  -0.08  -0.18     0.00  -0.01  -0.03
    36   1    -0.02  -0.00  -0.03     0.01   0.03  -0.24    -0.02  -0.02  -0.03
    37   1    -0.02  -0.00   0.01     0.01   0.01  -0.18    -0.02  -0.00   0.02
    38   1    -0.04  -0.01  -0.00    -0.02   0.08  -0.13    -0.03  -0.03  -0.01
    39   1     0.03   0.02   0.01     0.09  -0.09   0.01     0.06   0.08  -0.04
    40   1     0.03   0.03  -0.01     0.11  -0.09  -0.09     0.02   0.03  -0.03
    41   1     0.03   0.02   0.03     0.10  -0.09  -0.05    -0.01   0.08   0.01
    42   1    -0.04  -0.02  -0.04    -0.04   0.05  -0.05     0.03  -0.05  -0.06
    43   1    -0.03  -0.01  -0.06    -0.05   0.02   0.04     0.05  -0.02  -0.14
    44   1     0.01   0.02  -0.04     0.04  -0.03   0.04     0.01   0.04  -0.13
    45   1    -0.04  -0.02   0.00    -0.08   0.03   0.13     0.06  -0.04  -0.16
    46   1    -0.00   0.01   0.01     0.02  -0.04   0.14     0.01   0.08  -0.15
    47   1    -0.05  -0.03   0.02    -0.08   0.05   0.01    -0.04  -0.08  -0.01
    48   1     0.01   0.01   0.07     0.06  -0.07   0.10     0.01   0.16   0.05
    49   1    -0.04  -0.01   0.07    -0.05   0.01   0.24     0.01   0.01  -0.08
    50   1    -0.07  -0.04   0.09    -0.12   0.08   0.16    -0.04  -0.13   0.04
    51   1    -0.03  -0.01   0.12    -0.03   0.00   0.21    -0.02   0.04   0.11
    52   1    -0.02  -0.00   0.13     0.01  -0.02   0.03    -0.04   0.06   0.30
    53   1    -0.01   0.00   0.08     0.04  -0.03  -0.07    -0.03   0.08   0.25
    54   1    -0.05  -0.03   0.09    -0.07   0.05  -0.04    -0.08  -0.08   0.24
    55   1    -0.03   0.01   0.04     0.00   0.01  -0.00    -0.01  -0.03   0.16
    56   1    -0.07   0.02   0.02    -0.04   0.04   0.04    -0.02  -0.09   0.07
    57   1    -0.28   0.27  -0.11     0.20  -0.13   0.15     0.18   0.02   0.02
    58   1    -0.10  -0.04  -0.38     0.07  -0.01   0.31     0.08   0.07   0.15
    59   1    -0.01   0.02  -0.18     0.00  -0.01   0.17     0.02   0.01  -0.09
    60   1     0.04  -0.04  -0.13    -0.07   0.02   0.14    -0.04  -0.06  -0.03
    61   1     0.00  -0.01   0.04    -0.02   0.02  -0.02     0.00  -0.02  -0.21
    62   1    -0.10  -0.06  -0.02     0.09   0.01  -0.00     0.08   0.11  -0.11
                      4                      5                      6
                      A                      A                      A
 Frequencies --     76.6591                87.5910               104.2691
 Red. masses --      2.8627                 2.7182                 3.3259
 Frc consts  --      0.0099                 0.0123                 0.0213
 IR Inten    --      0.1832                 0.0629                 0.0079
  Atom  AN      X      Y      Z        X      Y      Z        X      Y      Z
     1   6    -0.02   0.03  -0.02    -0.05   0.06   0.09    -0.03  -0.04   0.00
     2   6    -0.01   0.03  -0.02    -0.01  -0.01   0.08    -0.02   0.02   0.01
     3   6    -0.00   0.02  -0.02     0.01  -0.03   0.06     0.01   0.01   0.05
     4   6     0.01   0.02   0.01     0.02  -0.01   0.02     0.02   0.01   0.09
     5   6    -0.00   0.04   0.05     0.02  -0.01   0.01     0.04   0.06   0.03
     6   6    -0.01   0.03   0.03     0.01  -0.00   0.00    -0.00   0.07  -0.01
     7   6    -0.01   0.05  -0.02     0.02   0.00   0.02    -0.01   0.06   0.01
     8   6    -0.00   0.03  -0.09     0.02  -0.02  -0.08    -0.01   0.06   0.02
     9   6     0.00   0.05  -0.08     0.03   0.01  -0.10     0.01   0.05   0.01
    10   6     0.00   0.02  -0.01     0.03  -0.01  -0.06     0.02   0.06  -0.01
    11   6     0.01  -0.04  -0.01     0.05  -0.05  -0.06     0.04   0.11  -0.01
    12   6    -0.01   0.05   0.04     0.02   0.00  -0.03     0.00   0.06  -0.05
    13   6    -0.04   0.02   0.10     0.02  -0.00  -0.02    -0.03   0.06  -0.11
    14   6    -0.02   0.02   0.03     0.03   0.00  -0.05    -0.05  -0.00   0.01
    15   6     0.00   0.02   0.01     0.02  -0.00  -0.03     0.01   0.01  -0.00
    16   6     0.01   0.00  -0.01     0.02   0.01   0.02     0.07  -0.10   0.01
    17   6     0.06  -0.14  -0.18    -0.00   0.00   0.05    -0.02  -0.14   0.11
    18   6     0.07  -0.02   0.19     0.00   0.01   0.06     0.18  -0.09  -0.09
    19   6     0.00  -0.00  -0.03     0.01  -0.04   0.06     0.01  -0.05   0.05
    20   6     0.00  -0.05  -0.01    -0.05   0.02  -0.03    -0.02  -0.06   0.01
    21   6    -0.02  -0.05   0.01    -0.13   0.04  -0.13    -0.06  -0.05  -0.03
    22   6    -0.04  -0.02   0.01     0.01   0.01   0.00    -0.08  -0.05  -0.05
    23   6    -0.03   0.01  -0.01    -0.02  -0.05   0.16    -0.06   0.02  -0.04
    24   8     0.03  -0.08   0.00    -0.07   0.04  -0.04    -0.02  -0.06   0.00
    25   1     0.01   0.04  -0.02     0.10   0.16   0.05    -0.07  -0.08   0.03
    26   1    -0.05   0.04  -0.02    -0.20   0.16   0.13     0.01  -0.07  -0.04
    27   1    -0.02  -0.01  -0.02    -0.06  -0.11   0.09    -0.02  -0.00   0.01
    28   1    -0.01   0.03  -0.02     0.02  -0.05   0.06     0.01   0.05   0.05
    29   1     0.01   0.02   0.01     0.03  -0.03  -0.00     0.06   0.02   0.15
    30   1     0.04   0.01   0.01     0.02   0.02   0.02    -0.02  -0.04   0.09
    31   1     0.01   0.03   0.10     0.03  -0.00   0.00     0.05   0.07   0.02
    32   1    -0.03   0.08   0.06     0.03  -0.01   0.01     0.09   0.07   0.03
    33   1     0.00  -0.01   0.03    -0.01   0.00  -0.00    -0.03   0.07  -0.01
    34   1    -0.00   0.09  -0.02     0.08   0.03   0.02    -0.01   0.05   0.01
    35   1     0.01  -0.04  -0.10    -0.01  -0.09  -0.09    -0.01   0.08   0.02
    36   1     0.00   0.06  -0.14     0.03   0.02  -0.12    -0.00   0.06   0.04
    37   1     0.00   0.03  -0.13     0.02   0.00  -0.16     0.01   0.06   0.03
    38   1     0.00   0.12  -0.08     0.05   0.06  -0.10     0.01   0.03   0.01
    39   1     0.01  -0.06   0.03     0.05  -0.06  -0.03     0.04   0.12  -0.03
    40   1     0.02  -0.05  -0.02     0.05  -0.05  -0.07     0.04   0.13  -0.01
    41   1     0.03  -0.06  -0.04     0.05  -0.05  -0.07     0.04   0.12   0.03
    42   1    -0.02   0.10   0.04     0.04   0.02  -0.03     0.02   0.03  -0.04
    43   1    -0.03   0.07   0.17     0.03   0.01  -0.00    -0.08   0.02  -0.19
    44   1    -0.07  -0.05   0.13     0.01  -0.02  -0.02     0.01   0.15  -0.14
    45   1     0.03   0.03   0.02     0.05  -0.00  -0.07    -0.15  -0.01   0.04
    46   1    -0.06   0.00  -0.00     0.01   0.02  -0.07     0.01  -0.04   0.07
    47   1     0.00   0.04   0.01    -0.02  -0.02  -0.04     0.01   0.02  -0.01
    48   1    -0.08   0.13  -0.05     0.06   0.04   0.03     0.10  -0.18   0.03
    49   1     0.04  -0.11  -0.36     0.01   0.01   0.03    -0.09  -0.16   0.18
    50   1     0.14  -0.31  -0.14    -0.05  -0.03   0.05    -0.07  -0.07   0.09
    51   1     0.04  -0.11  -0.17     0.00   0.02   0.11     0.03  -0.23   0.14
    52   1     0.07  -0.02   0.17     0.01   0.02   0.12     0.20  -0.16  -0.17
    53   1     0.02   0.09   0.32     0.04   0.02   0.03     0.17  -0.09  -0.09
    54   1     0.16  -0.15   0.25    -0.05  -0.02   0.05     0.24   0.00  -0.09
    55   1     0.02  -0.01  -0.06     0.02  -0.05   0.13     0.05  -0.07   0.08
    56   1    -0.01   0.02  -0.02     0.03  -0.12   0.03     0.01  -0.09   0.03
    57   1    -0.01  -0.05   0.01    -0.33   0.12  -0.08    -0.05  -0.01  -0.03
    58   1    -0.03  -0.06   0.03    -0.12   0.01  -0.35    -0.06  -0.07  -0.03
    59   1    -0.06  -0.02   0.02     0.02   0.01   0.01    -0.12  -0.05  -0.10
    60   1    -0.05  -0.01   0.01     0.13   0.05  -0.03    -0.07  -0.10  -0.05
    61   1    -0.05   0.03  -0.01     0.05  -0.03   0.32    -0.09   0.02  -0.08
    62   1    -0.02   0.01  -0.01    -0.14  -0.18   0.18    -0.06   0.07  -0.04
                      7                      8                      9
                      A                      A                      A
 Frequencies --    106.8590               145.4526               177.3033
 Red. masses --      3.1351                 1.9980                 1.7698
 Frc consts  --      0.0211                 0.0249                 0.0328
 IR Inten    --      0.5411                 0.2535                 0.1009
  Atom  AN      X      Y      Z        X      Y      Z        X      Y      Z
     1   6     0.04   0.03   0.00     0.03  -0.01  -0.00     0.03   0.06  -0.02
     2   6     0.01   0.04   0.00     0.01   0.00  -0.00     0.00   0.03  -0.02
     3   6    -0.01   0.05  -0.01     0.02  -0.01  -0.01     0.01   0.03  -0.02
     4   6    -0.00   0.02   0.11     0.03   0.01  -0.08     0.01   0.04  -0.04
     5   6    -0.03   0.04   0.18     0.02   0.00  -0.07    -0.02   0.03   0.05
     6   6    -0.02  -0.00   0.07     0.01   0.03   0.01     0.00   0.01   0.04
     7   6     0.01   0.03   0.02    -0.00   0.02   0.03     0.01   0.04  -0.01
     8   6     0.02   0.01  -0.01    -0.01   0.03   0.07     0.04   0.00  -0.06
     9   6     0.03  -0.00  -0.04     0.03   0.03  -0.01     0.00  -0.02   0.04
    10   6    -0.00  -0.02  -0.04    -0.00   0.01  -0.01     0.02  -0.02   0.05
    11   6    -0.04  -0.05  -0.05    -0.06  -0.03  -0.02     0.04  -0.01   0.05
    12   6    -0.00  -0.01   0.00    -0.01   0.04   0.05     0.01  -0.02   0.03
    13   6    -0.03  -0.02  -0.03    -0.04  -0.01   0.13     0.00  -0.01  -0.06
    14   6     0.01  -0.02  -0.17     0.01   0.01  -0.11     0.01  -0.04  -0.05
    15   6    -0.00  -0.04  -0.07     0.01  -0.01  -0.05     0.02  -0.04   0.03
    16   6    -0.00  -0.00   0.02     0.02  -0.01   0.00     0.00  -0.02   0.00
    17   6    -0.06   0.03   0.12    -0.02  -0.02   0.06     0.04   0.04  -0.02
    18   6    -0.06  -0.00   0.01     0.02  -0.01  -0.01    -0.05  -0.01  -0.02
    19   6     0.01   0.06  -0.12     0.01  -0.04   0.06    -0.01  -0.02   0.04
    20   6     0.03  -0.04  -0.05    -0.00  -0.01   0.03    -0.02  -0.02   0.04
    21   6    -0.00  -0.04  -0.00     0.02  -0.01   0.02    -0.00  -0.02   0.03
    22   6    -0.01   0.01   0.03    -0.02  -0.03  -0.04    -0.05  -0.04  -0.05
    23   6     0.00   0.04  -0.00    -0.01   0.01  -0.04    -0.04   0.02  -0.03
    24   8     0.12  -0.10  -0.01    -0.04   0.02   0.00    -0.05  -0.01   0.01
    25   1    -0.05  -0.02   0.01     0.15   0.05   0.01     0.38   0.25  -0.02
    26   1     0.14  -0.03  -0.00    -0.07   0.05   0.01    -0.30   0.27   0.03
    27   1     0.05   0.15  -0.01     0.03  -0.14  -0.03     0.01  -0.33  -0.08
    28   1    -0.09   0.10  -0.01     0.06  -0.05  -0.01     0.04   0.02  -0.02
    29   1    -0.04   0.05   0.15     0.03  -0.01  -0.13    -0.01   0.03  -0.11
    30   1     0.05  -0.06   0.12     0.03   0.08  -0.09     0.08   0.09  -0.04
    31   1    -0.02  -0.00   0.29     0.04   0.03  -0.13    -0.00   0.01   0.11
    32   1    -0.06   0.16   0.19     0.01  -0.07  -0.08    -0.08   0.07   0.06
    33   1    -0.07  -0.07   0.07     0.06   0.08   0.02     0.01  -0.02   0.04
    34   1    -0.00   0.06   0.02    -0.03  -0.01   0.03     0.00   0.09  -0.01
    35   1     0.01  -0.00  -0.01    -0.07   0.10   0.08     0.11  -0.09  -0.08
    36   1     0.04   0.02  -0.01     0.01   0.00   0.15     0.03   0.05  -0.16
    37   1     0.03  -0.02  -0.06     0.01   0.02  -0.07     0.03  -0.02   0.10
    38   1     0.05   0.01  -0.04     0.10   0.06  -0.01    -0.08  -0.04   0.04
    39   1    -0.07  -0.06  -0.05    -0.28  -0.15  -0.06     0.20   0.07   0.09
    40   1    -0.06  -0.03  -0.02    -0.07   0.18   0.03     0.04  -0.18   0.02
    41   1    -0.03  -0.06  -0.08     0.13  -0.17  -0.05    -0.10   0.09   0.05
    42   1     0.05   0.00   0.01    -0.03   0.10   0.04     0.03  -0.06   0.03
    43   1     0.02   0.00   0.02     0.00   0.09   0.30     0.01  -0.05  -0.10
    44   1    -0.12  -0.05  -0.02    -0.17  -0.18   0.19    -0.02   0.06  -0.07
    45   1     0.12  -0.07  -0.24     0.20  -0.02  -0.22     0.02  -0.08  -0.08
    46   1    -0.08   0.05  -0.26    -0.14   0.07  -0.26     0.00  -0.00  -0.07
    47   1    -0.02  -0.12  -0.06     0.01  -0.06  -0.04     0.05  -0.09   0.04
    48   1     0.08   0.00   0.04     0.07  -0.01   0.01    -0.01  -0.02   0.00
    49   1    -0.02   0.03   0.13     0.00  -0.01   0.03     0.03   0.02   0.05
    50   1    -0.16   0.02   0.11    -0.10  -0.06   0.05     0.10   0.11  -0.02
    51   1    -0.05   0.05   0.21    -0.01   0.00   0.14     0.03   0.01  -0.10
    52   1    -0.05   0.02   0.14     0.03  -0.01   0.04    -0.05   0.01   0.03
    53   1     0.02  -0.02  -0.08     0.05  -0.01  -0.05    -0.03  -0.04  -0.06
    54   1    -0.20  -0.00  -0.03    -0.03  -0.00  -0.02    -0.11  -0.01  -0.04
    55   1     0.02   0.06  -0.23     0.02  -0.04   0.11     0.02  -0.03   0.08
    56   1     0.06   0.16  -0.08    -0.03  -0.09   0.04    -0.06  -0.05   0.04
    57   1    -0.02  -0.07   0.01     0.09  -0.00   0.00     0.07  -0.01   0.01
    58   1    -0.01  -0.05  -0.01     0.02  -0.00   0.08    -0.01  -0.02   0.09
    59   1    -0.02   0.00   0.08    -0.04  -0.02  -0.10    -0.09  -0.03  -0.13
    60   1    -0.02   0.06   0.03    -0.03  -0.10  -0.03    -0.06  -0.14  -0.04
    61   1    -0.02   0.04  -0.02    -0.02   0.00  -0.06    -0.06   0.04  -0.03
    62   1     0.02   0.05  -0.01    -0.02   0.04  -0.04    -0.05   0.03  -0.03
                     10                     11                     12
                      A                      A                      A
 Frequencies --    187.6773               195.5867               212.0149
 Red. masses --      2.3522                 2.0662                 3.0205
 Frc consts  --      0.0488                 0.0466                 0.0800
 IR Inten    --      0.0916                 0.0502                 0.2128
  Atom  AN      X      Y      Z        X      Y      Z        X      Y      Z
     1   6    -0.00  -0.01  -0.02     0.09   0.00   0.03     0.07  -0.01   0.02
     2   6    -0.01  -0.04  -0.02     0.04  -0.01   0.03    -0.02   0.01   0.02
     3   6    -0.04  -0.04  -0.06     0.03  -0.01   0.01    -0.08   0.04  -0.01
     4   6    -0.02  -0.04  -0.05     0.03  -0.01  -0.00    -0.08   0.04  -0.02
     5   6    -0.05  -0.04   0.08     0.02  -0.00   0.03    -0.07  -0.01  -0.02
     6   6    -0.01  -0.06   0.05    -0.01   0.01   0.03    -0.01  -0.02   0.02
     7   6    -0.02  -0.05  -0.01     0.01   0.00   0.05    -0.01  -0.03   0.08
     8   6    -0.04  -0.04  -0.04    -0.02   0.02   0.04    -0.01  -0.02   0.10
     9   6    -0.06   0.00   0.01     0.00   0.03  -0.05     0.05  -0.03  -0.07
    10   6    -0.03   0.03   0.01    -0.03   0.01  -0.05     0.04  -0.04  -0.07
    11   6    -0.06   0.04   0.01    -0.08  -0.00  -0.06     0.03  -0.09  -0.07
    12   6     0.00  -0.01   0.03    -0.01   0.01  -0.02     0.04  -0.04  -0.03
    13   6     0.04   0.02   0.00    -0.02   0.03  -0.06     0.09  -0.01  -0.06
    14   6     0.04   0.07  -0.06    -0.06   0.00   0.10     0.07   0.01   0.07
    15   6     0.00   0.06  -0.01    -0.05   0.02  -0.03     0.05   0.02  -0.03
    16   6     0.04   0.03   0.01    -0.05  -0.00  -0.02     0.07   0.04   0.00
    17   6    -0.03  -0.05   0.06    -0.09  -0.05  -0.01     0.07   0.05   0.02
    18   6     0.17   0.03  -0.02    -0.06  -0.01   0.03     0.08   0.04   0.05
    19   6    -0.05   0.01  -0.05     0.04  -0.02   0.00    -0.09   0.08  -0.04
    20   6    -0.00   0.03  -0.00     0.05  -0.00  -0.01    -0.08   0.00   0.03
    21   6     0.04   0.02   0.03     0.08  -0.01   0.01    -0.06  -0.00   0.04
    22   6     0.04   0.02   0.03     0.05  -0.02  -0.03    -0.09  -0.04  -0.04
    23   6     0.02  -0.05   0.02     0.04  -0.00   0.01    -0.06   0.03  -0.05
    24   8     0.00   0.05   0.02     0.02   0.01  -0.02    -0.04  -0.03   0.04
    25   1     0.20   0.11  -0.03     0.41   0.17   0.05     0.14   0.01   0.05
    26   1    -0.19   0.12   0.02    -0.19   0.19   0.08     0.06   0.01   0.04
    27   1    -0.01  -0.22  -0.05     0.09  -0.34  -0.05     0.09  -0.05  -0.05
    28   1    -0.05  -0.06  -0.06     0.03  -0.03   0.01    -0.10   0.02  -0.01
    29   1    -0.05  -0.05  -0.12     0.02  -0.02  -0.03    -0.09   0.04  -0.04
    30   1     0.08  -0.00  -0.06     0.06   0.01  -0.01    -0.07   0.06  -0.02
    31   1    -0.03  -0.07   0.17     0.04   0.00   0.04    -0.10  -0.02  -0.04
    32   1    -0.14   0.04   0.09    -0.00   0.00   0.03    -0.08  -0.04  -0.02
    33   1    -0.01  -0.11   0.05    -0.03   0.01   0.03    -0.04   0.02   0.02
    34   1    -0.03  -0.02  -0.01     0.01  -0.01   0.05    -0.04  -0.07   0.07
    35   1    -0.01  -0.09  -0.05    -0.09   0.05   0.05    -0.12   0.05   0.12
    36   1    -0.07  -0.03  -0.09    -0.01  -0.00   0.10     0.03  -0.05   0.21
    37   1    -0.06   0.01   0.03    -0.01   0.01  -0.10     0.02  -0.03  -0.16
    38   1    -0.09  -0.00   0.01     0.07   0.06  -0.04     0.19   0.02  -0.06
    39   1     0.06   0.11   0.01    -0.10  -0.01  -0.07    -0.10  -0.18  -0.07
    40   1    -0.07  -0.09   0.01    -0.09   0.01  -0.03     0.04   0.04  -0.05
    41   1    -0.18   0.13   0.00    -0.07  -0.01  -0.08     0.16  -0.19  -0.09
    42   1     0.02  -0.01   0.03     0.03   0.00  -0.01     0.09  -0.05  -0.03
    43   1     0.10   0.01   0.01    -0.07  -0.03  -0.17     0.08  -0.07  -0.15
    44   1     0.01   0.02   0.00     0.06   0.14  -0.10     0.17   0.06  -0.09
    45   1     0.11   0.06  -0.09    -0.22   0.07   0.21    -0.05   0.06   0.15
    46   1     0.00   0.13  -0.10     0.06  -0.10   0.23     0.16  -0.06   0.17
    47   1     0.01   0.04  -0.01    -0.07   0.10  -0.04     0.02   0.08  -0.04
    48   1     0.05   0.00   0.01    -0.04   0.02  -0.03     0.10   0.06   0.00
    49   1    -0.02  -0.04  -0.02    -0.09  -0.04  -0.08     0.10   0.05   0.02
    50   1    -0.13  -0.14   0.06    -0.14  -0.13  -0.01     0.04   0.04   0.02
    51   1    -0.00  -0.03   0.19    -0.08  -0.03   0.07     0.06   0.08   0.05
    52   1     0.16  -0.04  -0.24    -0.04  -0.00   0.12     0.08   0.04   0.02
    53   1     0.05   0.06   0.11    -0.00   0.02  -0.01     0.06   0.07   0.10
    54   1     0.40   0.08   0.04    -0.14  -0.04   0.01     0.13   0.00   0.07
    55   1    -0.09   0.03  -0.06     0.04  -0.02   0.02    -0.09   0.08  -0.13
    56   1    -0.06   0.04  -0.03     0.04  -0.03  -0.00    -0.08   0.17   0.00
    57   1     0.06  -0.01   0.02     0.14  -0.02  -0.01     0.01  -0.00   0.02
    58   1     0.04   0.05   0.06     0.08   0.00   0.07    -0.06   0.02   0.10
    59   1     0.08   0.02   0.06     0.03  -0.01  -0.07    -0.12  -0.03  -0.11
    60   1     0.03   0.05   0.03     0.06  -0.06  -0.02    -0.12  -0.12  -0.02
    61   1     0.05  -0.06   0.05     0.05  -0.01   0.01    -0.10   0.03  -0.11
    62   1     0.02  -0.10   0.02     0.01   0.00   0.01    -0.05   0.11  -0.05
                     13                     14                     15
                      A                      A                      A
 Frequencies --    232.8778               237.3358               243.8384
 Red. masses --      1.2180                 1.2581                 1.8210
 Frc consts  --      0.0389                 0.0418                 0.0638
 IR Inten    --      0.0293                 0.0407                 0.1244
  Atom  AN      X      Y      Z        X      Y      Z        X      Y      Z
     1   6    -0.03  -0.01  -0.02     0.02  -0.04   0.02    -0.07   0.09  -0.04
     2   6    -0.01  -0.02  -0.02    -0.00  -0.02   0.02    -0.01   0.00  -0.05
     3   6    -0.02  -0.01  -0.01    -0.01  -0.03  -0.01     0.01  -0.02  -0.06
     4   6    -0.01  -0.02   0.04     0.01  -0.01  -0.06     0.06   0.00  -0.08
     5   6    -0.01   0.01   0.04    -0.01  -0.01  -0.01    -0.01   0.03   0.11
     6   6    -0.00  -0.01  -0.02    -0.01   0.01   0.04     0.01  -0.01   0.02
     7   6    -0.01  -0.01  -0.03    -0.01   0.00   0.04     0.00   0.00  -0.04
     8   6    -0.02  -0.00   0.00    -0.01   0.00   0.00     0.01   0.01   0.02
     9   6    -0.01   0.01  -0.00     0.00   0.03  -0.04     0.01  -0.02   0.02
    10   6     0.01   0.01  -0.00    -0.01   0.01   0.00     0.01  -0.01  -0.01
    11   6     0.02   0.05   0.01    -0.02  -0.03  -0.01    -0.06   0.01  -0.02
    12   6    -0.00   0.01  -0.02    -0.01   0.02   0.03     0.02  -0.01   0.00
    13   6    -0.01   0.00  -0.00    -0.02   0.03  -0.02     0.04  -0.00  -0.01
    14   6    -0.00  -0.01  -0.00    -0.01   0.01  -0.03     0.02  -0.01   0.05
    15   6     0.00  -0.01   0.01    -0.00   0.01  -0.00     0.02   0.00  -0.03
    16   6     0.01  -0.01   0.01     0.01  -0.00   0.01     0.03  -0.00  -0.02
    17   6     0.04   0.02  -0.01     0.02  -0.00  -0.00     0.01  -0.01   0.01
    18   6     0.00  -0.01   0.02     0.03  -0.00   0.03    -0.01  -0.01   0.01
    19   6    -0.02   0.00  -0.03    -0.01  -0.00  -0.01    -0.02  -0.07   0.03
    20   6    -0.00   0.00  -0.01     0.01   0.01  -0.00    -0.01  -0.01   0.02
    21   6     0.01   0.00   0.00     0.01   0.01   0.00     0.01  -0.00  -0.01
    22   6     0.02   0.01   0.03     0.01   0.00  -0.00     0.00  -0.01  -0.01
    23   6     0.01  -0.02   0.01    -0.00  -0.01   0.00    -0.01  -0.02   0.00
    24   8     0.01   0.01   0.00     0.00   0.02   0.00    -0.04   0.04   0.03
    25   1     0.16   0.08  -0.02    -0.10  -0.10   0.03    -0.32  -0.00  -0.12
    26   1    -0.21   0.10  -0.01     0.13  -0.11   0.00     0.13  -0.03  -0.03
    27   1    -0.04  -0.22  -0.04     0.03   0.10   0.03    -0.08   0.36   0.05
    28   1    -0.03   0.02  -0.01    -0.01  -0.07  -0.01     0.05  -0.04  -0.07
    29   1    -0.00  -0.01   0.07     0.00  -0.03  -0.11     0.02  -0.03  -0.19
    30   1    -0.01  -0.06   0.04     0.04   0.03  -0.06     0.21   0.06  -0.09
    31   1    -0.01  -0.02   0.09     0.02   0.01  -0.02     0.04  -0.02   0.29
    32   1    -0.00   0.07   0.04    -0.04  -0.04  -0.01    -0.14   0.19   0.13
    33   1    -0.00  -0.04  -0.02    -0.01   0.03   0.04    -0.01  -0.09   0.02
    34   1    -0.01  -0.03  -0.03    -0.01   0.02   0.04    -0.03   0.01  -0.04
    35   1    -0.03   0.04   0.01    -0.04  -0.03  -0.00     0.01   0.08   0.04
    36   1    -0.02  -0.02   0.03    -0.01   0.01  -0.01     0.01  -0.01   0.08
    37   1    -0.02   0.01   0.00    -0.00   0.02  -0.10     0.02  -0.01   0.06
    38   1    -0.01   0.00  -0.00     0.04   0.09  -0.03     0.01  -0.06   0.02
    39   1    -0.33  -0.12  -0.08     0.16   0.05   0.05    -0.19  -0.04  -0.08
    40   1     0.04   0.46   0.04    -0.03  -0.24  -0.02    -0.08   0.14   0.04
    41   1     0.35  -0.17   0.07    -0.19   0.08  -0.05     0.04  -0.06  -0.03
    42   1    -0.01   0.01  -0.02     0.02   0.01   0.03     0.04  -0.01   0.00
    43   1    -0.01   0.01   0.01    -0.01   0.01  -0.05     0.02  -0.03  -0.06
    44   1    -0.00  -0.02   0.00    -0.04   0.07  -0.03     0.07   0.04  -0.03
    45   1    -0.01  -0.02  -0.01    -0.02  -0.00  -0.03    -0.06   0.04   0.11
    46   1    -0.01   0.00  -0.01    -0.02   0.02  -0.03     0.07  -0.07   0.12
    47   1    -0.00  -0.01   0.01    -0.00  -0.00  -0.00     0.02   0.04  -0.03
    48   1    -0.00  -0.02   0.01     0.00   0.00   0.00     0.05   0.01  -0.02
    49   1    -0.10  -0.03   0.21    -0.24  -0.08   0.32     0.05   0.00  -0.06
    50   1     0.21   0.28  -0.02     0.22   0.37  -0.02    -0.05  -0.09   0.01
    51   1     0.06  -0.15  -0.25     0.08  -0.28  -0.31     0.00   0.04   0.09
    52   1     0.02  -0.01   0.08     0.09  -0.04   0.26     0.02   0.01   0.23
    53   1     0.04  -0.00  -0.02     0.20   0.04  -0.11     0.12   0.01  -0.12
    54   1    -0.06  -0.02   0.00    -0.19  -0.02  -0.03    -0.22  -0.04  -0.04
    55   1    -0.03   0.01  -0.04    -0.03   0.00  -0.01     0.00  -0.08   0.14
    56   1    -0.02   0.02  -0.02     0.00   0.00  -0.01    -0.08  -0.16   0.00
    57   1    -0.00  -0.01   0.01     0.03  -0.00   0.00     0.01   0.01  -0.01
    58   1     0.01   0.01  -0.01     0.01   0.01   0.03     0.01  -0.01  -0.00
    59   1     0.04   0.01   0.07     0.01   0.01  -0.00    -0.00  -0.01  -0.03
    60   1     0.02   0.06   0.02     0.00   0.00   0.00    -0.00  -0.03  -0.01
    61   1     0.03  -0.02   0.03     0.01  -0.02  -0.01     0.01  -0.01   0.04
    62   1     0.02  -0.06   0.01    -0.01  -0.00   0.00    -0.02  -0.07   0.00
                     16                     17                     18
                      A                      A                      A
 Frequencies --    253.2447               260.7692               271.6465
 Red. masses --      1.4038                 2.1423                 1.8576
 Frc consts  --      0.0530                 0.0858                 0.0808
 IR Inten    --      0.0566                 0.0483                 0.2157
  Atom  AN      X      Y      Z        X      Y      Z        X      Y      Z
     1   6    -0.01   0.02   0.02     0.03  -0.11   0.02    -0.03   0.03  -0.00
     2   6     0.00   0.01   0.02    -0.02  -0.05   0.03    -0.02  -0.01  -0.01
     3   6     0.02  -0.01  -0.00    -0.04  -0.06  -0.03    -0.03  -0.02  -0.03
     4   6     0.03   0.00  -0.04     0.01  -0.02  -0.08     0.01  -0.02   0.00
     5   6     0.01   0.01   0.02    -0.01   0.01   0.03    -0.00   0.03   0.05
     6   6    -0.01   0.01   0.03    -0.01   0.03   0.07    -0.01   0.01  -0.02
     7   6    -0.00   0.02   0.02    -0.02   0.01   0.06    -0.02  -0.02   0.01
     8   6    -0.01   0.01  -0.02    -0.02  -0.00  -0.02    -0.02   0.00   0.10
     9   6    -0.01   0.01  -0.03     0.01   0.06  -0.04     0.03  -0.01  -0.03
    10   6    -0.02  -0.01   0.02     0.03   0.04   0.02     0.03   0.01  -0.07
    11   6    -0.01  -0.08   0.02     0.14   0.04   0.04     0.09   0.07  -0.07
    12   6    -0.01  -0.01   0.02     0.00   0.05   0.03    -0.00   0.04  -0.05
    13   6    -0.02   0.01  -0.08    -0.03   0.05  -0.04    -0.05  -0.02   0.07
    14   6    -0.02  -0.01  -0.03    -0.02  -0.01  -0.02    -0.03  -0.04   0.01
    15   6    -0.02  -0.01   0.03     0.02  -0.02   0.03     0.01  -0.03  -0.02
    16   6    -0.03   0.00   0.03     0.01  -0.03   0.00     0.01  -0.03   0.00
    17   6    -0.00   0.04   0.00     0.04  -0.01  -0.02     0.04   0.05   0.02
    18   6     0.00   0.00   0.01    -0.07  -0.03  -0.05    -0.04  -0.04   0.02
    19   6     0.02  -0.03   0.02    -0.04   0.01  -0.05    -0.03  -0.04  -0.03
    20   6     0.03  -0.00  -0.00    -0.01   0.02  -0.01     0.00  -0.00  -0.01
    21   6     0.03  -0.00  -0.01     0.01   0.02   0.02     0.04  -0.01  -0.00
    22   6     0.01  -0.00  -0.02     0.00   0.02   0.02     0.02  -0.00  -0.02
    23   6     0.00   0.01   0.00    -0.01  -0.04   0.01     0.00  -0.01   0.01
    24   8     0.01   0.01  -0.01     0.00   0.03   0.01     0.00   0.03   0.02
    25   1    -0.14  -0.04  -0.00    -0.01  -0.16   0.07     0.00   0.07  -0.03
    26   1     0.11  -0.05   0.01     0.08  -0.15  -0.01    -0.07   0.07   0.02
    27   1    -0.00   0.17   0.05     0.04  -0.07  -0.00    -0.04  -0.00   0.01
    28   1     0.03  -0.04  -0.00    -0.06  -0.12  -0.03    -0.04  -0.02  -0.03
    29   1     0.02  -0.01  -0.10     0.01  -0.06  -0.16     0.02  -0.02   0.00
    30   1     0.08   0.05  -0.04     0.09   0.03  -0.08     0.05  -0.03   0.00
    31   1     0.03   0.01   0.04     0.03   0.02   0.07     0.01  -0.00   0.13
    32   1    -0.03   0.01   0.02    -0.09   0.03   0.03    -0.02   0.11   0.06
    33   1    -0.01   0.02   0.03    -0.00   0.05   0.06    -0.06  -0.01  -0.02
    34   1    -0.00   0.04   0.03    -0.02   0.04   0.06    -0.05  -0.08   0.01
    35   1    -0.02  -0.03  -0.02    -0.04  -0.08  -0.03    -0.10   0.12   0.12
    36   1     0.00   0.02  -0.04    -0.01   0.03  -0.08     0.01  -0.05   0.23
    37   1    -0.01   0.00  -0.07    -0.04   0.06  -0.14    -0.03   0.01  -0.06
    38   1     0.01   0.07  -0.03     0.04   0.15  -0.04     0.12  -0.01  -0.03
    39   1    -0.18  -0.19   0.03     0.05  -0.02   0.05     0.36   0.21  -0.04
    40   1     0.00   0.09   0.03     0.19   0.18  -0.02     0.09  -0.19  -0.12
    41   1     0.16  -0.20  -0.01     0.28  -0.04   0.11    -0.15   0.24  -0.03
    42   1     0.01  -0.05   0.02     0.04   0.04   0.04    -0.00   0.11  -0.06
    43   1    -0.02  -0.04  -0.16    -0.05   0.01  -0.09    -0.08   0.06   0.17
    44   1    -0.02   0.10  -0.11    -0.06   0.12  -0.06    -0.06  -0.13   0.10
    45   1    -0.05  -0.05  -0.05    -0.04  -0.05  -0.04    -0.00  -0.02   0.01
    46   1    -0.00   0.03  -0.02    -0.03  -0.01  -0.03    -0.06  -0.07  -0.01
    47   1    -0.03  -0.05   0.04     0.05  -0.03   0.03    -0.03  -0.01  -0.03
    48   1    -0.06  -0.01   0.02     0.01  -0.04   0.00     0.03  -0.02   0.01
    49   1    -0.03   0.02   0.09     0.23   0.05  -0.28     0.06   0.04   0.11
    50   1     0.06   0.14   0.00    -0.09  -0.31   0.01     0.07   0.14   0.01
    51   1    -0.01   0.00  -0.09    -0.02   0.21   0.19     0.02   0.05  -0.06
    52   1    -0.07   0.01  -0.42    -0.08   0.03   0.04    -0.12   0.03  -0.23
    53   1    -0.29  -0.02   0.30    -0.03  -0.10  -0.15    -0.26  -0.08   0.21
    54   1     0.44   0.02   0.13    -0.21  -0.00  -0.10     0.21  -0.08   0.10
    55   1     0.03  -0.04   0.07    -0.09   0.03  -0.09    -0.03  -0.04   0.02
    56   1     0.02  -0.08  -0.00    -0.02   0.06  -0.03    -0.04  -0.07  -0.04
    57   1     0.06  -0.01  -0.02     0.03  -0.01   0.02     0.10  -0.04  -0.01
    58   1     0.03  -0.01   0.03     0.01   0.03   0.05     0.04   0.01   0.06
    59   1    -0.01   0.00  -0.05     0.04   0.02   0.06     0.01  -0.00  -0.03
    60   1     0.02  -0.03  -0.02    -0.01   0.06   0.02     0.02  -0.02  -0.02
    61   1     0.01   0.00  -0.00     0.01  -0.06   0.01     0.03  -0.02   0.03
    62   1    -0.01   0.03   0.01    -0.01  -0.04   0.01    -0.02  -0.03   0.01
                     19                     20                     21
                      A                      A                      A
 Frequencies --    279.3869               289.2446               302.3380
 Red. masses --      2.1661                 2.4645                 2.5358
 Frc consts  --      0.0996                 0.1215                 0.1366
 IR Inten    --      0.1185                 0.4164                 0.0277
  Atom  AN      X      Y      Z        X      Y      Z        X      Y      Z
     1   6     0.15   0.09   0.03     0.14  -0.11  -0.07     0.04   0.01  -0.08
     2   6     0.04  -0.00   0.02     0.04  -0.02  -0.06     0.01  -0.00  -0.07
     3   6    -0.00   0.01  -0.01     0.04   0.00  -0.03     0.00   0.01  -0.04
     4   6    -0.03  -0.01   0.01     0.03   0.01  -0.06     0.01  -0.01   0.02
     5   6    -0.03  -0.02   0.02     0.01   0.04   0.02     0.01   0.04   0.03
     6   6    -0.01  -0.03  -0.01     0.03   0.01  -0.00     0.01   0.01  -0.04
     7   6     0.03  -0.02   0.00     0.04   0.03  -0.04     0.01  -0.00  -0.03
     8   6     0.02  -0.03  -0.06     0.04   0.04  -0.03    -0.01   0.05   0.12
     9   6    -0.01  -0.00  -0.01     0.02   0.01   0.01     0.03   0.01   0.01
    10   6    -0.01   0.01  -0.02     0.00   0.01  -0.02    -0.00  -0.01   0.02
    11   6     0.07   0.10  -0.00    -0.09   0.04  -0.04     0.15  -0.13   0.04
    12   6    -0.01  -0.00  -0.03     0.01   0.01   0.00    -0.01  -0.00  -0.02
    13   6    -0.01  -0.01   0.04    -0.02  -0.00   0.01     0.01   0.01  -0.03
    14   6    -0.01   0.02  -0.01    -0.02  -0.03   0.02     0.00   0.04  -0.04
    15   6    -0.04   0.02   0.00     0.00  -0.02  -0.03    -0.05   0.03   0.05
    16   6    -0.05   0.01  -0.01     0.00  -0.02  -0.01    -0.08   0.05   0.01
    17   6    -0.07  -0.03  -0.02     0.00   0.03   0.02    -0.11  -0.06  -0.04
    18   6    -0.01   0.02  -0.01    -0.04  -0.03   0.03     0.02   0.06  -0.04
    19   6    -0.02   0.04   0.01     0.01   0.06   0.05    -0.02  -0.03   0.02
    20   6    -0.02   0.00   0.04    -0.04   0.01   0.07    -0.02  -0.02   0.02
    21   6     0.02  -0.00   0.03    -0.12   0.02   0.02    -0.03  -0.01  -0.01
    22   6     0.00  -0.11  -0.08    -0.01   0.00   0.11     0.03   0.01   0.06
    23   6    -0.00  -0.05   0.05     0.00  -0.06  -0.00     0.03  -0.03  -0.01
    24   8    -0.04   0.01   0.02    -0.06  -0.02   0.01    -0.04   0.00   0.03
    25   1    -0.02   0.01   0.00     0.14  -0.17   0.03     0.09   0.03  -0.07
    26   1     0.38  -0.02   0.11     0.22  -0.17  -0.10     0.02   0.04  -0.06
    27   1     0.19   0.35  -0.03     0.17  -0.09  -0.15     0.04  -0.03  -0.09
    28   1     0.00   0.01  -0.01     0.10  -0.00  -0.03     0.03   0.06  -0.04
    29   1    -0.04   0.00   0.03     0.02  -0.01  -0.09     0.02   0.01   0.08
    30   1    -0.03  -0.03   0.01     0.08   0.03  -0.06     0.01  -0.07   0.03
    31   1    -0.04  -0.04   0.05     0.04   0.02   0.11     0.02   0.01   0.11
    32   1    -0.03   0.02   0.02    -0.06   0.10   0.03     0.00   0.13   0.04
    33   1    -0.03  -0.04  -0.02     0.04  -0.03  -0.00     0.01  -0.02  -0.04
    34   1     0.07  -0.01   0.01     0.04   0.05  -0.04    -0.04  -0.07  -0.04
    35   1     0.07  -0.12  -0.07     0.06   0.06  -0.02    -0.07   0.22   0.15
    36   1    -0.01  -0.00  -0.15     0.03   0.03  -0.02     0.01  -0.04   0.29
    37   1    -0.01   0.00   0.02     0.04   0.01   0.04     0.03  -0.01  -0.04
    38   1    -0.04  -0.01  -0.01    -0.00  -0.02   0.00     0.11   0.02   0.01
    39   1    -0.00   0.07  -0.04    -0.07   0.07  -0.09     0.22  -0.15   0.19
    40   1     0.11   0.24  -0.04    -0.12   0.01   0.03     0.20  -0.22  -0.07
    41   1     0.18   0.05   0.10    -0.14   0.08  -0.06     0.14  -0.14   0.01
    42   1    -0.02   0.03  -0.03     0.01   0.03   0.00    -0.03  -0.03  -0.02
    43   1    -0.00   0.04   0.12    -0.04   0.00   0.01     0.04   0.01  -0.02
    44   1    -0.01  -0.10   0.07    -0.02  -0.00   0.01     0.00   0.00  -0.03
    45   1     0.04   0.02  -0.03    -0.05  -0.00   0.05     0.06  -0.01  -0.10
    46   1    -0.04   0.06  -0.04     0.00  -0.08   0.05    -0.02   0.13  -0.08
    47   1    -0.04   0.01   0.00    -0.01  -0.00  -0.03    -0.05  -0.01   0.06
    48   1    -0.06   0.00  -0.01     0.02  -0.01  -0.01    -0.13   0.03   0.01
    49   1    -0.16  -0.05   0.03    -0.01   0.01   0.12    -0.22  -0.06  -0.08
    50   1    -0.02   0.04  -0.02     0.01   0.13   0.01    -0.06  -0.08  -0.03
    51   1    -0.03  -0.13  -0.08     0.01  -0.00  -0.03    -0.07  -0.15  -0.06
    52   1     0.01  -0.02  -0.02    -0.10   0.02  -0.17     0.07  -0.03  -0.02
    53   1     0.01   0.04  -0.01    -0.21  -0.05   0.20     0.10   0.09  -0.10
    54   1     0.01   0.03  -0.01     0.16  -0.09   0.10    -0.01   0.15  -0.07
    55   1    -0.02   0.04  -0.05    -0.00   0.07  -0.02     0.01  -0.04   0.06
    56   1    -0.02   0.09   0.03    -0.02   0.14   0.09    -0.07  -0.06   0.02
    57   1     0.09   0.03   0.00    -0.33   0.10   0.06    -0.15   0.01   0.01
    58   1     0.02   0.03   0.07    -0.12  -0.00  -0.20    -0.03  -0.02  -0.13
    59   1    -0.05  -0.08  -0.29     0.07  -0.00   0.21     0.07  -0.01   0.17
    60   1     0.04  -0.32  -0.06    -0.04   0.13   0.10     0.02   0.12   0.05
    61   1     0.01  -0.01   0.15    -0.03  -0.03   0.03     0.02  -0.01   0.01
    62   1    -0.10  -0.12   0.06     0.06  -0.13  -0.01     0.07  -0.09  -0.02
                     22                     23                     24
                      A                      A                      A
 Frequencies --    310.5763               326.2694               331.3670
 Red. masses --      2.3833                 3.9343                 2.4411
 Frc consts  --      0.1354                 0.2468                 0.1579
 IR Inten    --      0.2367                 1.5234                 0.3386
  Atom  AN      X      Y      Z        X      Y      Z        X      Y      Z
     1   6     0.04   0.05  -0.05     0.05  -0.06   0.04     0.12   0.15  -0.04
     2   6     0.01  -0.02  -0.06     0.03   0.04   0.05    -0.00   0.02  -0.04
     3   6    -0.02  -0.01  -0.04    -0.10   0.06   0.02     0.01   0.00  -0.02
     4   6    -0.04  -0.06   0.09    -0.10   0.11  -0.03     0.00  -0.04   0.05
     5   6     0.01   0.02  -0.04    -0.11   0.08  -0.03     0.02  -0.11  -0.01
     6   6    -0.00   0.04  -0.04    -0.02   0.03  -0.01    -0.02  -0.05   0.05
     7   6     0.00   0.02  -0.05     0.03   0.02   0.01    -0.04  -0.06   0.04
     8   6    -0.00   0.05   0.01     0.05   0.01  -0.04    -0.05  -0.08  -0.01
     9   6     0.01   0.06  -0.01     0.03   0.00   0.01    -0.03   0.03  -0.06
    10   6    -0.01   0.03   0.05    -0.00  -0.01   0.00    -0.01   0.02   0.00
    11   6    -0.10  -0.08   0.03    -0.03   0.03   0.00     0.00   0.04   0.00
    12   6    -0.03   0.04   0.03    -0.02  -0.01   0.00    -0.01   0.01   0.03
    13   6    -0.05   0.05  -0.04    -0.03  -0.01   0.00    -0.01   0.03  -0.01
    14   6    -0.03  -0.01  -0.01    -0.02  -0.01   0.01    -0.01   0.01  -0.01
    15   6     0.02  -0.01   0.03    -0.00  -0.00  -0.01     0.01   0.00   0.00
    16   6     0.05  -0.02   0.03     0.00   0.02  -0.01     0.03  -0.03   0.01
    17   6     0.11   0.04   0.02     0.01   0.04   0.00     0.05   0.00   0.01
    18   6     0.01  -0.02   0.00     0.04   0.02   0.01    -0.02  -0.03  -0.01
    19   6    -0.04   0.01  -0.04    -0.11  -0.13  -0.02     0.00  -0.09   0.04
    20   6    -0.02   0.00   0.01    -0.08  -0.12  -0.04    -0.01  -0.03   0.00
    21   6     0.04  -0.01   0.01     0.08  -0.12  -0.12    -0.03  -0.02  -0.03
    22   6     0.05  -0.08  -0.03     0.18  -0.04   0.03    -0.01   0.08   0.07
    23   6     0.01  -0.11   0.06     0.18   0.08   0.02     0.01   0.07  -0.08
    24   8    -0.02   0.03   0.03    -0.06  -0.03   0.10    -0.03   0.01   0.03
    25   1     0.02   0.06  -0.07     0.03  -0.11   0.12     0.11   0.18  -0.10
    26   1     0.07   0.05   0.00     0.07  -0.11  -0.03     0.19   0.16   0.10
    27   1     0.05   0.10  -0.07     0.05  -0.08   0.03     0.14   0.24  -0.10
    28   1    -0.04   0.07  -0.04    -0.14   0.04   0.03     0.04   0.07  -0.02
    29   1     0.01  -0.01   0.29    -0.08   0.08  -0.09    -0.02   0.00   0.10
    30   1    -0.16  -0.23   0.11    -0.11   0.18  -0.04    -0.03  -0.09   0.05
    31   1     0.01   0.04  -0.10    -0.15   0.05  -0.00    -0.00  -0.06  -0.14
    32   1     0.10  -0.02  -0.05    -0.14   0.09  -0.03     0.08  -0.22  -0.02
    33   1     0.03   0.03  -0.04    -0.00   0.04  -0.01    -0.01  -0.03   0.05
    34   1    -0.01  -0.00  -0.05     0.08   0.04   0.01    -0.08  -0.04   0.03
    35   1    -0.01   0.11   0.02     0.08  -0.05  -0.05    -0.07  -0.14  -0.02
    36   1    -0.01   0.02   0.06     0.06   0.05  -0.10    -0.07  -0.06  -0.06
    37   1     0.01   0.04  -0.07     0.06  -0.01   0.02    -0.09   0.03  -0.18
    38   1     0.03   0.13  -0.00    -0.01  -0.00   0.01     0.03   0.15  -0.05
    39   1    -0.07  -0.08   0.07    -0.05   0.04  -0.03    -0.01   0.05  -0.02
    40   1    -0.14  -0.20   0.09    -0.03   0.06   0.02     0.00   0.07   0.00
    41   1    -0.17  -0.07  -0.10    -0.02   0.03   0.02     0.01   0.04   0.03
    42   1    -0.06  -0.00   0.03    -0.03  -0.00   0.00     0.02   0.02   0.03
    43   1    -0.06   0.01  -0.12    -0.04  -0.01   0.00    -0.01   0.00  -0.04
    44   1    -0.06   0.14  -0.07    -0.03  -0.00   0.00    -0.02   0.07  -0.02
    45   1    -0.06  -0.05  -0.02    -0.03  -0.01   0.02    -0.01  -0.00  -0.01
    46   1    -0.03  -0.02  -0.01    -0.02  -0.04   0.01    -0.01   0.01  -0.01
    47   1     0.04  -0.03   0.03     0.00  -0.00  -0.01     0.01   0.00   0.00
    48   1     0.05  -0.03   0.03     0.01   0.02  -0.01     0.03  -0.04   0.01
    49   1     0.26   0.08  -0.08     0.05   0.04  -0.02     0.10   0.01  -0.01
    50   1     0.08  -0.08   0.03    -0.02   0.01   0.00     0.05  -0.02   0.01
    51   1     0.04   0.20   0.07    -0.00   0.08   0.03     0.03   0.04   0.01
    52   1     0.01   0.00   0.04     0.06  -0.02   0.04    -0.03   0.01   0.02
    53   1     0.04  -0.06  -0.05     0.07   0.06   0.00    -0.02  -0.07  -0.03
    54   1    -0.05  -0.01  -0.02     0.03   0.02   0.01    -0.06  -0.04  -0.02
    55   1    -0.05   0.01  -0.07     0.03  -0.18   0.07     0.04  -0.10   0.15
    56   1    -0.05   0.04  -0.02    -0.16  -0.23  -0.05    -0.04  -0.18   0.00
    57   1     0.09  -0.01   0.00    -0.08  -0.13  -0.08    -0.13  -0.02  -0.00
    58   1     0.05   0.03   0.05     0.12  -0.03  -0.26    -0.03  -0.05  -0.11
    59   1     0.05  -0.06  -0.12     0.08  -0.07   0.11     0.02   0.05   0.27
    60   1     0.08  -0.16  -0.02     0.28   0.04  -0.01    -0.06   0.27   0.06
    61   1     0.07  -0.06   0.25     0.12   0.06  -0.10    -0.05   0.04  -0.23
    62   1    -0.08  -0.29   0.08     0.26   0.16   0.00     0.13   0.18  -0.10
                     25                     26                     27
                      A                      A                      A
 Frequencies --    350.4450               359.0320               374.4618
 Red. masses --      2.4692                 2.4488                 2.5791
 Frc consts  --      0.1787                 0.1860                 0.2131
 IR Inten    --      0.2237                 1.2502                 0.2461
  Atom  AN      X      Y      Z        X      Y      Z        X      Y      Z
     1   6     0.08  -0.01  -0.00    -0.03  -0.01  -0.01     0.11  -0.02   0.07
     2   6    -0.02  -0.01  -0.00     0.04   0.01  -0.00    -0.02  -0.00   0.06
     3   6     0.02  -0.05  -0.01     0.06   0.03   0.04    -0.01  -0.03   0.02
     4   6     0.01  -0.06   0.00    -0.02   0.03  -0.04     0.03   0.01  -0.02
     5   6     0.00   0.01   0.00    -0.07  -0.04   0.05     0.02   0.08   0.02
     6   6    -0.06   0.04   0.00    -0.04  -0.07  -0.03    -0.00   0.03  -0.10
     7   6    -0.03   0.04   0.02     0.01  -0.04  -0.03    -0.01   0.01  -0.01
     8   6     0.03  -0.01  -0.02    -0.03  -0.01   0.04    -0.06   0.03  -0.03
     9   6    -0.01  -0.08   0.08     0.00   0.03  -0.07    -0.09  -0.04   0.01
    10   6    -0.01  -0.03  -0.03    -0.04  -0.01   0.00    -0.03   0.00  -0.03
    11   6     0.06  -0.03  -0.03    -0.00   0.04   0.01    -0.05  -0.05  -0.05
    12   6    -0.05   0.01  -0.03    -0.06  -0.03  -0.03     0.00  -0.02  -0.11
    13   6    -0.12  -0.02  -0.00    -0.07  -0.02  -0.01     0.06  -0.03   0.00
    14   6    -0.09  -0.06   0.01    -0.06  -0.02  -0.01     0.03   0.06   0.00
    15   6    -0.01  -0.01  -0.06    -0.05  -0.02   0.06    -0.05   0.02   0.08
    16   6     0.01   0.05  -0.04    -0.02  -0.00   0.07    -0.00  -0.03   0.13
    17   6     0.01   0.11  -0.01     0.09   0.07  -0.01     0.11  -0.04   0.00
    18   6     0.14   0.07   0.03     0.09   0.02  -0.01    -0.02  -0.02  -0.03
    19   6     0.02  -0.05   0.01     0.09   0.06   0.08    -0.00  -0.05  -0.01
    20   6     0.03   0.01  -0.02     0.05   0.01   0.05     0.00   0.00  -0.03
    21   6     0.01   0.01   0.01    -0.02   0.02   0.00     0.01  -0.00   0.00
    22   6    -0.04   0.05   0.02     0.03  -0.04  -0.01    -0.04   0.05   0.01
    23   6    -0.05  -0.01   0.00     0.04   0.01  -0.01    -0.04   0.03   0.02
    24   8     0.02   0.03  -0.01     0.01  -0.06  -0.07     0.02   0.03   0.01
    25   1     0.10  -0.01   0.03    -0.06  -0.01  -0.02     0.15  -0.04   0.13
    26   1     0.11  -0.01   0.04    -0.04  -0.01  -0.04     0.18  -0.05   0.11
    27   1     0.10   0.00  -0.07    -0.05  -0.01   0.04     0.16   0.00  -0.05
    28   1     0.03  -0.05  -0.01     0.13   0.01   0.03    -0.03  -0.07   0.02
    29   1     0.02  -0.05   0.04    -0.10   0.03  -0.15     0.06  -0.02  -0.05
    30   1     0.00  -0.09   0.01     0.04   0.13  -0.06     0.07   0.04  -0.02
    31   1     0.06   0.03   0.01    -0.08  -0.09   0.15     0.04   0.03   0.16
[...]
 12479,0.00002561,0.00024112,0.00018568,0.00080599,0.00016334,-0.006898
 93,0.00002906,-0.00040956,0.00110934,-0.00020761,0.00044959,0.00283332
 ,0.00500619,0.01000626,0.07352715,-0.00052721,-0.00078582,0.00052628,0
 .00064225,0.00031053,-0.00034450,0.00003714,-0.00008181,0.00018032,-0.
 00002451,-0.00001889,-0.00003931,0.00000701,0.00001413,0.00001853,-0.0
 0000953,-0.00008209,-0.00013682,-0.00009723,0.00020862,0.00010152,-0.0
 0003323,0.00004965,-0.00004450,0.00001877,-0.00002115,0.00000663,-0.00
 001359,0.00000174,0.00000101,0.00000153,-0.00000376,0.00000504,-0.0000
 1045,0.00004493,0.00000813,0.00001341,-0.00001102,-0.00001504,-0.00000
 205,0.00000559,0.00000170,0.00000478,-0.00000112,0.00000288,-0.0000071
 3,0.00000010,-0.00000168,0.00000338,-0.00000030,0.00000070,0.00000241,
 0.00000101,-0.00000070,0.00029480,-0.00051935,-0.00019251,0.00031693,-
 0.00004153,0.00062663,-0.00016791,0.00015512,0.00061725,-0.03034511,-0
 .10657046,-0.10192783,0.00426465,0.00778379,0.01233157,-0.00038686,0.0
 0016005,-0.00004549,0.00020359,0.00009024,-0.00002101,0.00009525,0.000
 04393,-0.00007759,-0.00091939,-0.00144887,0.00007758,-0.00005376,-0.00
 001097,-0.00008076,0.00001453,0.00001515,-0.00001684,0.00001155,-0.000
 00969,-0.00000476,0.00000649,0.00001251,-0.00001304,-0.00000238,-0.000
 00189,-0.00000636,0.00000129,-0.00002795,0.00003372,-0.00001276,0.0000
 0316,-0.00013723,-0.00001101,-0.00000218,0.00000151,0.00003913,-0.0000
 3137,-0.00000346,0.00001243,-0.00000158,-0.00001127,-0.00000020,0.0000
 0176,-0.00000317,-0.00000075,0.00000189,-0.00000090,-0.00000655,0.0000
 0013,-0.00000384,0.00000742,-0.00000127,-0.00000263,0.00000073,0.00000
 297,-0.00000103,0.00000072,-0.00000144,0.00000229,-0.00000020,0.000001
 04,0.00000104,0.00000065,0.00000005,-0.00000435,0.00000575,0.00000230,
 -0.00000326,0.00000060,0.00000010,0.00000016,0.00000108,0.00000053,0.0
 0000037,-0.00000125,-0.00000081,0.00000135,-0.00000073,-0.00000007,0.0
 0000016,0.00000341,-0.00000021,-0.00000283,0.00000386,-0.00000017,-0.0
 0000305,-0.00000362,0.00000064,-0.00000053,-0.00000058,0.00000019,0.00
 000137,0.00003478,0.00013902,0.00000195,0.00073666,-0.00089531,0.00034
 703,0.00004991,0.00088649,0.00065003,-0.00033794,-0.00018804,-0.000103
 49,-0.00824493,-0.01575023,-0.02738634,0.03552233,0.11693513,0.0003640
 6,-0.00030186,-0.00056008,-0.00100531,-0.00174487,0.00050033,0.0001182
 4,0.00035289,-0.00025654,-0.00011327,0.00002192,0.00002098,0.00001766,
 -0.00000306,-0.00001925,0.00001735,-0.00005166,0.00005880,0.00001844,0
 .00005461,-0.00012816,-0.00004421,-0.00018654,-0.00002473,-0.00001208,
 0.00008202,0.00004613,0.00001353,-0.00003452,-0.00002665,-0.00000031,0
 .00001563,-0.00002157,0.00001778,0.00002949,0.00001099,-0.00000124,-0.
 00000329,-0.00000858,0.00000038,0.00000201,-0.00001057,-0.00000677,0.0
 0001725,0.00001150,-0.00000538,-0.00000229,-0.00000167,0.00000138,-0.0
 0000066,0.00000017,0.00000085,-0.00000225,-0.00000103,-0.00017909,-0.0
 0024122,-0.00062592,-0.00004846,-0.00144300,-0.00001312,-0.00107391,-0
 .00047598,-0.00152391,-0.05427734,-0.10120526,-0.23024686,-0.00686401,
 -0.01171185,-0.02295564,-0.00003458,0.00060931,0.00002374,-0.00009000,
 -0.00002780,0.00060055,-0.00001104,0.00004250,-0.00001905,-0.00022389,
 0.00038511,0.00122490,0.00012634,-0.00010779,0.00019945,-0.00001075,0.
 00005770,0.00000364,0.00001758,0.00008601,0.00002078,-0.00001948,0.000
 00771,0.00000883,0.00000644,-0.00000397,0.00002534,0.00004978,0.000114
 05,0.00001998,0.00009856,0.00002522,0.00031047,0.00010443,0.00005232,0
 .00001990,-0.00012662,0.00015464,0.00002896,0.00000599,0.00000025,-0.0
 0000256,-0.00000230,-0.00000309,0.00002686,0.00000462,0.00000942,0.000
 00187,-0.00000168,-0.00000643,-0.00000031,0.00000019,-0.00000268,0.000
 00138,0.00000335,-0.00000207,0.00002563,-0.00000312,0.00000483,-0.0000
 0421,0.00000346,0.00000636,0.00000234,-0.00000177,0.00000364,-0.000001
 25,0.00000222,0.00000435,-0.00000043,0.00000226,0.00000118,0.00000771,
 0.00000294,0.00000429,0.00000097,-0.00000135,0.00000157,-0.00000038,0.
 00000038,0.00000043,0.00000167,0.00000229,-0.00000021,-0.00000186,0.00
 000351,0.00000233,-0.00000356,-0.00000578,-0.00000157,-0.00000308,0.00
 000106,0.00000227,0.00000603,0.00020279,0.00008131,0.00032078,0.000160
 87,0.00038159,0.00076621,-0.00022718,-0.00007526,0.00118074,-0.0005701
 4,-0.00000246,0.00044360,0.00121889,0.00059564,0.00280056,0.05849189,0
 .11255290,0.25091226,0.00044749,-0.00108834,-0.00015718,-0.00066630,0.
 00051713,-0.00105478,0.00110245,0.00033758,-0.00016192,-0.00010610,-0.
 00031376,0.00019589,-0.00005291,-0.00001361,0.00006747,0.00013240,-0.0
 0005026,-0.00021077,-0.00042131,0.00063484,0.00037274,-0.00126332,0.00
 024162,0.00251878,0.00018160,-0.00079672,-0.00011838,-0.00012741,0.000
 08294,0.00021865,0.00003144,-0.00002987,0.00001877,-0.00007187,0.00009
 043,0.00004503,0.00003374,-0.00001026,-0.00003502,-0.00001282,0.000008
 01,0.00004369,0.00003456,-0.00009484,-0.00004488,0.00000757,0.00000417
 ,0.00000079,-0.00000259,-0.00000022,-0.00000350,-0.00000143,0.00000407
 ,-0.00001057,0.00004424,-0.00002638,-0.00014836,0.00059304,-0.00060376
 ,-0.00001868,0.00023278,-0.00161708,0.00367048,-0.01623514,0.00357594,
 -0.00047038,-0.27910506,0.08241824,-0.01515127,-0.00028703,0.00024270,
 -0.00006351,0.00037009,-0.00008068,0.00002051,0.00066922,-0.00001471,0
 .00021793,-0.00006008,0.00006851,-0.00002398,0.00022103,-0.00015862,0.
 00014768,0.00005595,0.00008094,0.00002133,0.00001083,0.00016212,0.0000
 0212,0.00004038,0.00001748,-0.00003214,0.00000699,-0.00001500,-0.00000
 082,0.00000663,0.00003471,0.00000984,0.00004488,0.00000515,0.00013041,
 -0.00004958,0.00005825,-0.00010736,-0.00091232,-0.00235434,0.00186874,
 0.00003401,0.00001437,-0.00006190,0.00001345,0.00002055,0.00001622,-0.
 00001630,-0.00002532,-0.00000016,-0.00000952,0.00002231,0.00000239,0.0
 0001495,0.00000564,-0.00000417,-0.00000068,0.00000839,0.00000513,0.000
 01426,-0.00001987,0.00001547,-0.00000552,-0.00000438,-0.00000216,0.000
 01167,-0.00001893,0.00000314,0.00000904,-0.00000716,-0.00000652,-0.000
 00018,0.00000408,-0.00000302,-0.00000018,-0.00000320,-0.00000098,0.000
 00208,-0.00000690,0.00000350,0.00000015,0.00000189,0.00000033,-0.00000
 175,-0.00000013,0.00000280,-0.00000432,-0.00000566,0.00000599,0.000012
 08,0.00000056,0.00001218,-0.00000050,-0.00000221,-0.00000877,-0.000008
 58,0.00007236,0.00004081,0.00000436,-0.00001588,0.00004929,0.00041036,
 0.00017239,0.00002558,-0.00112285,0.00011392,0.00005731,0.00089386,-0.
 00071926,-0.00027942,0.00013218,0.00014849,0.00040636,0.30700435,0.001
 70884,0.00112596,0.00048926,0.03212216,-0.01462496,0.00200835,-0.00284
 221,-0.00679332,0.00100166,0.00239397,0.00007786,-0.00007363,0.0001266
 2,0.00013793,-0.00028633,-0.00007872,-0.00003146,-0.00002626,0.0008423
 0,0.00063326,-0.00068090,-0.00011066,-0.00032924,0.00027565,-0.0002864
 8,0.00031524,0.00016390,0.00009246,-0.00010989,-0.00012700,-0.00003456
 ,0.00005035,0.00001738,0.00001226,0.00002700,-0.00004732,-0.00000895,-
 0.00000058,0.00001466,0.00001634,0.00000097,-0.00004557,-0.00004150,0.
 00007477,0.00004871,-0.00001174,0.00000068,0.00000183,0.00000420,-0.00
 000109,0.00000405,0.00000790,-0.00000510,0.00001180,-0.00028044,0.0002
 5224,0.00023831,-0.00020845,-0.00112451,-0.00002777,-0.00125515,0.0000
 2881,0.00244570,-0.01298097,0.00153315,0.00076833,0.08230485,-0.075691
 46,0.00188323,-0.00006220,0.00051430,-0.00000323,-0.00024439,0.0004398
 8,0.00028050,-0.00101678,-0.00028052,-0.00054993,-0.00009141,-0.000071
 00,-0.00009672,-0.00020371,0.00022596,0.00016659,0.00007443,-0.0008582
 8,0.00020321,-0.00007116,-0.00005933,-0.00008138,-0.00010226,-0.000006
 02,0.00007936,-0.00001191,0.00001675,0.00003325,-0.00000826,-0.0000220
 7,-0.00001057,-0.00008615,-0.00004356,0.00001250,-0.00026111,-0.000169
 51,0.00003087,-0.00065166,0.00078994,0.00087705,0.00000733,-0.00000651
 ,0.00002100,0.00000672,0.00000532,-0.00011740,0.00001936,0.00002734,-0
 .00001025,0.00001002,-0.00003289,-0.00002295,-0.00001368,-0.00000644,0
 .00000209,0.00000092,-0.00001036,-0.00000572,-0.00001933,0.00002358,-0
 .00002517,0.00000910,0.00000549,0.00000340,-0.00000967,0.00001691,-0.0
 0000544,-0.00000755,0.00000800,0.00000520,0.00000073,-0.00000252,0.000
 00266,0.00000062,0.00000029,0.00000084,-0.00000215,0.00000537,-0.00000
 255,-0.00000120,-0.00000156,-0.00000091,0.00000332,0.00000069,-0.00000
 402,0.00000644,0.00000684,-0.00000910,-0.00001465,0.00000269,-0.000011
 88,-0.00000223,0.00000243,0.00000676,0.00008674,0.00002262,-0.00008950
 ,-0.00001569,0.00006525,-0.00011138,0.00036354,0.00006382,0.00012084,-
 0.00074935,0.00000599,0.00025333,-0.00134562,0.00085173,0.00006872,0.0
 0040863,0.00003333,-0.00006011,-0.08508000,0.08845122,0.00074369,-0.00
 059752,0.00011920,-0.00173754,-0.00029672,-0.00063743,0.00008966,0.000
 46991,-0.00011924,-0.00002892,0.00005343,0.00047382,-0.00006600,-0.000
 14250,0.00004114,0.00029992,0.00003871,0.00001763,-0.00094589,0.000094
 61,-0.00002473,0.00075365,0.00169767,-0.00086007,0.00009675,-0.0003542
 1,-0.00021841,-0.00008780,0.00014803,0.00013852,0.00002365,-0.00004249
 ,0.00001498,-0.00005380,0.00001245,-0.00000540,0.00002034,-0.00000333,
 0.00000298,-0.00000925,0.00000485,0.00003108,0.00001727,-0.00007435,-0
 .00005410,0.00001579,0.00000248,0.00000626,-0.00000769,-0.00000008,-0.
 00000399,-0.00000814,0.00000286,-0.00000693,-0.00007430,0.00001059,-0.
 00003372,-0.00015978,0.00079499,-0.00014005,0.00065531,0.00146991,-0.0
 0436383,0.02885109,-0.00579548,-0.00034128,-0.01377340,0.00198943,-0.0
 4881980,0.00022640,-0.00042689,0.00008367,-0.00001658,0.00016206,-0.00
 007462,-0.00014881,-0.00024606,0.00019368,0.00010182,-0.00005758,-0.00
 004828,0.00041335,-0.00004521,0.00022901,-0.00000738,0.00004672,-0.000
 01595,0.00000831,0.00011802,-0.00002522,0.00004665,-0.00001229,-0.0000
 0254,0.00001038,-0.00001528,0.00000401,-0.00001812,0.00001224,-0.00000
 250,0.00009032,0.00012798,0.00002990,-0.00003176,-0.00017790,0.0000225
 8,0.00179539,0.00049797,-0.00214061,-0.00000626,0.00001446,0.00000205,
 0.00000270,0.00001899,0.00003160,-0.00001723,-0.00002587,0.00000226,0.
 00000182,0.00002545,0.00001330,0.00000514,0.00000659,-0.00000014,-0.00
 000012,0.00000516,0.00000200,0.00000954,-0.00001739,0.00000999,-0.0000
 0441,-0.00000502,-0.00000411,0.00000941,-0.00001504,0.00000454,0.00000
 161,-0.00000750,-0.00000224,-0.00000113,0.00000378,-0.00000486,-0.0000
 0232,-0.00000421,-0.00000127,0.00000273,-0.00000416,0.00000135,0.00000
 092,0.00000150,-0.00000020,-0.00000479,-0.00000014,0.00000582,-0.00000
 812,-0.00000610,0.00001002,0.00001619,0.00000070,0.00001146,0.00000037
 ,-0.00000256,-0.00001050,-0.00005625,-0.00006235,0.00004523,-0.0000032
 3,0.00003020,0.00005354,0.00001186,0.00027398,0.00020951,0.00143163,0.
 00020613,0.00026177,0.00006134,-0.00034444,0.00140461,-0.00054717,-0.0
 0055192,0.00029428,0.00874669,-0.00888312,0.05559744,0.00018339,-0.001
 18733,0.00028674,-0.00136465,0.00016866,0.00016361,0.00040130,0.000255
 56,0.00062367,0.00010242,-0.00008522,-0.00003885,0.00003026,0.00003070
 ,-0.00005802,-0.00004217,0.00007826,0.00031870,0.00008704,-0.00071163,
 -0.00084269,-0.00003646,-0.00040385,-0.00001062,0.00000029,0.00011953,
 0.00007109,0.00003553,-0.00004003,-0.00002538,-0.00000681,0.00002462,-
 0.00002651,0.00001339,-0.00006667,-0.00002187,-0.00001305,0.00000995,0
 .00001695,0.00000240,-0.00000569,-0.00001276,-0.00001402,0.00001609,0.
 00001590,-0.00000374,-0.00000180,-0.00000027,0.00000050,-0.00000139,0.
 00000008,-0.00000130,-0.00000414,-0.00000291,0.00002549,0.00005401,0.0
 0010201,-0.00015811,0.00029142,0.00009935,0.00133732,0.00095494,0.0011
 1744,0.00527934,0.00593877,0.01603380,-0.08918331,-0.03631269,-0.08245
 330,0.00011522,-0.00011538,-0.00002949,0.00022958,-0.00026556,-0.00040
 199,0.00051132,0.00012428,0.00025236,-0.00005437,-0.00000265,-0.000077
 91,0.00023081,0.00006839,-0.00003852,0.00000505,-0.00004305,0.00003826
 ,-0.00000083,0.00005118,0.00004262,-0.00002573,0.00000471,0.00001557,0
 .00001110,-0.00000351,0.00001931,0.00003054,0.00013383,-0.00001789,0.0
 0024072,-0.00025968,0.00051307,0.00024450,0.00023317,0.00001938,-0.000
 35881,0.00029582,-0.00021110,0.00000619,0.00000455,0.00000002,-0.00000
 299,-0.00001291,0.00009044,0.00000856,0.00001202,0.00000495,-0.0000021
 8,-0.00000735,0.00000084,-0.00000055,-0.00000278,-0.00000100,0.0000113
 8,-0.00000265,0.00002927,-0.00000489,0.00000633,-0.00000646,0.00000381
 ,0.00000830,0.00000078,-0.00000378,0.00000534,-0.00000007,-0.00000081,
 0.00000492,0.00000230,0.00000299,0.00000164,0.00000950,0.00000310,0.00
 000541,0.00000102,-0.00000127,0.00000290,-0.00000099,0.00000073,0.0000
 0029,0.00000212,0.00000185,0.00000003,-0.00000153,0.00000372,0.0000035
 1,-0.00000346,-0.00000668,-0.00000190,-0.00000391,0.00000171,0.0000028
 8,0.00000862,-0.00000953,-0.00001876,-0.00000726,-0.00004564,-0.000046
 04,-0.00005287,0.00010999,-0.00027082,-0.00037150,0.00029315,0.0000443
 9,-0.00010508,0.00010770,0.00011349,-0.00060077,-0.00117200,-0.0012868
 5,0.00347520,-0.01227844,-0.01241788,-0.02673552,0.09511974,0.00079230
 ,-0.00676191,0.00230650,-0.01500777,-0.01463494,-0.02669460,-0.0015881
 5,0.00106234,-0.00097700,0.00005317,0.00009642,0.00029849,-0.00001550,
 0.00000697,-0.00007532,0.00034572,0.00010668,0.00019036,-0.00046077,0.
 00047239,-0.00244401,-0.00020198,0.00006147,0.00031809,-0.00004239,0.0
 0001761,0.00001154,-0.00000639,-0.00000477,0.00000765,0.00001064,0.000
 01289,-0.00003442,0.00000968,0.00001417,0.00003498,-0.00000384,-0.0000
 0136,-0.00001013,-0.00000423,0.00000264,-0.00000381,0.00000014,0.00000
 253,0.00000351,-0.00000431,-0.00000137,-0.00000184,0.00000116,-0.00000
 024,-0.00000040,0.00000068,-0.00000069,-0.00000174,0.00017644,0.000040
 98,-0.00001837,-0.00001864,-0.00034544,-0.00007380,0.00043820,0.000685
 34,0.00025542,0.00370282,0.00458186,0.01025459,-0.03639069,-0.08502592
 ,-0.07886803,-0.00000283,0.00015051,0.00000031,-0.00122894,-0.00101206
 ,-0.00179125,-0.00006014,0.00019822,0.00023462,0.00024327,0.00018260,-
 0.00003587,0.00090292,0.00003175,0.00064360,0.00004784,-0.00002176,0.0
 0004943,-0.00004118,0.00026456,0.00002353,-0.00000456,0.00001000,0.000
 01083,0.00002687,-0.00002140,0.00006234,0.00008686,0.00029570,-0.00006
 037,0.00037804,-0.00003247,0.00132356,0.00026257,0.00002129,-0.0000286
 4,-0.00019753,-0.00006089,-0.00000169,0.00000213,0.00000225,0.00001576
 ,-0.00001147,0.00000616,0.00005134,0.00000071,0.00000502,0.00000289,0.
 00000185,-0.00000443,0.00000021,0.00000158,-0.00000147,0.00000673,0.00
 000544,-0.00000471,0.00005748,0.00000115,0.00000096,-0.00000182,0.0000
 0358,0.00000698,-0.00000033,0.00000108,0.00000013,-0.00000049,0.000003
 52,0.00000340,-0.00000143,0.00000158,0.00000208,0.00000914,0.00000358,
 0.00000328,0.00000039,-0.00000080,-0.00000016,0.00000020,0.00000011,0.
 00000079,0.00000170,0.00000151,-0.00000007,-0.00000097,0.00000189,0.00
 000058,-0.00000133,-0.00000218,-0.00000153,0.00000007,0.00000013,0.000
 00169,0.00000284,0.00003968,0.00001656,-0.00000550,-0.00010904,-0.0000
 2301,0.00017675,0.00011226,0.00001428,-0.00031612,0.00021867,-0.000020
 47,0.00009967,0.00047951,0.00026129,-0.00048671,-0.00147181,-0.0003964
 8,0.00193902,0.00400755,0.00443819,0.00987587,0.04450830,0.09529498,0.
 00061587,-0.00012171,0.00075155,0.00005989,0.00043939,0.00045664,-0.00
 022858,0.00010702,-0.00025179,0.00026870,-0.00002690,0.00017452,-0.000
 03270,-0.00001141,-0.00003941,0.00012265,0.00000032,0.00037613,0.00100
 775,0.00162453,0.00030491,-0.00014186,-0.00012125,0.00031101,-0.000033
 16,-0.00000102,-0.00002964,0.00000758,-0.00000538,0.00001180,0.0000020
 9,0.00000750,-0.00001300,0.00003536,-0.00008153,-0.00000911,-0.0000221
 4,0.00000875,0.00001536,-0.00000192,-0.00000816,-0.00000165,-0.0000066
 1,-0.00000467,-0.00000319,0.00000261,-0.00000149,0.00000111,-0.0000031
 0,-0.00000146,-0.00000162,-0.00000460,-0.00000291,-0.00000457,-0.00001
 175,0.00000974,-0.00015724,0.00019018,-0.00028958,-0.00004922,-0.00197
 576,-0.00100632,0.00131610,-0.00893299,-0.01002271,-0.02543720,-0.0830
 0350,-0.07932202,-0.21838483,0.00016795,-0.00002131,-0.00000472,-0.000
 07221,0.00017390,-0.00004559,0.00004041,0.00015122,-0.00001674,-0.0000
 2549,0.00019566,0.00010620,0.00048386,-0.00015665,0.00031182,0.0000089
 0,-0.00006013,0.00001284,0.00002586,0.00014715,0.00001949,0.00000586,0
 .00000126,0.00000821,0.00000954,-0.00000492,0.00003291,0.00005230,0.00
 017056,0.00001497,-0.00004885,0.00021239,0.00058273,0.00002849,0.00011
 031,-0.00001097,-0.00016962,-0.00002790,-0.00003717,-0.00001336,-0.000
 00258,0.00001113,0.00000817,-0.00000811,0.00003576,0.00000157,0.000001
 61,0.00000271,-0.00000474,-0.00000085,0.00000484,-0.00000066,-0.000000
 77,-0.00000151,0.00000542,0.00000158,0.00000742,0.00000165,-0.00000111
 ,-0.00000020,0.00000021,-0.00000022,0.00000143,-0.00000045,-0.00000068
 ,0.00000359,-0.00000155,0.00000156,0.00000278,0.00000236,0.00000313,0.
 00000575,0.00000175,0.00000361,0.00000090,-0.00000014,0.00000104,-0.00
 000063,0.00000135,0.00000128,0.00000202,-0.00000025,-0.00000010,0.0000
 0095,0.,0.00000097,0.00000049,0.00000004,-0.00000205,0.00000098,0.0000
 0227,0.00000191,0.00000384,0.00004795,0.00000947,0.00005926,-0.0000556
 7,0.00014608,0.00014380,0.00139585,0.00057894,0.00057237,-0.00022529,0
 .00022505,0.00054907,-0.00022893,0.00034986,0.00033737,0.00263936,0.00
 308841,-0.00346733,-0.00078343,-0.00012488,-0.00140717,0.08878551,0.08
 366657,0.24281973\\-0.00000868,0.00000506,-0.00000493,-0.00003594,-0.0
 0001998,0.00003859,0.00000940,0.00006013,0.00005843,0.00001023,-0.0000
 2168,-0.00000851,0.00001130,0.00001741,0.00000091,0.00001008,0.0000154
 5,-0.00003331,0.00000990,0.00001662,0.00004761,-0.00005760,0.00000891,
 -0.00000879,-0.00000332,0.00002344,0.00000569,-0.00000050,0.00001334,-
 0.00007315,-0.00001838,-0.00000871,-0.00006758,-0.00000278,-0.00002751
 ,0.00004849,-0.00000539,-0.00003265,0.00000409,-0.00000173,0.00000256,
 0.00003845,0.00003772,-0.00001130,0.00001890,-0.00002614,-0.00003509,0
 .00002842,0.00001056,-0.00001379,0.00007690,-0.00001626,0.00002636,-0.
 00000235,0.00000387,-0.00001325,-0.00008192,0.00002678,-0.00005587,-0.
 00002611,-0.00002476,0.00004441,0.00005903,-0.00000619,-0.00002216,-0.
 00004769,-0.00000609,-0.00000142,0.00000526,0.00000782,0.00001191,-0.0
 0001792,0.00001213,0.00001015,0.00000086,0.00002347,-0.00001410,-0.000
 00775,0.00002104,-0.00000487,-0.00002534,-0.00001948,0.00001625,-0.000
 00587,0.00000363,0.00001080,-0.00000079,-0.00000254,0.00001148,0.00000
 094,-0.00001269,-0.00000230,0.00000756,0.00000766,0.00000468,-0.000002
 73,0.00001369,-0.00001297,-0.00002169,-0.00001454,0.00000203,0.0000104
 5,-0.00000742,0.00003052,-0.00001334,0.00001243,0.00001078,-0.00000669
 ,0.00000041,0.00000838,-0.00000483,-0.00000836,-0.00001580,0.00001462,
 0.00000162,0.00000714,-0.00001379,0.00000580,-0.00000483,0.00003119,0.
 00002318,-0.00000424,0.00001339,-0.00001388,-0.00001494,-0.00000349,0.
 00000470,-0.00000154,0.00000526,0.00000607,0.00000879,0.00001628,-0.00
 000289,-0.00000019,-0.00000214,-0.00000231,0.00000138,-0.00001355,0.00
 000324,-0.00000894,-0.00000789,0.00001408,-0.00000045,-0.00001505,0.00
 000573,-0.00000267,-0.00001027,0.00000413,0.00001999,-0.00001190,-0.00
 001068,0.00000518,-0.00001827,0.00000173,-0.00000524,0.00000089,0.0000
 0428,-0.00000897,0.00000342,0.00000643,-0.00000205,0.00000217,-0.00002
 471,-0.00001349,-0.00000568,0.00001104,0.00001409,0.00001122,-0.000009
 29,-0.00000424,-0.00000411,0.00002670,0.00000125,-0.00000052,0.0000008
 2,0.00000235,0.00000469,-0.00000933,-0.00002543,0.00003144,-0.00000126
 ,-0.00001234,-0.00000868,0.00000149,0.00001217,-0.00000853\\\@


 HICKORY, DICKORY, DOCK
 TWO MICE RAN UP THE CLOCK
 THE CLOCK STRUCK ONE...
 THE OTHER ESCAPED WITH MINOR INJURIES.
 Job cpu time:       0 days  0 hours 22 minutes 19.0 seconds.
 Elapsed time:       0 days  0 hours 24 minutes 29.3 seconds.
 File lengths (MBytes):  RWF=   1252 Int=      0 D2E=      0 Chk=     16 Scr=      1
 Normal termination of Gaussian 16 at Thu Feb 22 12:17:54 2024.
