 Entering Gaussian System, Link 0=g16
 Input=/Volumes/SSD-PMU3/b3lyp_6-31gd_freq/YIVQHAYDEKPDMY-KFAAGGNTSA-N_calculating/gaussianinput1.gjf
 Output=/Volumes/SSD-PMU3/b3lyp_6-31gd_freq/YIVQHAYDEKPDMY-KFAAGGNTSA-N_calculating/gaussianinput1.log
 Initial command:
 /Applications/g16/l1.exe "/Users/macmini_m1_2022/PycharmProjects/sphere_model/sphere_model_lib/Gau-64231.inp" -scrdir="/Users/macmini_m1_2022/PycharmProjects/sphere_model/sphere_model_lib/"
 Entering Link 1 = /Applications/g16/l1.exe PID=     64232.
  
 Copyright (c) 1988,1990,1992,1993,1995,1998,2003,2009,2016,
            Gaussian, Inc.  All Rights Reserved.
  
 This is part of the Gaussian(R) 16 program.  It is based on
 the Gaussian(R) 09 system (copyright 2009, Gaussian, Inc.),
 the Gaussian(R) 03 system (copyright 2003, Gaussian, Inc.),
 the Gaussian(R) 98 system (copyright 1998, Gaussian, Inc.),
 the Gaussian(R) 94 system (copyright 1995, Gaussian, Inc.),
 the Gaussian 92(TM) system (copyright 1992, Gaussian, Inc.),
 the Gaussian 90(TM) system (copyright 1990, Gaussian, Inc.),
 the Gaussian 88(TM) system (copyright 1988, Gaussian, Inc.),
 the Gaussian 86(TM) system (copyright 1986, Carnegie Mellon
 University), and the Gaussian 82(TM) system (copyright 1983,
 Carnegie Mellon University). Gaussian is a federally registered
 trademark of Gaussian, Inc.
  
 This software contains proprietary and confidential information,
 including trade secrets, belonging to Gaussian, Inc.
  
 This software is provided under written license and may be
 used, copied, transmitted, or stored only in accord with that
 written license.
  
 The following legend is applicable only to US Government
 contracts under FAR:
  
                    RESTRICTED RIGHTS LEGEND
  
 Use, reproduction and disclosure by the US Government is
 subject to restrictions as set forth in subparagraphs (a)
 and (c) of the Commercial Computer Software - Restricted
 Rights clause in FAR 52.227-19.
  
 Gaussian, Inc.
 340 Quinnipiac St., Bldg. 40, Wallingford CT 06492
  
  
 ---------------------------------------------------------------
 Warning -- This program may not be used in any manner that
 competes with the business of Gaussian, Inc. or will provide
 assistance to any competitor of Gaussian, Inc.  The licensee
 of this program is prohibited from giving any competitor of
 Gaussian, Inc. access to this program.  By using this program,
 the user acknowledges that Gaussian, Inc. is engaged in the
 business of creating and licensing software in the field of
 computational chemistry and represents and warrants to the
 licensee that it is not a competitor of Gaussian, Inc. and that
 it will not use this program in any manner prohibited above.
 ---------------------------------------------------------------
  

 Cite this work as:
 Gaussian 16, Revision A.03,
 M. J. Frisch, G. W. Trucks, H. B. Schlegel, G. E. Scuseria, 
 M. A. Robb, J. R. Cheeseman, G. Scalmani, V. Barone, 
 G. A. Petersson, H. Nakatsuji, X. Li, M. Caricato, A. V. Marenich, 
 J. Bloino, B. G. Janesko, R. Gomperts, B. Mennucci, H. P. Hratchian, 
 J. V. Ortiz, A. F. Izmaylov, J. L. Sonnenberg, D. Williams-Young, 
 F. Ding, F. Lipparini, F. Egidi, J. Goings, B. Peng, A. Petrone, 
 T. Henderson, D. Ranasinghe, V. G. Zakrzewski, J. Gao, N. Rega, 
 G. Zheng, W. Liang, M. Hada, M. Ehara, K. Toyota, R. Fukuda, 
 J. Hasegawa, M. Ishida, T. Nakajima, Y. Honda, O. Kitao, H. Nakai, 
 T. Vreven, K. Throssell, J. A. Montgomery, Jr., J. E. Peralta, 
 F. Ogliaro, M. J. Bearpark, J. J. Heyd, E. N. Brothers, K. N. Kudin, 
 V. N. Staroverov, T. A. Keith, R. Kobayashi, J. Normand, 
 K. Raghavachari, A. P. Rendell, J. C. Burant, S. S. Iyengar, 
 J. Tomasi, M. Cossi, J. M. Millam, M. Klene, C. Adamo, R. Cammi, 
 J. W. Ochterski, R. L. Martin, K. Morokuma, O. Farkas, 
 J. B. Foresman, and D. J. Fox, Gaussian, Inc., Wallingford CT, 2016.
 
 ******************************************
 Gaussian 16:  EM64M-G16RevA.03 25-Dec-2016
                22-Feb-2024 
 ******************************************
 %nprocshared=10
 Will use up to   10 processors via shared memory.
 %mem=12GB
 %chk= 1.chk
 ---------------------
 # freq b3lyp/6-31g(d)
 ---------------------
 1/10=4,30=1,38=1/1,3;
 2/12=2,17=6,18=5,40=1/2;
 3/5=1,6=6,7=1,11=2,25=1,30=1,71=2,74=-5,140=1/1,2,3;
 4//1;
 5/5=2,38=5,98=1/2;
 8/6=4,10=90,11=11/1;
 11/6=1,8=1,9=11,15=111,16=1/1,2,10;
 10/6=1/2;
 6/7=2,8=2,9=2,10=2,28=1/1;
 7/8=1,10=1,25=1/1,2,3,16;
 1/10=4,30=1/3;
 99//99;
 ---------
 good luck
 ---------
 Symbolic Z-matrix:
 Charge =  0 Multiplicity = 1
 C                    -3.89434  -1.42911   0.62329 
 C                    -2.83902  -0.93909   1.64161 
 C                    -1.44023  -1.60168   1.39018 
 C                    -1.46889  -3.12395   1.62436 
 C                    -1.90432  -3.45917   3.05064 
 C                    -3.25704  -2.82839   3.41064 
 C                    -3.28037  -1.30495   3.11726 
 C                    -4.65579  -0.73591   3.53263 
 C                    -5.0054   -1.0567    4.99351 
 C                    -5.01234  -2.57205   5.33149 
 C                    -6.23029  -3.23542   4.66833 
 C                    -3.65899  -3.17903   4.86595 
 C                    -2.65044  -2.76307   5.96577 
 C                    -3.47419  -2.57869   7.26826 
 C                    -4.98284  -2.71338   6.89524 
 C                    -5.67353  -3.95751   7.52771 
 C                    -5.82803  -3.75992   9.04709 
 C                    -5.00648  -5.3154    7.24651 
 C                    -0.78276  -1.30189   0.00941 
 C                     0.        0.        0. 
 C                    -0.76376   1.32162   0.00941 
 C                    -2.27926   1.2543    0.22568 
 C                    -2.73048   0.61285   1.55515 
 O                     1.21822   0.        0. 
 H                    -3.56489  -1.29691  -0.41165 
 H                    -4.82831  -0.86778   0.73067 
 H                    -4.13364  -2.48904   0.74723 
 H                    -0.7647   -1.1895    2.15732 
 H                    -0.46723  -3.53212   1.43971 
 H                    -2.13489  -3.60633   0.89537 
 H                    -1.9542   -4.54805   3.18909 
 H                    -1.13433  -3.09443   3.74486 
 H                    -4.01374  -3.29577   2.76205 
 H                    -2.52717  -0.83328   3.76902 
 H                    -5.43614  -1.13408   2.87231 
 H                    -4.68107   0.3521    3.41044 
 H                    -4.28573  -0.54138   5.64424 
 H                    -5.98879  -0.63087   5.23705 
 H                    -6.24303  -3.06638   3.58651 
 H                    -6.24508  -4.31876   4.82319 
 H                    -7.16714  -2.82789   5.0687 
 H                    -3.75156  -4.27345   4.90034 
 H                    -1.86013  -3.51125   6.08693 
 H                    -2.14639  -1.82713   5.70005 
 H                    -3.18695  -3.31902   8.02139 
 H                    -3.26973  -1.60206   7.71954 
 H                    -5.53418  -1.85569   7.30573 
 H                    -6.69056  -4.0029    7.11496 
 H                    -6.36726  -2.83296   9.27644 
 H                    -4.8547   -3.71085   9.55085 
 H                    -6.38577  -4.59171   9.49382 
 H                    -4.9746   -5.55571   6.17955 
 H                    -5.56252  -6.11829   7.74557 
 H                    -3.97826  -5.35144   7.62605 
 H                    -0.06032  -2.09026  -0.22086 
 H                    -1.53451  -1.30052  -0.78879 
 H                    -0.29272   1.95338   0.77391 
 H                    -0.54201   1.81191  -0.94948 
 H                    -2.76231   0.75755  -0.62459 
 H                    -2.6545    2.28537   0.20752 
 H                    -3.71683   1.02665   1.78728 
 H                    -2.06193   0.96467   2.3559 
 

 GradGradGradGradGradGradGradGradGradGradGradGradGradGradGradGradGradGrad
 Berny optimization.
 Initialization pass.
 Trust Radius=3.00D-01 FncErr=1.00D-07 GrdErr=1.00D-07 EigMax=2.50D+02 EigMin=1.00D-04
 Number of steps in this run=      2 maximum allowed number of steps=      2.
 GradGradGradGradGradGradGradGradGradGradGradGradGradGradGradGradGradGrad

 Stoichiometry    C23H38O
 Framework group  C1[X(C23H38O)]
 Deg. of freedom   180
 Full point group                 C1      NOp   1
 Largest Abelian subgroup         C1      NOp   1
 Largest concise Abelian subgroup C1      NOp   1
                         Standard orientation:                         
 ---------------------------------------------------------------------
 Center     Atomic      Atomic             Coordinates (Angstroms)
 Number     Number       Type             X           Y           Z
 ---------------------------------------------------------------------
      1          6           0       -2.156350    1.084117    1.851208
      2          6           0       -2.049934    0.558007    0.401146
      3          6           0       -2.642853   -0.887192    0.264453
      4          6           0       -1.836963   -1.923506    1.070419
      5          6           0       -0.376644   -1.964219    0.620918
      6          6           0        0.292578   -0.583997    0.687768
      7          6           0       -0.535768    0.496267   -0.056782
      8          6           0        0.212346    1.845971    0.025428
      9          6           0        1.653594    1.749538   -0.496883
     10          6           0        2.528048    0.692744    0.230501
     11          6           0        2.846755    1.186964    1.650849
     12          6           0        1.766082   -0.662187    0.213285
     13          6           0        1.988207   -1.212070   -1.217825
     14          6           0        3.326866   -0.605631   -1.717106
     15          6           0        3.799505    0.433460   -0.653992
     16          6           0        5.119675    0.031723    0.067598
     17          6           0        6.307665    0.140884   -0.906154
     18          6           0        5.126537   -1.351888    0.740991
     19          6           0       -4.158031   -1.036155    0.597167
     20          6           0       -5.055094   -0.718496   -0.586938
     21          6           0       -5.215408    0.735376   -1.023575
     22          6           0       -4.303356    1.771907   -0.358903
     23          6           0       -2.789285    1.543044   -0.553223
     24          8           0       -5.630000   -1.604280   -1.194344
     25          1           0       -3.177975    1.028295    2.238840
     26          1           0       -1.855523    2.135489    1.906450
     27          1           0       -1.522445    0.525589    2.545678
     28          1           0       -2.523491   -1.167376   -0.794789
     29          1           0       -2.291663   -2.912856    0.934622
     30          1           0       -1.902783   -1.701474    2.144677
     31          1           0        0.190845   -2.681497    1.229846
     32          1           0       -0.340207   -2.338764   -0.411674
     33          1           0        0.326746   -0.293103    1.748861
     34          1           0       -0.567505    0.210551   -1.120700
     35          1           0        0.220804    2.202223    1.062980
     36          1           0       -0.306538    2.615831   -0.555436
     37          1           0        1.619424    1.517996   -1.570265
     38          1           0        2.138894    2.732290   -0.417074
     39          1           0        1.935050    1.409252    2.215155
     40          1           0        3.408360    0.446454    2.228845
     41          1           0        3.440661    2.109225    1.622758
     42          1           0        2.274140   -1.342759    0.910561
     43          1           0        2.009453   -2.306837   -1.226479
     44          1           0        1.167495   -0.917572   -1.881420
     45          1           0        4.079025   -1.386521   -1.866341
     46          1           0        3.194737   -0.130554   -2.694916
     47          1           0        4.039540    1.380833   -1.156954
     48          1           0        5.293408    0.777711    0.855048
     49          1           0        6.371953    1.143005   -1.346896
     50          1           0        6.224607   -0.579071   -1.729758
     51          1           0        7.254352   -0.060092   -0.390486
     52          1           0        4.369034   -1.441956    1.525364
     53          1           0        6.102001   -1.539180    1.206057
     54          1           0        4.953975   -2.158429    0.018284
     55          1           0       -4.364885   -2.077089    0.862000
     56          1           0       -4.431102   -0.416312    1.459419
     57          1           0       -5.089376    0.753551   -2.114100
     58          1           0       -6.269548    0.994650   -0.848686
     59          1           0       -4.545085    1.862111    0.707164
     60          1           0       -4.552575    2.748052   -0.793941
     61          1           0       -2.306744    2.520801   -0.457572
     62          1           0       -2.616096    1.223812   -1.592474
 ---------------------------------------------------------------------
 Rotational constants (GHZ):           0.6085398           0.1138518           0.1088051
 Standard basis: 6-31G(d) (6D, 7F)
 There are   436 symmetry adapted cartesian basis functions of A   symmetry.
 There are   436 symmetry adapted basis functions of A   symmetry.
   436 basis functions,   824 primitive gaussians,   436 cartesian basis functions
    92 alpha electrons       92 beta electrons
       nuclear repulsion energy      2299.5813242073 Hartrees.
 NAtoms=   62 NActive=   62 NUniq=   62 SFac= 1.00D+00 NAtFMM=   60 NAOKFM=T Big=T
 Integral buffers will be    131072 words long.
 Raffenetti 2 integral format.
 Two-electron integral symmetry is turned on.
 One-electron integrals computed using PRISM.
 NBasis=   436 RedAO= T EigKep=  1.78D-03  NBF=   436
 NBsUse=   436 1.00D-06 EigRej= -1.00D+00 NBFU=   436
 ExpMin= 1.61D-01 ExpMax= 5.48D+03 ExpMxC= 8.25D+02 IAcc=3 IRadAn=         5 AccDes= 0.00D+00
 Harris functional with IExCor=  402 and IRadAn=       5 diagonalized for initial guess.
 HarFok:  IExCor=  402 AccDes= 0.00D+00 IRadAn=         5 IDoV= 1 UseB2=F ITyADJ=14
 ICtDFT=  3500011 ScaDFX=  1.000000  1.000000  1.000000  1.000000
 FoFCou: FMM=F IPFlag=           0 FMFlag=      100000 FMFlg1=        2001
         NFxFlg=           0 DoJE=T BraDBF=F KetDBF=T FulRan=T
         wScrn=  0.000000 ICntrl=       500 IOpCl=  0 I1Cent=   200000004 NGrid=           0
         NMat0=    1 NMatS0=      1 NMatT0=    0 NMatD0=    1 NMtDS0=    0 NMtDT0=    0
 Petite list used in FoFCou.
 Requested convergence on RMS density matrix=1.00D-08 within 128 cycles.
 Requested convergence on MAX density matrix=1.00D-06.
 Requested convergence on             energy=1.00D-06.
 No special actions if energy rises.
 Integral accuracy reduced to 1.0D-05 until final iterations.
 Initial convergence to 1.0D-05 achieved.  Increase integral accuracy.
 SCF Done:  E(RB3LYP) =  -974.573310219     A.U. after   14 cycles
            NFock= 14  Conv=0.34D-08     -V/T= 2.0099
 DoSCS=F DFT=T ScalE2(SS,OS)=  1.000000  1.000000
 Range of M.O.s used for correlation:     1   436
 NBasis=   436 NAE=    92 NBE=    92 NFC=     0 NFV=     0
 NROrb=    436 NOA=    92 NOB=    92 NVA=   344 NVB=   344
 Symmetrizing basis deriv contribution to polar:
 IMax=3 JMax=2 DiffMx= 0.00D+00
 G2DrvN: will do    63 centers at a time, making    1 passes.
 Calling FoFCou, ICntrl=  3107 FMM=T I1Cent=   0 AccDes= 0.00D+00.
 End of G2Drv F.D. properties file   721 does not exist.
 End of G2Drv F.D. properties file   722 does not exist.
 End of G2Drv F.D. properties file   788 does not exist.
          IDoAtm=11111111111111111111111111111111111111111111111111
          IDoAtm=111111111111
          Differentiating once with respect to electric field.
                with respect to dipole field.
          Differentiating once with respect to nuclear coordinates.
 CalDSu exits because no D1Ps are significant.
          There are   189 degrees of freedom in the 1st order CPHF.  IDoFFX=6 NUNeed=     3.
    187 vectors produced by pass  0 Test12= 3.16D-14 1.00D-09 XBig12= 1.56D+02 1.77D+00.
 AX will form    72 AO Fock derivatives at one time.
    186 vectors produced by pass  1 Test12= 3.16D-14 1.00D-09 XBig12= 1.15D+01 5.04D-01.
    186 vectors produced by pass  2 Test12= 3.16D-14 1.00D-09 XBig12= 8.21D-02 3.00D-02.
    186 vectors produced by pass  3 Test12= 3.16D-14 1.00D-09 XBig12= 1.94D-04 9.56D-04.
    186 vectors produced by pass  4 Test12= 3.16D-14 1.00D-09 XBig12= 1.98D-07 3.45D-05.
     77 vectors produced by pass  5 Test12= 3.16D-14 1.00D-09 XBig12= 1.22D-10 6.74D-07.
      3 vectors produced by pass  6 Test12= 3.16D-14 1.00D-09 XBig12= 7.56D-14 2.47D-08.
 InvSVY:  IOpt=1 It=  1 EMax= 8.88D-15
 Solved reduced A of dimension  1011 with   189 vectors.
 Isotropic polarizability for W=    0.000000      231.19 Bohr**3.
 End of Minotr F.D. properties file   721 does not exist.
 End of Minotr F.D. properties file   722 does not exist.
 End of Minotr F.D. properties file   788 does not exist.

 **********************************************************************

            Population analysis using the SCF density.

 **********************************************************************

 Orbital symmetries:
       Occupied  (A) (A) (A) (A) (A) (A) (A) (A) (A) (A) (A) (A)
                 (A) (A) (A) (A) (A) (A) (A) (A) (A) (A) (A) (A)
                 (A) (A) (A) (A) (A) (A) (A) (A) (A) (A) (A) (A)
                 (A) (A) (A) (A) (A) (A) (A) (A) (A) (A) (A) (A)
                 (A) (A) (A) (A) (A) (A) (A) (A) (A) (A) (A) (A)
                 (A) (A) (A) (A) (A) (A) (A) (A) (A) (A) (A) (A)
                 (A) (A) (A) (A) (A) (A) (A) (A) (A) (A) (A) (A)
                 (A) (A) (A) (A) (A) (A) (A) (A)
       Virtual   (A) (A) (A) (A) (A) (A) (A) (A) (A) (A) (A) (A)
                 (A) (A) (A) (A) (A) (A) (A) (A) (A) (A) (A) (A)
                 (A) (A) (A) (A) (A) (A) (A) (A) (A) (A) (A) (A)
                 (A) (A) (A) (A) (A) (A) (A) (A) (A) (A) (A) (A)
                 (A) (A) (A) (A) (A) (A) (A) (A) (A) (A) (A) (A)
                 (A) (A) (A) (A) (A) (A) (A) (A) (A) (A) (A) (A)
                 (A) (A) (A) (A) (A) (A) (A) (A) (A) (A) (A) (A)
                 (A) (A) (A) (A) (A) (A) (A) (A) (A) (A) (A) (A)
                 (A) (A) (A) (A) (A) (A) (A) (A) (A) (A) (A) (A)
                 (A) (A) (A) (A) (A) (A) (A) (A) (A) (A) (A) (A)
                 (A) (A) (A) (A) (A) (A) (A) (A) (A) (A) (A) (A)
                 (A) (A) (A) (A) (A) (A) (A) (A) (A) (A) (A) (A)
                 (A) (A) (A) (A) (A) (A) (A) (A) (A) (A) (A) (A)
                 (A) (A) (A) (A) (A) (A) (A) (A) (A) (A) (A) (A)
                 (A) (A) (A) (A) (A) (A) (A) (A) (A) (A) (A) (A)
                 (A) (A) (A) (A) (A) (A) (A) (A) (A) (A) (A) (A)
                 (A) (A) (A) (A) (A) (A) (A) (A) (A) (A) (A) (A)
                 (A) (A) (A) (A) (A) (A) (A) (A) (A) (A) (A) (A)
                 (A) (A) (A) (A) (A) (A) (A) (A) (A) (A) (A) (A)
                 (A) (A) (A) (A) (A) (A) (A) (A) (A) (A) (A) (A)
                 (A) (A) (A) (A) (A) (A) (A) (A) (A) (A) (A) (A)
                 (A) (A) (A) (A) (A) (A) (A) (A) (A) (A) (A) (A)
                 (A) (A) (A) (A) (A) (A) (A) (A) (A) (A) (A) (A)
                 (A) (A) (A) (A) (A) (A) (A) (A) (A) (A) (A) (A)
                 (A) (A) (A) (A) (A) (A) (A) (A) (A) (A) (A) (A)
                 (A) (A) (A) (A) (A) (A) (A) (A) (A) (A) (A) (A)
                 (A) (A) (A) (A) (A) (A) (A) (A) (A) (A) (A) (A)
                 (A) (A) (A) (A) (A) (A) (A) (A) (A) (A) (A) (A)
                 (A) (A) (A) (A) (A) (A) (A) (A)
 The electronic state is 1-A.
 Alpha  occ. eigenvalues --  -19.12554 -10.26444 -10.20057 -10.19428 -10.18836
 Alpha  occ. eigenvalues --  -10.18712 -10.18636 -10.18462 -10.18427 -10.18331
 Alpha  occ. eigenvalues --  -10.18206 -10.18130 -10.17881 -10.17795 -10.17691
 Alpha  occ. eigenvalues --  -10.17632 -10.17573 -10.17524 -10.17506 -10.17303
 Alpha  occ. eigenvalues --  -10.17280 -10.17038 -10.17005 -10.16955  -1.02609
 Alpha  occ. eigenvalues --   -0.86146  -0.84103  -0.80330  -0.79041  -0.77668
 Alpha  occ. eigenvalues --   -0.76232  -0.75482  -0.73027  -0.71447  -0.69218
 Alpha  occ. eigenvalues --   -0.68036  -0.67590  -0.66266  -0.65090  -0.62339
 Alpha  occ. eigenvalues --   -0.61101  -0.59012  -0.58289  -0.56364  -0.53226
 Alpha  occ. eigenvalues --   -0.52232  -0.51807  -0.51046  -0.48459  -0.47425
 Alpha  occ. eigenvalues --   -0.47065  -0.46398  -0.45740  -0.44944  -0.44419
 Alpha  occ. eigenvalues --   -0.44005  -0.43583  -0.43071  -0.42222  -0.41282
 Alpha  occ. eigenvalues --   -0.41075  -0.41018  -0.40007  -0.39589  -0.39336
 Alpha  occ. eigenvalues --   -0.38631  -0.38411  -0.37900  -0.37740  -0.37291
 Alpha  occ. eigenvalues --   -0.36515  -0.36176  -0.35735  -0.35013  -0.34719
 Alpha  occ. eigenvalues --   -0.34261  -0.33930  -0.33798  -0.33336  -0.33216
 Alpha  occ. eigenvalues --   -0.32955  -0.32215  -0.31531  -0.31361  -0.30557
 Alpha  occ. eigenvalues --   -0.30166  -0.29703  -0.29618  -0.28987  -0.27065
 Alpha  occ. eigenvalues --   -0.26932  -0.23126
 Alpha virt. eigenvalues --   -0.00809   0.06874   0.07237   0.07928   0.09019
 Alpha virt. eigenvalues --    0.09667   0.10061   0.10703   0.11631   0.11743
 Alpha virt. eigenvalues --    0.12437   0.13087   0.13387   0.13511   0.13960
 Alpha virt. eigenvalues --    0.14896   0.14975   0.15302   0.15536   0.15607
 Alpha virt. eigenvalues --    0.16283   0.16793   0.17053   0.17314   0.17638
 Alpha virt. eigenvalues --    0.17749   0.18318   0.18617   0.19044   0.19327
 Alpha virt. eigenvalues --    0.19972   0.20348   0.20568   0.20698   0.21399
 Alpha virt. eigenvalues --    0.21521   0.21758   0.22235   0.22660   0.23133
 Alpha virt. eigenvalues --    0.23335   0.23712   0.24113   0.24843   0.25117
 Alpha virt. eigenvalues --    0.25706   0.26091   0.26229   0.26742   0.26942
 Alpha virt. eigenvalues --    0.27341   0.28010   0.28506   0.28888   0.29554
 Alpha virt. eigenvalues --    0.30387   0.31366   0.31562   0.32922   0.33092
 Alpha virt. eigenvalues --    0.33345   0.34621   0.35148   0.35706   0.36605
 Alpha virt. eigenvalues --    0.38744   0.49315   0.49383   0.50814   0.51099
 Alpha virt. eigenvalues --    0.51506   0.51881   0.52502   0.52954   0.53175
 Alpha virt. eigenvalues --    0.54267   0.55178   0.55808   0.56815   0.57434
 Alpha virt. eigenvalues --    0.58403   0.59073   0.60325   0.60896   0.62142
 Alpha virt. eigenvalues --    0.62488   0.62911   0.63614   0.64255   0.65181
 Alpha virt. eigenvalues --    0.65524   0.66444   0.67083   0.67296   0.67782
 Alpha virt. eigenvalues --    0.68229   0.69065   0.69889   0.70543   0.71425
 Alpha virt. eigenvalues --    0.71812   0.72696   0.73035   0.73401   0.74192
 Alpha virt. eigenvalues --    0.74463   0.75258   0.76493   0.77101   0.77629
 Alpha virt. eigenvalues --    0.78399   0.78727   0.79771   0.80525   0.81751
 Alpha virt. eigenvalues --    0.82672   0.83685   0.84148   0.84552   0.84972
 Alpha virt. eigenvalues --    0.85198   0.85968   0.86075   0.86952   0.87288
 Alpha virt. eigenvalues --    0.87425   0.87995   0.88399   0.89103   0.89449
 Alpha virt. eigenvalues --    0.89605   0.89879   0.90157   0.90783   0.91048
 Alpha virt. eigenvalues --    0.91868   0.92576   0.93156   0.93792   0.93941
 Alpha virt. eigenvalues --    0.94383   0.94767   0.95235   0.95305   0.95897
 Alpha virt. eigenvalues --    0.96249   0.96924   0.97216   0.97592   0.98238
 Alpha virt. eigenvalues --    0.98810   0.99667   1.00786   1.00890   1.01439
 Alpha virt. eigenvalues --    1.01643   1.02049   1.02423   1.03119   1.03973
 Alpha virt. eigenvalues --    1.05534   1.05573   1.06120   1.07207   1.08093
 Alpha virt. eigenvalues --    1.09411   1.09976   1.10920   1.12723   1.14503
 Alpha virt. eigenvalues --    1.15417   1.17118   1.18429   1.19932   1.21629
 Alpha virt. eigenvalues --    1.22663   1.25126   1.26776   1.27900   1.31231
 Alpha virt. eigenvalues --    1.31757   1.34803   1.36449   1.37889   1.40367
 Alpha virt. eigenvalues --    1.43036   1.44016   1.46652   1.48303   1.48787
 Alpha virt. eigenvalues --    1.50719   1.52473   1.53160   1.55491   1.56561
 Alpha virt. eigenvalues --    1.58396   1.59842   1.61632   1.63266   1.63944
 Alpha virt. eigenvalues --    1.64413   1.65659   1.66961   1.68866   1.70753
 Alpha virt. eigenvalues --    1.71498   1.73233   1.73630   1.74653   1.74751
 Alpha virt. eigenvalues --    1.75792   1.77208   1.78848   1.79146   1.80606
 Alpha virt. eigenvalues --    1.82576   1.83009   1.83382   1.84530   1.85423
 Alpha virt. eigenvalues --    1.85904   1.86947   1.87848   1.88177   1.89720
 Alpha virt. eigenvalues --    1.90335   1.91607   1.92513   1.92811   1.93526
 Alpha virt. eigenvalues --    1.94705   1.95071   1.95402   1.96161   1.96667
 Alpha virt. eigenvalues --    1.98462   1.99132   2.00048   2.00427   2.00693
 Alpha virt. eigenvalues --    2.01626   2.02634   2.02847   2.03164   2.03770
 Alpha virt. eigenvalues --    2.04605   2.05287   2.06655   2.07216   2.08029
 Alpha virt. eigenvalues --    2.08847   2.10008   2.10986   2.12582   2.12774
 Alpha virt. eigenvalues --    2.13337   2.14366   2.14792   2.16912   2.18364
 Alpha virt. eigenvalues --    2.19814   2.20373   2.22807   2.24448   2.24657
 Alpha virt. eigenvalues --    2.26012   2.26643   2.27312   2.28265   2.29579
 Alpha virt. eigenvalues --    2.30550   2.31773   2.32191   2.33202   2.34194
 Alpha virt. eigenvalues --    2.35516   2.38032   2.39044   2.39775   2.41612
 Alpha virt. eigenvalues --    2.42013   2.42644   2.43656   2.45027   2.45997
 Alpha virt. eigenvalues --    2.46980   2.48098   2.49277   2.50876   2.52124
 Alpha virt. eigenvalues --    2.52714   2.54939   2.55545   2.56757   2.57580
 Alpha virt. eigenvalues --    2.58783   2.61060   2.62343   2.63130   2.64123
 Alpha virt. eigenvalues --    2.64694   2.67843   2.68980   2.71364   2.73770
 Alpha virt. eigenvalues --    2.74560   2.75719   2.77844   2.79580   2.80125
 Alpha virt. eigenvalues --    2.83012   2.84642   2.86374   2.87060   2.90621
 Alpha virt. eigenvalues --    2.92335   2.96030   2.99408   3.01428   3.03955
 Alpha virt. eigenvalues --    4.03826   4.08607   4.12189   4.16531   4.21469
 Alpha virt. eigenvalues --    4.23960   4.26071   4.30113   4.30746   4.31807
 Alpha virt. eigenvalues --    4.36638   4.39610   4.41526   4.46100   4.49713
 Alpha virt. eigenvalues --    4.53946   4.58655   4.60832   4.62978   4.70244
 Alpha virt. eigenvalues --    4.72981   4.76820   4.79970   4.83553
          Condensed to atoms (all electrons):
 Mulliken charges:
               1
     1  C   -0.482939
     2  C    0.101891
     3  C   -0.101363
     4  C   -0.275493
     5  C   -0.272001
     6  C   -0.101985
     7  C   -0.094060
     8  C   -0.288538
     9  C   -0.285475
    10  C    0.098868
    11  C   -0.480916
    12  C   -0.095341
    13  C   -0.294544
    14  C   -0.298155
    15  C   -0.084571
    16  C   -0.083725
    17  C   -0.448051
    18  C   -0.455630
    19  C   -0.356236
    20  C    0.443767
    21  C   -0.351186
    22  C   -0.278518
    23  C   -0.279889
    24  O   -0.453593
    25  H    0.142640
    26  H    0.147170
    27  H    0.150456
    28  H    0.127819
    29  H    0.137123
    30  H    0.132166
    31  H    0.127010
    32  H    0.135709
    33  H    0.116311
    34  H    0.111682
    35  H    0.134588
    36  H    0.133316
    37  H    0.131177
    38  H    0.126404
    39  H    0.142886
    40  H    0.145065
    41  H    0.139909
    42  H    0.116506
    43  H    0.136556
    44  H    0.137480
    45  H    0.138838
    46  H    0.135438
    47  H    0.112747
    48  H    0.124854
    49  H    0.138438
    50  H    0.142929
    51  H    0.138588
    52  H    0.148341
    53  H    0.139603
    54  H    0.141884
    55  H    0.159970
    56  H    0.145881
    57  H    0.167697
    58  H    0.167938
    59  H    0.138091
    60  H    0.139873
    61  H    0.137775
    62  H    0.126824
 Sum of Mulliken charges =  -0.00000
 Mulliken charges with hydrogens summed into heavy atoms:
               1
     1  C   -0.042673
     2  C    0.101891
     3  C    0.026455
     4  C   -0.006204
     5  C   -0.009282
     6  C    0.014327
     7  C    0.017623
     8  C   -0.020634
     9  C   -0.027894
    10  C    0.098868
    11  C   -0.053057
    12  C    0.021165
    13  C   -0.020508
    14  C   -0.023879
    15  C    0.028176
    16  C    0.041129
    17  C   -0.028097
    18  C   -0.025801
    19  C   -0.050385
    20  C    0.443767
    21  C   -0.015550
    22  C   -0.000554
    23  C   -0.015291
    24  O   -0.453593
 APT charges:
               1
     1  C   -0.008428
     2  C    0.096479
     3  C    0.103592
     4  C    0.104763
     5  C    0.090551
     6  C    0.074939
     7  C    0.046263
     8  C    0.058788
     9  C    0.102989
    10  C    0.061034
    11  C    0.038664
    12  C    0.081562
    13  C    0.059460
    14  C    0.067857
    15  C    0.078757
    16  C    0.126148
    17  C    0.066849
    18  C    0.036608
    19  C   -0.123019
    20  C    0.760735
    21  C   -0.023129
    22  C    0.113562
    23  C    0.056664
    24  O   -0.671959
    25  H   -0.021309
    26  H   -0.007742
    27  H   -0.004655
    28  H   -0.049060
    29  H   -0.062448
    30  H   -0.041870
    31  H   -0.063412
    32  H   -0.031465
    33  H   -0.056659
    34  H   -0.048360
    35  H   -0.027778
    36  H   -0.051618
    37  H   -0.039724
    38  H   -0.067699
    39  H   -0.020922
    40  H   -0.018615
    41  H   -0.028775
    42  H   -0.070560
    43  H   -0.039833
    44  H   -0.034434
    45  H   -0.037662
    46  H   -0.049133
    47  H   -0.075609
    48  H   -0.065619
    49  H   -0.026834
    50  H   -0.017040
    51  H   -0.047281
    52  H   -0.019260
    53  H   -0.040544
    54  H   -0.012045
    55  H   -0.021338
    56  H    0.005034
    57  H   -0.013862
    58  H   -0.025105
    59  H   -0.029907
    60  H   -0.061345
    61  H   -0.035651
    62  H   -0.039591
 Sum of APT charges =   0.00000
 APT charges with hydrogens summed into heavy atoms:
               1
     1  C   -0.042135
     2  C    0.096479
     3  C    0.054531
     4  C    0.000446
     5  C   -0.004326
     6  C    0.018279
     7  C   -0.002098
     8  C   -0.020608
     9  C   -0.004433
    10  C    0.061034
    11  C   -0.029647
    12  C    0.011002
    13  C   -0.014808
    14  C   -0.018938
    15  C    0.003148
    16  C    0.060529
    17  C   -0.024305
    18  C   -0.035241
    19  C   -0.139323
    20  C    0.760735
    21  C   -0.062095
    22  C    0.022309
    23  C   -0.018577
    24  O   -0.671959
 Electronic spatial extent (au):  <R**2>=          10462.0003
 Charge=             -0.0000 electrons
 Dipole moment (field-independent basis, Debye):
    X=              1.9763    Y=              2.1789    Z=              1.3647  Tot=              3.2428
 Quadrupole moment (field-independent basis, Debye-Ang):
   XX=           -167.2425   YY=           -153.6508   ZZ=           -152.1444
   XY=            -13.5186   XZ=             -7.6267   YZ=             -3.9678
 Traceless Quadrupole moment (field-independent basis, Debye-Ang):
   XX=             -9.5633   YY=              4.0284   ZZ=              5.5348
   XY=            -13.5186   XZ=             -7.6267   YZ=             -3.9678
 Octapole moment (field-independent basis, Debye-Ang**2):
  XXX=             81.5895  YYY=              2.2373  ZZZ=             -4.6976  XYY=             12.6750
  XXY=             79.3298  XXZ=             52.6023  XZZ=             -1.8422  YZZ=              2.0539
  YYZ=              3.0942  XYZ=             21.7712
 Hexadecapole moment (field-independent basis, Debye-Ang**3):
 XXXX=         -12149.0277 YYYY=          -1672.3793 ZZZZ=          -1118.4938 XXXY=           -456.8057
 XXXZ=           -227.8880 YYYX=             -3.7670 YYYZ=             -4.6306 ZZZX=             19.0685
 ZZZY=             -6.2709 XXYY=          -2302.6940 XXZZ=          -2155.5435 YYZZ=           -474.4054
 XXYZ=           -120.5676 YYXZ=            -27.1189 ZZXY=            -18.7925
 N-N= 2.299581324207D+03 E-N=-6.855092910817D+03  KE= 9.650113456119D+02
  Exact polarizability: 285.638  -0.185 213.317   4.293  -0.963 194.628
 Approx polarizability: 331.375   4.139 327.485   8.061   5.960 321.435
 Calling FoFJK, ICntrl=    100127 FMM=F ISym2X=0 I1Cent= 0 IOpClX= 0 NMat=1 NMatS=1 NMatT=0.
 Full mass-weighted force constant matrix:
 Low frequencies ---   -5.2862   -0.0007   -0.0007    0.0007    1.7851    4.8977
 Low frequencies ---   23.6780   33.1941   53.4905
 Diagonal vibrational polarizability:
      102.6645104       7.1572418      92.8676639
 Harmonic frequencies (cm**-1), IR intensities (KM/Mole), Raman scattering
 activities (A**4/AMU), depolarization ratios for plane and unpolarized
 incident light, reduced masses (AMU), force constants (mDyne/A),
 and normal coordinates:
                      1                      2                      3
                      A                      A                      A
 Frequencies --     23.5505                33.1712                53.4864
 Red. masses --      6.0106                 3.2267                 3.1207
 Frc consts  --      0.0020                 0.0021                 0.0053
 IR Inten    --      3.3665                 0.7051                 0.1005
  Atom  AN      X      Y      Z        X      Y      Z        X      Y      Z
     1   6    -0.03   0.03   0.02     0.05  -0.05   0.01    -0.03  -0.02   0.04
     2   6    -0.02  -0.00   0.03    -0.00  -0.02  -0.01    -0.01   0.00   0.03
     3   6     0.01  -0.01   0.06    -0.01  -0.02  -0.01    -0.02   0.01   0.00
     4   6    -0.01   0.03   0.13    -0.01  -0.03  -0.03    -0.05  -0.00   0.01
     5   6    -0.00   0.02   0.15    -0.01  -0.03  -0.05    -0.04  -0.02   0.04
     6   6    -0.01   0.03   0.08    -0.01  -0.03  -0.05    -0.02  -0.03   0.05
     7   6    -0.01   0.00   0.05    -0.02  -0.03  -0.06    -0.00  -0.01   0.06
     8   6    -0.02   0.01   0.03    -0.01  -0.03  -0.11     0.01  -0.02   0.08
     9   6    -0.03   0.00   0.01    -0.01  -0.05  -0.10    -0.01  -0.03   0.05
    10   6    -0.01   0.01   0.00    -0.02  -0.02  -0.05    -0.00  -0.05   0.02
    11   6     0.04   0.04  -0.02    -0.06   0.02  -0.05     0.04  -0.06   0.01
    12   6    -0.01   0.01   0.05    -0.01  -0.02  -0.04    -0.02  -0.04   0.03
    13   6    -0.04  -0.04   0.07     0.01  -0.03  -0.03    -0.05  -0.04   0.03
    14   6    -0.09  -0.00  -0.01     0.08  -0.11   0.04    -0.01  -0.14   0.05
    15   6    -0.04  -0.01  -0.03     0.01  -0.03  -0.01    -0.03  -0.04  -0.03
    16   6    -0.03  -0.03  -0.07     0.01   0.07   0.05     0.04   0.09  -0.07
    17   6    -0.05  -0.05  -0.10     0.03   0.04   0.06    -0.02   0.11  -0.15
    18   6    -0.03  -0.03  -0.07     0.05   0.11   0.14     0.17   0.13   0.01
    19   6    -0.01  -0.02  -0.03    -0.01  -0.01   0.01    -0.03   0.02  -0.04
    20   6     0.10   0.00  -0.11    -0.01   0.05   0.02    -0.01   0.02  -0.05
    21   6    -0.06   0.04   0.08    -0.08   0.08   0.15     0.06   0.01  -0.11
    22   6    -0.01   0.01   0.06    -0.01   0.03   0.13     0.02   0.01  -0.04
    23   6    -0.03  -0.03   0.00    -0.03   0.00   0.04     0.03   0.03   0.03
    24   8     0.34  -0.01  -0.32     0.05   0.07  -0.06    -0.04   0.03  -0.03
    25   1    -0.02  -0.05   0.05     0.06  -0.06   0.04    -0.05   0.02   0.00
    26   1    -0.12   0.06  -0.02     0.04  -0.04   0.01     0.01  -0.03   0.07
    27   1     0.04   0.10   0.02     0.08  -0.05  -0.02    -0.08  -0.06   0.05
    28   1     0.07  -0.05   0.07    -0.03  -0.01  -0.02     0.00   0.02   0.00
    29   1     0.00   0.02   0.17    -0.01  -0.03  -0.04    -0.05   0.00  -0.01
    30   1    -0.02   0.09   0.12     0.01  -0.04  -0.03    -0.07  -0.01   0.01
    31   1     0.00   0.06   0.19    -0.00  -0.03  -0.06    -0.06  -0.03   0.05
    32   1     0.01  -0.04   0.17    -0.02  -0.02  -0.05    -0.02  -0.02   0.04
    33   1     0.01   0.07   0.06    -0.01  -0.02  -0.05    -0.01  -0.03   0.05
    34   1    -0.00  -0.01   0.05    -0.05  -0.06  -0.05     0.01   0.00   0.06
    35   1    -0.00   0.01   0.03    -0.02   0.02  -0.13     0.03  -0.04   0.09
    36   1    -0.03   0.01   0.04    -0.01  -0.06  -0.15     0.01  -0.00   0.11
    37   1    -0.05  -0.01   0.01     0.00  -0.09  -0.09    -0.03  -0.02   0.05
    38   1    -0.03   0.00  -0.01    -0.01  -0.04  -0.13     0.01  -0.04   0.04
    39   1     0.06   0.06   0.00    -0.08   0.02  -0.08     0.05  -0.08   0.04
    40   1     0.05   0.04  -0.02    -0.06   0.05  -0.02     0.06  -0.06  -0.01
    41   1     0.04   0.03  -0.06    -0.08   0.03  -0.06     0.02  -0.05   0.01
    42   1    -0.00   0.03   0.07    -0.00  -0.02  -0.03    -0.01  -0.05   0.02
    43   1     0.01  -0.04   0.12    -0.06  -0.03  -0.05    -0.14  -0.04   0.00
    44   1    -0.08  -0.11   0.08     0.06   0.05  -0.06    -0.03   0.05   0.03
    45   1    -0.08   0.02  -0.08     0.07  -0.15   0.19    -0.03  -0.18   0.19
    46   1    -0.17   0.01   0.00     0.19  -0.21  -0.02     0.08  -0.24  -0.01
    47   1    -0.04  -0.02  -0.04    -0.01  -0.05  -0.06    -0.11  -0.06  -0.10
    48   1     0.01  -0.03  -0.07    -0.03   0.13  -0.00     0.03   0.15  -0.13
    49   1    -0.05  -0.05  -0.10     0.01   0.01  -0.00    -0.11   0.10  -0.19
    50   1    -0.08  -0.05  -0.10     0.06  -0.02   0.11    -0.03   0.07  -0.11
    51   1    -0.04  -0.06  -0.13     0.02   0.10   0.09     0.02   0.19  -0.19
    52   1     0.00  -0.01  -0.04     0.01   0.13   0.11     0.15   0.10  -0.01
    53   1    -0.01  -0.06  -0.11     0.03   0.20   0.21     0.17   0.26   0.04
    54   1    -0.08  -0.03  -0.07     0.13   0.05   0.19     0.27   0.07   0.05
    55   1    -0.02  -0.02  -0.07    -0.02  -0.02  -0.03    -0.04   0.02  -0.04
    56   1    -0.06  -0.03  -0.04     0.01  -0.04   0.04    -0.05   0.02  -0.05
    57   1    -0.25   0.17   0.06    -0.20   0.16   0.14     0.17  -0.01  -0.09
    58   1    -0.05  -0.04   0.30    -0.06   0.06   0.29     0.05   0.04  -0.22
    59   1     0.03  -0.01   0.07     0.05   0.01   0.15    -0.04  -0.00  -0.05
    60   1    -0.01   0.02   0.09    -0.02   0.06   0.18     0.04   0.02  -0.05
    61   1     0.00  -0.04  -0.06    -0.00  -0.01   0.02     0.02   0.03   0.09
    62   1    -0.07  -0.09   0.01    -0.09   0.01   0.03     0.08   0.06   0.03
                      4                      5                      6
                      A                      A                      A
 Frequencies --     68.1491                78.8904                96.9827
 Red. masses --      2.6173                 2.9580                 2.6665
 Frc consts  --      0.0072                 0.0108                 0.0148
 IR Inten    --      0.3504                 0.4475                 0.4365
  Atom  AN      X      Y      Z        X      Y      Z        X      Y      Z
     1   6     0.02  -0.10   0.09     0.02   0.02   0.06     0.04   0.01   0.04
     2   6     0.01  -0.00   0.05    -0.00   0.04   0.05    -0.00   0.02   0.04
     3   6     0.01  -0.00  -0.03    -0.01   0.04   0.05    -0.03   0.04   0.04
     4   6     0.01  -0.03  -0.06     0.00   0.02   0.01    -0.03   0.01   0.02
     5   6     0.03   0.01   0.01    -0.02   0.02  -0.05    -0.04  -0.00  -0.01
     6   6     0.01   0.03   0.03    -0.01   0.01  -0.03    -0.02  -0.01  -0.01
     7   6    -0.00   0.01   0.02    -0.01   0.04   0.02    -0.02  -0.01  -0.01
     8   6    -0.01   0.01  -0.05     0.00   0.03   0.02    -0.01  -0.01  -0.08
     9   6    -0.02  -0.00  -0.07     0.01   0.03   0.01    -0.01  -0.05  -0.07
    10   6    -0.00   0.04  -0.03    -0.01  -0.01  -0.03    -0.02  -0.03  -0.02
    11   6     0.01   0.13  -0.06    -0.02  -0.06  -0.01    -0.06  -0.01  -0.02
    12   6     0.02   0.03   0.05    -0.03   0.01  -0.09    -0.01  -0.03  -0.01
    13   6     0.02  -0.05   0.08    -0.09   0.12  -0.14     0.02  -0.07   0.01
    14   6    -0.03   0.00  -0.00     0.03  -0.03  -0.02    -0.00  -0.01  -0.01
    15   6    -0.01   0.01  -0.02     0.00  -0.02  -0.02    -0.01  -0.02   0.00
    16   6    -0.02  -0.01  -0.01    -0.01  -0.01   0.01    -0.02  -0.02   0.03
    17   6    -0.02  -0.10  -0.02    -0.01  -0.11   0.01     0.02   0.19   0.11
    18   6    -0.07   0.01   0.04    -0.05   0.03   0.10     0.03  -0.09  -0.12
    19   6     0.01  -0.04  -0.06    -0.00   0.04   0.06    -0.03   0.06   0.06
    20   6     0.01  -0.01  -0.05     0.05  -0.05   0.00     0.03   0.00   0.00
    21   6     0.08  -0.01  -0.07     0.06  -0.07  -0.07     0.06  -0.02  -0.06
    22   6    -0.01  -0.01   0.06    -0.04  -0.03  -0.01    -0.01   0.01  -0.00
    23   6     0.01   0.08   0.13    -0.01   0.06   0.07     0.00   0.06   0.07
    24   8    -0.05   0.02  -0.02     0.13  -0.10  -0.01     0.09  -0.03  -0.00
    25   1    -0.01  -0.02   0.04     0.01   0.08   0.05     0.03   0.11   0.03
    26   1     0.13  -0.14   0.17     0.08   0.00   0.08     0.14  -0.02   0.07
    27   1    -0.07  -0.22   0.07    -0.02  -0.03   0.06    -0.02  -0.06   0.04
    28   1     0.04   0.05  -0.04    -0.02   0.06   0.04    -0.05   0.04   0.04
    29   1     0.03  -0.03  -0.13    -0.01   0.03   0.01    -0.05   0.02   0.01
    30   1    -0.05  -0.09  -0.05     0.05   0.01   0.02    -0.01   0.00   0.02
    31   1     0.02   0.02   0.03     0.00  -0.00  -0.09    -0.04  -0.01  -0.02
    32   1     0.08   0.02   0.01    -0.06   0.05  -0.06    -0.06  -0.00  -0.01
    33   1    -0.00   0.03   0.03     0.03  -0.02  -0.03    -0.01  -0.01  -0.02
    34   1    -0.02  -0.03   0.03    -0.05   0.06   0.01    -0.06  -0.04  -0.01
    35   1     0.00   0.07  -0.07     0.02   0.03   0.02    -0.01   0.05  -0.10
    36   1    -0.03  -0.02  -0.09     0.00   0.04   0.02    -0.00  -0.05  -0.13
    37   1    -0.04  -0.06  -0.06     0.00   0.06  -0.00    -0.00  -0.09  -0.06
    38   1    -0.03   0.01  -0.14     0.02   0.02   0.04    -0.00  -0.05  -0.10
    39   1     0.01   0.15  -0.06    -0.03  -0.05  -0.02    -0.07  -0.01  -0.04
    40   1     0.03   0.17  -0.03    -0.05  -0.08  -0.01    -0.07  -0.01  -0.01
    41   1    -0.00   0.13  -0.12    -0.00  -0.07   0.03    -0.06  -0.01  -0.01
    42   1     0.02   0.08   0.09    -0.02  -0.06  -0.16    -0.02  -0.01   0.02
    43   1     0.10  -0.05   0.16    -0.27   0.12  -0.27     0.08  -0.07   0.05
    44   1    -0.01  -0.16   0.08    -0.02   0.34  -0.13     0.01  -0.13  -0.01
    45   1    -0.01   0.03  -0.06    -0.04  -0.12   0.14     0.02   0.02  -0.06
    46   1    -0.11   0.01   0.02     0.20  -0.09  -0.07    -0.05   0.01   0.01
    47   1     0.02  -0.00  -0.04     0.01  -0.02  -0.02    -0.01  -0.02   0.01
    48   1     0.01   0.01  -0.04     0.01   0.03  -0.03    -0.12  -0.09   0.13
    49   1     0.01  -0.12  -0.08     0.02  -0.15  -0.07     0.01   0.26   0.29
    50   1    -0.03  -0.14   0.02    -0.02  -0.17   0.06     0.09   0.32  -0.01
    51   1    -0.02  -0.09  -0.01    -0.01  -0.09   0.03     0.01   0.14   0.13
    52   1    -0.03   0.09   0.08    -0.06   0.08   0.09    -0.03  -0.23  -0.20
    53   1    -0.06  -0.03  -0.00    -0.06   0.04   0.12     0.00  -0.07  -0.06
    54   1    -0.15  -0.00   0.07    -0.05  -0.01   0.14     0.15  -0.02  -0.22
    55   1     0.02  -0.05  -0.09     0.01   0.06   0.13    -0.04   0.08   0.12
    56   1    -0.00  -0.07  -0.04    -0.02   0.10   0.01    -0.03   0.13   0.01
    57   1     0.25  -0.00  -0.05     0.17  -0.10  -0.06     0.16  -0.05  -0.05
    58   1     0.06  -0.00  -0.24     0.03  -0.09  -0.19     0.04  -0.02  -0.17
    59   1    -0.08  -0.10   0.06    -0.10  -0.05  -0.02    -0.07  -0.01  -0.01
    60   1    -0.03   0.01   0.12    -0.06  -0.04  -0.02    -0.02   0.00  -0.00
    61   1    -0.04   0.09   0.29    -0.06   0.08   0.15    -0.03   0.07   0.16
    62   1     0.08   0.22   0.10     0.06   0.12   0.06     0.06   0.14   0.06
                      7                      8                      9
                      A                      A                      A
 Frequencies --    124.8583               145.6995               169.9608
 Red. masses --      2.8304                 3.4111                 2.7060
 Frc consts  --      0.0260                 0.0427                 0.0461
 IR Inten    --      0.6871                 0.0660                 0.0454
  Atom  AN      X      Y      Z        X      Y      Z        X      Y      Z
     1   6     0.00  -0.03   0.01     0.05  -0.02   0.01    -0.06  -0.01   0.02
     2   6     0.01  -0.02   0.01     0.03  -0.06   0.02     0.00  -0.02   0.03
     3   6     0.04  -0.04   0.01    -0.00  -0.04   0.06     0.02  -0.02   0.00
     4   6     0.02   0.04   0.14    -0.01  -0.04   0.08     0.03  -0.04  -0.03
     5   6     0.03   0.02   0.19    -0.01  -0.09   0.04     0.02  -0.02  -0.05
     6   6     0.03   0.03   0.03     0.02  -0.09  -0.00     0.01  -0.02   0.03
     7   6     0.00  -0.02   0.00     0.01  -0.10   0.01     0.01   0.02   0.09
     8   6    -0.01  -0.00  -0.05    -0.03  -0.08  -0.01     0.01   0.01   0.16
     9   6     0.01   0.01  -0.03    -0.05  -0.04  -0.01    -0.05   0.02  -0.02
    10   6     0.00   0.00  -0.03    -0.05  -0.02  -0.01    -0.00   0.02  -0.07
    11   6    -0.01  -0.02  -0.02    -0.11  -0.02   0.01     0.07   0.08  -0.11
    12   6    -0.01   0.01  -0.06     0.01  -0.06  -0.04    -0.00   0.01  -0.01
    13   6    -0.07   0.10  -0.10     0.03  -0.00  -0.06    -0.05  -0.01  -0.01
    14   6     0.02  -0.01  -0.02    -0.03   0.13  -0.07    -0.02  -0.09  -0.03
    15   6     0.01  -0.01  -0.02    -0.04   0.07  -0.00    -0.03  -0.02  -0.09
    16   6    -0.01  -0.02   0.02    -0.05   0.07  -0.00    -0.07   0.01  -0.00
    17   6     0.03   0.04   0.07    -0.06  -0.00  -0.01     0.03   0.05   0.13
    18   6    -0.01  -0.04  -0.03    -0.10   0.10   0.05    -0.10   0.00  -0.00
    19   6     0.02  -0.08  -0.10    -0.01   0.05   0.05     0.02  -0.01   0.01
    20   6    -0.01   0.00  -0.06     0.04   0.07   0.01     0.02   0.02   0.02
    21   6     0.03   0.02  -0.03     0.11   0.06  -0.05     0.01   0.02   0.02
    22   6     0.01  -0.02   0.04     0.12   0.05  -0.06     0.06   0.03  -0.06
    23   6     0.01  -0.02   0.02     0.10  -0.05  -0.02     0.05  -0.05  -0.04
    24   8    -0.13   0.06  -0.03     0.03   0.08   0.01     0.01   0.02   0.01
    25   1     0.02  -0.16   0.06     0.06  -0.02   0.02    -0.09   0.05  -0.04
    26   1    -0.14   0.01  -0.01     0.04  -0.02  -0.02    -0.01  -0.02   0.03
    27   1     0.10   0.07  -0.01     0.07  -0.00   0.01    -0.13  -0.04   0.05
    28   1     0.12  -0.08   0.04    -0.01  -0.08   0.07     0.01   0.01  -0.00
    29   1     0.04   0.02   0.21    -0.03  -0.03   0.13     0.03  -0.04  -0.07
    30   1    -0.03   0.14   0.12     0.03  -0.00   0.07     0.03  -0.09  -0.02
    31   1     0.03   0.10   0.29    -0.01  -0.08   0.05     0.03  -0.05  -0.10
    32   1     0.07  -0.12   0.24    -0.04  -0.11   0.05     0.01   0.05  -0.07
    33   1     0.10   0.11   0.01     0.05  -0.09  -0.00     0.02  -0.07   0.05
    34   1    -0.01  -0.05   0.01     0.00  -0.11   0.01     0.05   0.08   0.07
    35   1    -0.03   0.04  -0.06    -0.04  -0.07  -0.02     0.13  -0.10   0.20
    36   1    -0.01  -0.03  -0.09    -0.05  -0.10  -0.01    -0.04   0.08   0.30
    37   1     0.03   0.03  -0.03    -0.05  -0.05  -0.01    -0.17   0.00  -0.01
    38   1    -0.00   0.01  -0.00    -0.06  -0.04  -0.02    -0.03   0.01  -0.08
    39   1    -0.01   0.04  -0.05    -0.13  -0.10  -0.00     0.11   0.10  -0.07
    40   1    -0.06  -0.04  -0.01    -0.06   0.01   0.01     0.10   0.11  -0.10
    41   1     0.04  -0.05  -0.01    -0.18   0.03   0.04     0.07   0.08  -0.19
    42   1     0.03  -0.03  -0.13     0.04  -0.05  -0.06     0.03   0.03  -0.02
    43   1    -0.20   0.10  -0.21     0.13  -0.00  -0.08    -0.12  -0.01  -0.00
    44   1    -0.02   0.27  -0.08    -0.01  -0.07  -0.04    -0.04   0.04   0.00
    45   1    -0.03  -0.08   0.08     0.02   0.19  -0.17    -0.04  -0.12   0.06
    46   1     0.13  -0.05  -0.05    -0.11   0.21  -0.02     0.01  -0.17  -0.07
    47   1     0.03  -0.01  -0.01    -0.06   0.10   0.05    -0.02  -0.05  -0.14
    48   1    -0.05  -0.05   0.05    -0.03   0.10  -0.04    -0.15   0.00   0.02
    49   1     0.05   0.07   0.15    -0.08  -0.05  -0.12     0.08   0.08   0.19
    50   1     0.06   0.10   0.02    -0.04  -0.09   0.06     0.12   0.09   0.08
    51   1     0.01   0.00   0.10    -0.05   0.07   0.01    -0.03   0.03   0.22
    52   1    -0.06  -0.10  -0.08    -0.02   0.20   0.14    -0.20  -0.03  -0.10
    53   1    -0.03  -0.03   0.02    -0.07   0.03  -0.05    -0.15   0.04   0.12
    54   1     0.06  -0.03  -0.07    -0.26   0.09   0.10     0.03  -0.00  -0.03
    55   1     0.03  -0.11  -0.19    -0.08   0.07   0.08     0.01  -0.01  -0.01
    56   1    -0.03  -0.17  -0.04     0.01   0.09   0.03     0.03  -0.02   0.02
    57   1     0.09   0.05  -0.02     0.15   0.01  -0.04    -0.06  -0.00   0.01
    58   1     0.02   0.02  -0.08     0.11   0.10  -0.10     0.03   0.03   0.08
    59   1     0.01  -0.09   0.05     0.10   0.11  -0.07     0.06   0.12  -0.07
    60   1     0.01   0.01   0.11     0.18   0.04  -0.12     0.10   0.00  -0.13
    61   1     0.01  -0.02   0.02     0.15  -0.07  -0.03     0.08  -0.06  -0.10
    62   1    -0.01  -0.01   0.02     0.11  -0.09  -0.01     0.04  -0.13  -0.01
                     10                     11                     12
                      A                      A                      A
 Frequencies --    180.2547               205.8078               212.7397
 Red. masses --      1.8399                 2.3892                 2.0120
 Frc consts  --      0.0352                 0.0596                 0.0537
 IR Inten    --      0.0337                 0.0990                 0.0467
  Atom  AN      X      Y      Z        X      Y      Z        X      Y      Z
     1   6    -0.02  -0.06  -0.01    -0.08  -0.02   0.03    -0.01   0.02   0.03
     2   6     0.00  -0.03  -0.01    -0.05  -0.01   0.03    -0.02  -0.02   0.04
     3   6    -0.00  -0.03  -0.02    -0.06  -0.00   0.04    -0.04  -0.01   0.05
     4   6    -0.01  -0.06  -0.06    -0.05   0.02   0.06    -0.02  -0.02   0.02
     5   6     0.03  -0.01   0.04    -0.03  -0.01   0.05    -0.04  -0.03  -0.09
     6   6    -0.00   0.01   0.05     0.01  -0.02  -0.00    -0.01  -0.04   0.00
     7   6     0.00  -0.03   0.00    -0.03  -0.02   0.03    -0.02  -0.04   0.03
     8   6    -0.02  -0.01  -0.08     0.01  -0.04   0.03    -0.02  -0.04   0.01
     9   6     0.01  -0.00  -0.01    -0.00  -0.03  -0.01    -0.03  -0.03  -0.03
    10   6    -0.00   0.02   0.03     0.04  -0.01  -0.02     0.01   0.03   0.02
    11   6    -0.01   0.06   0.02     0.07   0.01  -0.04     0.02   0.15  -0.03
    12   6    -0.01   0.03   0.03     0.04  -0.02  -0.03     0.01   0.01   0.02
    13   6    -0.07   0.10  -0.01     0.08   0.01  -0.05     0.01   0.08  -0.00
    14   6    -0.01   0.00   0.04     0.06   0.08  -0.06     0.05   0.02   0.04
    15   6    -0.00  -0.00   0.04     0.07   0.03  -0.02     0.04   0.01   0.05
    16   6     0.01  -0.02   0.01     0.07   0.01  -0.01     0.05  -0.03   0.02
    17   6    -0.03   0.00  -0.04     0.12  -0.04   0.04     0.01  -0.02  -0.04
    18   6     0.03  -0.05  -0.03     0.05   0.01   0.00     0.06  -0.05  -0.02
    19   6     0.01   0.01   0.03    -0.08   0.02   0.01    -0.06   0.01   0.03
    20   6     0.01   0.02   0.03    -0.06   0.01  -0.02    -0.02   0.01  -0.01
    21   6    -0.01   0.02   0.03    -0.08   0.01  -0.01     0.02   0.01  -0.04
    22   6     0.04   0.03  -0.06    -0.06   0.01  -0.04     0.01  -0.01  -0.00
    23   6     0.03  -0.02  -0.02    -0.05  -0.00   0.02     0.00  -0.04   0.00
    24   8     0.04   0.01   0.02    -0.02  -0.00  -0.04    -0.01   0.02  -0.03
    25   1    -0.10   0.27  -0.16    -0.15   0.31  -0.12     0.06  -0.28   0.16
    26   1     0.32  -0.17   0.09     0.26  -0.12   0.11    -0.33   0.12  -0.07
    27   1    -0.31  -0.31   0.06    -0.36  -0.25   0.11     0.25   0.26  -0.02
    28   1    -0.03  -0.01  -0.03    -0.05  -0.02   0.04    -0.05  -0.01   0.05
    29   1     0.02  -0.06  -0.15    -0.04   0.01   0.08    -0.04  -0.01   0.07
    30   1    -0.08  -0.14  -0.04    -0.04   0.03   0.05     0.07   0.00   0.02
    31   1     0.01   0.01   0.08    -0.05  -0.00   0.08    -0.02  -0.11  -0.20
    32   1     0.10  -0.02   0.05    -0.04  -0.05   0.06    -0.13   0.07  -0.13
    33   1    -0.01   0.03   0.05     0.05  -0.00  -0.01    -0.03  -0.10   0.02
    34   1     0.00  -0.09   0.02    -0.04  -0.01   0.02    -0.04  -0.04   0.03
    35   1    -0.06   0.07  -0.11     0.05  -0.06   0.04     0.00  -0.03   0.01
    36   1    -0.01  -0.07  -0.16     0.00  -0.01   0.07    -0.03  -0.04   0.02
    37   1     0.06  -0.01  -0.01    -0.03  -0.06  -0.01    -0.05  -0.09  -0.02
    38   1    -0.01   0.01  -0.00    -0.02  -0.02  -0.05    -0.05  -0.01  -0.10
    39   1    -0.02   0.12  -0.01     0.09  -0.00  -0.00     0.04   0.18  -0.02
    40   1    -0.06   0.05   0.06     0.12   0.04  -0.05     0.06   0.21   0.02
    41   1     0.03   0.03  -0.00     0.05   0.03  -0.07     0.00   0.16  -0.14
    42   1     0.02  -0.00  -0.02     0.03  -0.03  -0.04     0.03  -0.00  -0.00
    43   1    -0.19   0.10  -0.10     0.14   0.01  -0.05    -0.07   0.07  -0.07
    44   1    -0.04   0.25   0.02     0.07  -0.04  -0.05     0.03   0.17   0.01
    45   1    -0.06  -0.06   0.12     0.08   0.11  -0.14     0.02  -0.02   0.10
    46   1     0.08  -0.03   0.02     0.01   0.14  -0.02     0.12  -0.01   0.02
    47   1     0.01  -0.00   0.04     0.07   0.05   0.02     0.05   0.01   0.06
    48   1     0.04  -0.05   0.03     0.07   0.02  -0.02     0.09  -0.06   0.04
    49   1    -0.02   0.04   0.04     0.09  -0.10  -0.10     0.07   0.03   0.08
    50   1    -0.11   0.07  -0.10     0.23  -0.17   0.14    -0.10   0.08  -0.12
    51   1    -0.01  -0.08  -0.11     0.10   0.10   0.13     0.02  -0.16  -0.12
    52   1     0.05  -0.06  -0.01     0.07   0.04   0.03     0.11  -0.05   0.03
    53   1     0.05  -0.05  -0.06     0.06  -0.02  -0.03     0.09  -0.09  -0.10
    54   1     0.02  -0.03  -0.04     0.00   0.02   0.01    -0.01  -0.03  -0.03
    55   1    -0.02   0.02   0.05    -0.09   0.03   0.03    -0.08   0.02   0.04
    56   1     0.06   0.04   0.02    -0.09   0.05  -0.01    -0.08   0.03   0.01
    57   1    -0.10  -0.01   0.02    -0.12   0.00  -0.02     0.08  -0.00  -0.03
    58   1     0.01   0.03   0.11    -0.07   0.01   0.02     0.01   0.03  -0.10
    59   1     0.03   0.14  -0.07    -0.10   0.07  -0.05     0.00  -0.03  -0.00
    60   1     0.08   0.00  -0.15    -0.03  -0.00  -0.09     0.03   0.00   0.01
    61   1     0.05  -0.03  -0.01    -0.05  -0.00   0.04     0.02  -0.05  -0.04
    62   1     0.05  -0.03  -0.02    -0.02  -0.00   0.03    -0.01  -0.09   0.02
                     13                     14                     15
                      A                      A                      A
 Frequencies --    230.2092               233.7069               244.5332
 Red. masses --      1.0918                 1.5960                 1.2654
 Frc consts  --      0.0341                 0.0514                 0.0446
 IR Inten    --      0.0188                 0.3129                 0.0909
  Atom  AN      X      Y      Z        X      Y      Z        X      Y      Z
     1   6    -0.00  -0.01   0.00     0.06  -0.06  -0.01    -0.03   0.00   0.01
     2   6    -0.00  -0.01  -0.00     0.00  -0.03  -0.03    -0.00  -0.00   0.01
     3   6    -0.01  -0.01   0.01    -0.04  -0.01  -0.02     0.01  -0.01   0.00
     4   6    -0.00   0.00   0.02    -0.05  -0.02  -0.03     0.01  -0.01  -0.01
     5   6    -0.00  -0.00   0.01    -0.02  -0.01   0.04     0.01   0.01  -0.02
     6   6    -0.00  -0.00  -0.01    -0.01  -0.01   0.00    -0.01   0.01   0.01
     7   6    -0.00  -0.00  -0.01    -0.00  -0.04  -0.04    -0.01   0.01   0.02
     8   6    -0.01  -0.00   0.00    -0.02  -0.03  -0.03    -0.01   0.01  -0.02
     9   6    -0.00   0.00   0.00     0.01   0.03   0.05    -0.01  -0.00  -0.02
    10   6     0.00   0.01  -0.00     0.02   0.01   0.01    -0.01   0.01   0.01
    11   6    -0.00  -0.01   0.01     0.12   0.01  -0.01    -0.05   0.02   0.01
    12   6     0.00   0.00  -0.01    -0.00   0.01   0.01    -0.01   0.01   0.01
    13   6     0.03  -0.01   0.00    -0.02   0.01   0.01    -0.03   0.02   0.01
    14   6     0.01   0.02  -0.01    -0.03   0.02  -0.02    -0.04   0.03  -0.01
    15   6     0.01   0.02  -0.00    -0.01   0.00  -0.02    -0.01  -0.01   0.01
    16   6     0.01   0.01  -0.01    -0.01   0.01  -0.02     0.00  -0.02  -0.00
    17   6    -0.00  -0.05  -0.03     0.03  -0.00   0.03     0.02  -0.04   0.01
    18   6    -0.00   0.02   0.02    -0.01   0.03   0.01     0.07  -0.03  -0.02
    19   6    -0.01   0.00   0.01    -0.04   0.06   0.03     0.01  -0.02   0.00
    20   6    -0.00   0.00   0.00    -0.02   0.01   0.01     0.01   0.00   0.01
    21   6    -0.00   0.00  -0.00    -0.00   0.01  -0.02     0.02   0.00   0.01
    22   6    -0.00   0.00  -0.00    -0.00  -0.00   0.00     0.02   0.01  -0.01
    23   6    -0.00  -0.00   0.00    -0.00  -0.00   0.00     0.01  -0.01  -0.00
    24   8    -0.00   0.01  -0.00     0.03  -0.01   0.01     0.01   0.01   0.00
    25   1    -0.01   0.03  -0.02     0.11  -0.23   0.09    -0.02  -0.08   0.03
    26   1     0.04  -0.02   0.01    -0.11  -0.01  -0.03    -0.11   0.03  -0.00
    27   1    -0.04  -0.04   0.01     0.22   0.03  -0.09     0.03   0.06   0.00
    28   1    -0.00  -0.02   0.01    -0.08  -0.02  -0.03     0.01   0.01   0.00
    29   1     0.00  -0.00   0.03    -0.03  -0.03  -0.08     0.02  -0.01  -0.02
    30   1     0.01   0.01   0.02    -0.10  -0.06  -0.03     0.02  -0.03  -0.01
    31   1     0.00   0.00   0.01    -0.05   0.01   0.09     0.02  -0.01  -0.04
    32   1    -0.01  -0.02   0.01     0.03  -0.05   0.06     0.00   0.04  -0.03
    33   1     0.00   0.01  -0.01    -0.02   0.03  -0.01    -0.01  -0.01   0.02
    34   1    -0.01  -0.00  -0.01     0.01  -0.05  -0.03    -0.01  -0.01   0.02
    35   1    -0.01  -0.01   0.00    -0.09  -0.02  -0.03    -0.02   0.05  -0.03
    36   1    -0.01   0.00   0.01    -0.01  -0.04  -0.06    -0.01  -0.01  -0.05
    37   1    -0.00   0.01   0.00     0.08   0.11   0.03    -0.01  -0.03  -0.01
    38   1    -0.01   0.01   0.01    -0.02   0.04   0.15    -0.01  -0.00  -0.04
    39   1    -0.01  -0.07   0.02     0.17   0.41  -0.08    -0.07  -0.12   0.03
    40   1     0.04   0.01  -0.02    -0.18  -0.14   0.09     0.06   0.07  -0.02
    41   1    -0.05   0.02   0.02     0.45  -0.21  -0.07    -0.17   0.09   0.03
    42   1    -0.01   0.01   0.00    -0.01   0.00   0.01    -0.01   0.01   0.00
    43   1     0.07  -0.01   0.02    -0.02   0.01   0.01    -0.02   0.02   0.01
    44   1     0.02  -0.05  -0.01    -0.03   0.01   0.02    -0.04   0.01   0.02
    45   1     0.02   0.04  -0.03    -0.03   0.02  -0.05    -0.05   0.04  -0.06
    46   1    -0.02   0.03  -0.00    -0.06   0.03  -0.01    -0.07   0.07   0.01
    47   1     0.01   0.02   0.00    -0.01   0.01  -0.02     0.01  -0.00   0.03
    48   1     0.03   0.02  -0.02    -0.03   0.02  -0.02    -0.01  -0.01  -0.01
    49   1     0.22   0.05   0.22    -0.01  -0.04  -0.06    -0.17  -0.17  -0.30
    50   1    -0.22   0.18  -0.20     0.11  -0.08   0.09     0.21  -0.32   0.24
    51   1    -0.03  -0.41  -0.12     0.01   0.10   0.10     0.04   0.32   0.12
    52   1    -0.28  -0.10  -0.26    -0.11  -0.01  -0.10    -0.11  -0.20  -0.22
    53   1    -0.14   0.21   0.39    -0.07   0.09   0.14    -0.01   0.15   0.23
    54   1     0.41  -0.02  -0.03     0.14   0.01  -0.01     0.43  -0.04  -0.09
    55   1    -0.01   0.00   0.01    -0.07   0.08   0.11     0.02  -0.03  -0.02
    56   1    -0.01   0.01   0.00     0.00   0.13  -0.01     0.01  -0.04   0.02
    57   1     0.01  -0.00  -0.00     0.03  -0.01  -0.02     0.02  -0.01   0.01
    58   1    -0.00   0.00  -0.01    -0.00   0.02  -0.05     0.02   0.00   0.00
    59   1    -0.01   0.01  -0.01    -0.00  -0.02   0.00     0.02   0.03  -0.01
    60   1     0.00   0.00  -0.01    -0.00   0.00   0.02     0.03   0.00  -0.03
    61   1     0.00  -0.00   0.01    -0.00  -0.00   0.03     0.02  -0.01  -0.01
    62   1    -0.00   0.00   0.00    -0.00   0.03  -0.01     0.02  -0.02   0.00
                     16                     17                     18
                      A                      A                      A
 Frequencies --    251.8616               265.9099               270.9761
 Red. masses --      1.4354                 1.9246                 2.2969
 Frc consts  --      0.0536                 0.0802                 0.0994
 IR Inten    --      0.0729                 0.0312                 0.1480
  Atom  AN      X      Y      Z        X      Y      Z        X      Y      Z
     1   6    -0.05   0.04   0.01     0.12   0.10  -0.06     0.01   0.09   0.01
     2   6    -0.01   0.00   0.03     0.04   0.00  -0.03     0.02   0.05   0.02
     3   6     0.01  -0.02   0.06     0.00   0.01   0.01     0.02   0.06  -0.05
     4   6     0.05   0.01   0.06    -0.01  -0.00   0.01    -0.03  -0.00  -0.08
     5   6    -0.00   0.01  -0.09    -0.03  -0.03  -0.03     0.01  -0.02   0.05
     6   6    -0.00  -0.00  -0.02    -0.01  -0.04   0.00     0.02  -0.03   0.05
     7   6    -0.01   0.01   0.01     0.02  -0.03  -0.02     0.02   0.01   0.07
     8   6    -0.01   0.01  -0.03     0.03  -0.04   0.01     0.05  -0.02   0.05
     9   6     0.00   0.01   0.00     0.02  -0.02   0.01    -0.01  -0.09  -0.07
    10   6    -0.01  -0.00  -0.00     0.01  -0.01   0.03    -0.01  -0.05  -0.01
    11   6    -0.00  -0.01   0.00     0.05   0.05   0.00    -0.03   0.02  -0.04
    12   6    -0.01   0.00  -0.01    -0.00  -0.01   0.03     0.00  -0.05  -0.02
    13   6     0.01  -0.02   0.01    -0.05   0.04   0.01    -0.03   0.01  -0.05
    14   6    -0.00   0.00  -0.00    -0.04   0.02   0.00    -0.06   0.09  -0.07
    15   6    -0.01  -0.01   0.01    -0.02   0.00   0.01    -0.01  -0.03   0.03
    16   6    -0.01  -0.01   0.01    -0.02   0.01   0.00    -0.01  -0.03   0.04
    17   6    -0.03   0.00  -0.01    -0.02   0.02   0.01    -0.05   0.02   0.00
    18   6     0.02  -0.00   0.02    -0.03   0.01  -0.00     0.09  -0.00   0.10
    19   6     0.01  -0.07  -0.00    -0.01   0.01  -0.02     0.03   0.01  -0.05
    20   6     0.02  -0.00  -0.00    -0.01  -0.01  -0.04    -0.00  -0.03  -0.02
    21   6     0.03   0.00   0.00     0.01  -0.00  -0.02    -0.04  -0.02   0.03
    22   6     0.02   0.01   0.00    -0.01  -0.08   0.11    -0.00  -0.02  -0.00
    23   6     0.01  -0.02   0.00    -0.01  -0.04  -0.02     0.02   0.03   0.00
    24   8    -0.02   0.03  -0.02    -0.03  -0.00  -0.03    -0.01  -0.04   0.01
    25   1    -0.10   0.20  -0.09     0.08   0.45  -0.11     0.02   0.03   0.04
    26   1     0.10  -0.00   0.02     0.45   0.01  -0.11    -0.07   0.11  -0.04
    27   1    -0.20  -0.04   0.08    -0.10  -0.06   0.01     0.06   0.15   0.02
    28   1     0.04  -0.03   0.06     0.01  -0.00   0.02     0.04   0.13  -0.06
    29   1     0.03   0.01   0.15    -0.04   0.01   0.04    -0.04   0.01  -0.19
    30   1     0.16   0.06   0.06     0.02   0.01   0.01    -0.12  -0.08  -0.07
    31   1     0.06  -0.05  -0.21    -0.02  -0.06  -0.07    -0.05  -0.00   0.13
    32   1    -0.11   0.10  -0.13    -0.07   0.00  -0.04     0.10  -0.06   0.07
    33   1    -0.01  -0.04  -0.01    -0.05  -0.04   0.01     0.06  -0.03   0.05
    34   1    -0.03   0.00   0.01     0.04  -0.02  -0.02     0.03   0.01   0.07
    35   1    -0.04   0.06  -0.05     0.06  -0.08   0.03     0.13  -0.03   0.05
    36   1    -0.00  -0.01  -0.08     0.02  -0.01   0.06     0.02   0.00   0.10
    37   1     0.03   0.03  -0.00     0.03  -0.02   0.01    -0.10  -0.20  -0.04
    38   1     0.00   0.01   0.03     0.01  -0.02   0.01     0.04  -0.10  -0.20
    39   1     0.02   0.41  -0.14     0.07  -0.02   0.06    -0.02   0.27  -0.12
    40   1    -0.38  -0.20   0.13     0.17   0.13  -0.01    -0.22  -0.03   0.07
    41   1     0.38  -0.26   0.01    -0.04   0.11  -0.07     0.16  -0.10  -0.09
    42   1    -0.01   0.01   0.00     0.00  -0.03   0.01     0.03  -0.07  -0.06
    43   1     0.05  -0.02   0.04    -0.09   0.04  -0.04     0.03   0.01  -0.09
    44   1     0.01  -0.07  -0.01    -0.05   0.11   0.05    -0.06  -0.01  -0.02
    45   1     0.01   0.02  -0.03    -0.06   0.00  -0.00    -0.06   0.12  -0.22
    46   1    -0.03   0.02   0.01    -0.04   0.02   0.01    -0.14   0.23   0.01
    47   1    -0.00  -0.00   0.02    -0.03   0.01   0.02     0.02   0.00   0.09
    48   1    -0.01  -0.00   0.01    -0.03   0.01   0.00    -0.03  -0.01   0.01
    49   1    -0.06  -0.00  -0.03    -0.09  -0.01  -0.06    -0.03   0.06   0.10
    50   1    -0.03  -0.01   0.00     0.03  -0.04   0.05    -0.11   0.11  -0.07
    51   1    -0.01   0.03  -0.03    -0.01   0.11   0.03    -0.03  -0.07  -0.07
    52   1     0.00  -0.02  -0.00    -0.10  -0.03  -0.07     0.12  -0.01   0.12
    53   1     0.02   0.04   0.04    -0.06   0.04   0.09     0.12   0.09   0.08
    54   1     0.07  -0.01   0.02     0.07   0.00  -0.02     0.13  -0.05   0.14
    55   1     0.02  -0.09  -0.09    -0.01   0.02  -0.00     0.07   0.00  -0.03
    56   1    -0.03  -0.14   0.04    -0.02   0.03  -0.03     0.02   0.00  -0.04
    57   1     0.05  -0.00   0.01     0.11   0.05  -0.01    -0.13   0.02   0.02
    58   1     0.03  -0.00  -0.02     0.00  -0.00  -0.10    -0.02  -0.02   0.13
    59   1     0.01   0.02  -0.00     0.04  -0.28   0.14     0.01  -0.01   0.00
    60   1     0.03   0.00  -0.01    -0.06  -0.01   0.30    -0.03  -0.02  -0.00
    61   1     0.03  -0.03  -0.03    -0.01  -0.03  -0.12    -0.02   0.05   0.01
    62   1    -0.00  -0.05   0.01    -0.10  -0.10  -0.02     0.04   0.04   0.01
                     19                     20                     21
                      A                      A                      A
 Frequencies --    280.8675               291.0014               294.1087
 Red. masses --      2.5240                 2.5442                 2.2786
 Frc consts  --      0.1173                 0.1269                 0.1161
 IR Inten    --      0.0721                 0.2089                 0.0046
  Atom  AN      X      Y      Z        X      Y      Z        X      Y      Z
     1   6     0.05  -0.10  -0.04     0.16  -0.02   0.10    -0.09   0.10  -0.05
     2   6     0.00  -0.03  -0.07     0.05   0.01   0.07    -0.02   0.02  -0.01
     3   6     0.02  -0.03  -0.03     0.02   0.03   0.03     0.00   0.02  -0.04
     4   6     0.01   0.02   0.05    -0.00   0.01   0.02    -0.02  -0.02  -0.07
     5   6     0.01  -0.01   0.05    -0.00   0.01  -0.01     0.02  -0.04   0.06
     6   6    -0.01   0.01  -0.08     0.03  -0.00   0.02     0.01  -0.03   0.01
     7   6    -0.01   0.02  -0.06     0.04   0.02   0.05    -0.01  -0.03   0.02
     8   6    -0.02   0.02   0.14     0.03   0.03   0.02    -0.01  -0.04   0.04
     9   6    -0.06   0.07   0.00     0.01   0.01  -0.02    -0.03  -0.05  -0.01
    10   6    -0.05   0.04  -0.04    -0.00   0.01   0.00    -0.01  -0.01   0.01
    11   6    -0.06   0.07  -0.05    -0.08   0.01   0.02    -0.06   0.02   0.02
    12   6    -0.02   0.02  -0.06     0.02  -0.00  -0.00     0.02  -0.02  -0.00
    13   6     0.05  -0.03  -0.03     0.04  -0.01   0.01     0.08   0.00  -0.01
    14   6     0.06  -0.01   0.02     0.06  -0.03   0.04     0.12  -0.03   0.06
    15   6    -0.01  -0.01   0.04     0.00   0.03   0.01     0.02   0.05   0.02
    16   6    -0.02  -0.05   0.06    -0.01   0.02  -0.00     0.02   0.04  -0.02
    17   6    -0.10  -0.01  -0.02    -0.04  -0.01  -0.04     0.01  -0.03  -0.04
    18   6     0.10  -0.08   0.03    -0.07  -0.01  -0.07    -0.10   0.01  -0.11
    19   6     0.02   0.04   0.01    -0.02   0.07  -0.06     0.02  -0.01   0.01
    20   6     0.02   0.03   0.01    -0.05  -0.02  -0.07     0.02   0.00   0.03
    21   6     0.01   0.02  -0.03    -0.12  -0.01  -0.01     0.04   0.00   0.01
    22   6    -0.02   0.01   0.02    -0.01  -0.04  -0.09    -0.01   0.01   0.06
    23   6    -0.03  -0.00  -0.02     0.02  -0.05   0.02    -0.01   0.05  -0.00
    24   8     0.03   0.01   0.03    -0.07  -0.04  -0.03     0.03   0.00   0.02
    25   1     0.05   0.00  -0.05     0.18  -0.01   0.17    -0.11   0.11  -0.09
    26   1     0.17  -0.14   0.02     0.20  -0.04   0.11    -0.12   0.11  -0.11
    27   1    -0.01  -0.21  -0.07     0.20  -0.07   0.02    -0.11   0.16   0.02
    28   1     0.01  -0.10  -0.01     0.06   0.06   0.03    -0.02   0.06  -0.05
    29   1     0.00   0.01   0.13    -0.01   0.01  -0.00    -0.02  -0.01  -0.15
    30   1     0.01   0.10   0.03     0.01  -0.01   0.02    -0.10  -0.07  -0.06
    31   1     0.02   0.07   0.12    -0.01  -0.03  -0.05    -0.03   0.01   0.18
    32   1     0.01  -0.12   0.09    -0.03   0.05  -0.03     0.12  -0.13   0.10
    33   1     0.00   0.06  -0.09     0.06  -0.04   0.03     0.02  -0.01   0.01
    34   1     0.04   0.13  -0.09     0.03   0.02   0.05    -0.01  -0.02   0.02
    35   1     0.08  -0.20   0.21     0.06   0.06   0.01     0.02  -0.08   0.05
    36   1    -0.06   0.15   0.35     0.01   0.01   0.01    -0.02  -0.02   0.08
    37   1    -0.14   0.10  -0.00    -0.01  -0.02  -0.01    -0.07  -0.10   0.00
    38   1    -0.05   0.06   0.01     0.04  -0.00  -0.05    -0.04  -0.04  -0.07
    39   1    -0.05   0.17  -0.08    -0.11   0.13  -0.08    -0.08   0.20  -0.08
    40   1    -0.13   0.04  -0.01    -0.23  -0.06   0.09    -0.24  -0.05   0.11
    41   1     0.02   0.01  -0.08     0.03  -0.07   0.07     0.09  -0.08   0.03
    42   1    -0.01   0.06  -0.02     0.04   0.01   0.00     0.01  -0.02  -0.00
    43   1     0.09  -0.03   0.03     0.02  -0.01   0.00     0.04   0.00  -0.04
    44   1     0.07  -0.09  -0.08     0.07   0.01  -0.01     0.12   0.05  -0.04
    45   1     0.07   0.00   0.05     0.07  -0.04   0.14     0.13  -0.05   0.21
    46   1     0.08  -0.01   0.02     0.13  -0.10   0.00     0.22  -0.13  -0.00
    47   1     0.05  -0.02   0.05    -0.02   0.02  -0.01    -0.03   0.06   0.00
    48   1     0.00  -0.07   0.07     0.02  -0.00   0.02     0.07   0.01   0.01
    49   1    -0.21  -0.04  -0.09    -0.12  -0.05  -0.16    -0.02  -0.08  -0.17
    50   1    -0.11  -0.07   0.03    -0.01  -0.11   0.05     0.03  -0.13   0.05
    51   1    -0.04   0.09  -0.10    -0.01   0.12  -0.04     0.02   0.06  -0.02
    52   1     0.14  -0.17   0.05    -0.18  -0.05  -0.17    -0.22  -0.03  -0.23
    53   1     0.14   0.00  -0.02    -0.14  -0.02   0.06    -0.18  -0.06   0.03
    54   1     0.15  -0.08   0.01     0.04   0.03  -0.13    -0.01   0.06  -0.19
    55   1    -0.02   0.06   0.05    -0.02   0.09   0.03     0.04  -0.02  -0.02
    56   1     0.07   0.09  -0.01    -0.05   0.14  -0.12     0.04  -0.04   0.04
    57   1     0.09   0.01  -0.02    -0.35   0.04  -0.03     0.14  -0.00   0.02
    58   1    -0.01   0.01  -0.10    -0.08   0.00   0.23     0.02  -0.01  -0.09
    59   1    -0.02  -0.05   0.03    -0.03   0.08  -0.10     0.01  -0.08   0.07
    60   1    -0.03   0.03   0.07     0.06  -0.06  -0.18    -0.06   0.03   0.13
    61   1    -0.01  -0.01  -0.01    -0.02  -0.03  -0.03    -0.01   0.04   0.02
    62   1    -0.07   0.02  -0.03     0.09  -0.12   0.05    -0.04   0.08  -0.02
                     22                     23                     24
                      A                      A                      A
 Frequencies --    299.5826               322.1440               331.1167
 Red. masses --      2.1858                 2.7314                 3.5977
 Frc consts  --      0.1156                 0.1670                 0.2324
 IR Inten    --      0.1922                 0.4021                 1.7398
  Atom  AN      X      Y      Z        X      Y      Z        X      Y      Z
     1   6     0.00  -0.03  -0.02     0.07  -0.03  -0.05     0.00   0.04   0.02
     2   6    -0.00   0.02  -0.04     0.02   0.01  -0.06     0.01   0.02   0.02
     3   6     0.00   0.01  -0.03    -0.04   0.02  -0.03    -0.12   0.04   0.02
     4   6     0.01   0.08   0.06    -0.06   0.07   0.03    -0.11   0.00  -0.07
     5   6    -0.03  -0.03  -0.02    -0.08   0.00  -0.01    -0.06   0.07   0.05
     6   6    -0.01  -0.04  -0.04    -0.03  -0.02   0.00     0.01   0.04   0.00
     7   6    -0.00  -0.03  -0.04     0.01  -0.01  -0.02     0.01   0.02   0.02
     8   6     0.02  -0.06  -0.00     0.00  -0.01   0.07    -0.01   0.05  -0.02
     9   6     0.01  -0.06   0.02    -0.02   0.03   0.01     0.01   0.09   0.01
    10   6     0.01  -0.03   0.04    -0.02   0.02   0.00    -0.00   0.03  -0.05
    11   6     0.10   0.06  -0.00    -0.15   0.05   0.02     0.06  -0.03  -0.05
    12   6     0.01  -0.04   0.01    -0.02   0.01   0.02     0.00   0.02  -0.06
    13   6     0.01   0.02  -0.01    -0.06   0.01   0.03     0.08  -0.03  -0.04
    14   6     0.02   0.02   0.02    -0.06  -0.01   0.00     0.08  -0.00  -0.00
    15   6    -0.01   0.00   0.03     0.01   0.00  -0.03     0.00   0.01   0.01
    16   6    -0.03   0.00   0.02     0.06   0.03  -0.06    -0.04  -0.02   0.05
    17   6    -0.08   0.04  -0.02     0.16  -0.06   0.03    -0.11   0.02  -0.02
    18   6    -0.06  -0.01   0.01     0.05   0.03  -0.06     0.00  -0.04   0.03
    19   6     0.03  -0.07  -0.02    -0.03  -0.06   0.01    -0.14  -0.09   0.08
    20   6     0.01  -0.04   0.02    -0.01  -0.06   0.02    -0.07  -0.08   0.04
    21   6    -0.01  -0.03   0.06     0.05  -0.04   0.07     0.10  -0.05   0.08
    22   6     0.01   0.05  -0.06     0.09  -0.02   0.00     0.16  -0.06   0.02
    23   6     0.03   0.14   0.03     0.09   0.08  -0.02     0.13  -0.01  -0.03
    24   8    -0.00  -0.02   0.00    -0.02  -0.03  -0.03    -0.04  -0.01  -0.10
    25   1     0.00  -0.07  -0.03     0.07   0.03  -0.03    -0.01   0.06   0.00
    26   1    -0.02  -0.03   0.02     0.14  -0.05  -0.01     0.02   0.04   0.01
    27   1     0.01  -0.04  -0.04     0.04  -0.09  -0.07    -0.02   0.03   0.03
    28   1     0.03  -0.03  -0.01    -0.05  -0.03  -0.02    -0.18   0.08  -0.00
    29   1    -0.04   0.08   0.23    -0.08   0.07   0.12    -0.04  -0.01  -0.21
    30   1     0.09   0.23   0.03    -0.03   0.16   0.01    -0.21  -0.12  -0.05
    31   1    -0.03  -0.04  -0.04    -0.09  -0.03  -0.04    -0.11   0.08   0.11
    32   1    -0.10  -0.04  -0.02    -0.13   0.02  -0.02     0.02   0.03   0.07
    33   1    -0.03  -0.04  -0.04    -0.05  -0.02   0.00     0.07   0.07  -0.01
    34   1    -0.01  -0.02  -0.05     0.06   0.02  -0.03     0.01  -0.00   0.02
    35   1     0.01  -0.09   0.01     0.03  -0.10   0.09    -0.03   0.08  -0.03
    36   1     0.03  -0.03   0.02    -0.02   0.04   0.15    -0.01   0.02  -0.06
    37   1     0.02  -0.09   0.03    -0.05   0.05   0.01     0.05   0.18  -0.02
    38   1     0.01  -0.06  -0.00    -0.02   0.03   0.03     0.01   0.09   0.11
    39   1     0.15   0.03   0.08    -0.20   0.16  -0.12     0.09  -0.13   0.04
    40   1     0.22   0.14  -0.01    -0.30   0.02   0.13     0.16  -0.02  -0.14
    41   1     0.03   0.10  -0.14    -0.06  -0.00   0.06    -0.01   0.02  -0.04
    42   1    -0.02  -0.07   0.00    -0.01   0.02   0.02     0.02   0.05  -0.04
    43   1    -0.02   0.02  -0.07    -0.08   0.01   0.03     0.13  -0.03   0.02
    44   1     0.02   0.08   0.00    -0.06   0.02   0.05     0.10  -0.10  -0.09
    45   1     0.02   0.01   0.04    -0.07  -0.02  -0.01     0.11   0.02   0.03
    46   1     0.05   0.01   0.01    -0.08  -0.02   0.00     0.10  -0.01  -0.01
    47   1    -0.03   0.02   0.06    -0.02  -0.00  -0.06     0.05   0.00   0.02
    48   1    -0.02  -0.01   0.03     0.04   0.03  -0.06    -0.02  -0.03   0.06
    49   1    -0.21   0.02  -0.09     0.35  -0.05   0.08    -0.23   0.01  -0.05
    50   1    -0.05  -0.02   0.03     0.15  -0.01  -0.01    -0.12  -0.01   0.01
    51   1    -0.04   0.17  -0.06     0.07  -0.22   0.13    -0.05   0.11  -0.09
    52   1    -0.14  -0.03  -0.08     0.10   0.07  -0.01     0.00  -0.09   0.03
    53   1    -0.11   0.01   0.11     0.07  -0.01  -0.12     0.01  -0.00   0.04
    54   1     0.03  -0.00  -0.02    -0.04   0.04  -0.05     0.05  -0.04   0.02
    55   1     0.08  -0.09  -0.08     0.03  -0.08  -0.02    -0.04  -0.12   0.05
    56   1     0.01  -0.13   0.01    -0.05  -0.09   0.02    -0.19  -0.12   0.09
    57   1    -0.16  -0.03   0.04    -0.06  -0.02   0.06     0.04  -0.06   0.08
    58   1     0.01  -0.04   0.19     0.07   0.00   0.17     0.13   0.05   0.13
    59   1    -0.01   0.20  -0.08     0.14   0.00   0.01     0.23  -0.06   0.04
    60   1    -0.01  -0.01  -0.20     0.02  -0.04  -0.01     0.09  -0.07   0.04
    61   1    -0.03   0.15   0.26     0.04   0.09   0.12     0.12  -0.00  -0.05
    62   1     0.15   0.34  -0.01     0.14   0.19  -0.04     0.14  -0.05  -0.01
                     25                     26                     27
                      A                      A                      A
 Frequencies --    332.5740               358.2314               385.3809
 Red. masses --      2.4869                 2.2974                 2.3475
 Frc consts  --      0.1621                 0.1737                 0.2054
 IR Inten    --      0.1278                 0.9138                 0.0705
  Atom  AN      X      Y      Z        X      Y      Z        X      Y      Z
     1   6     0.10   0.16   0.01     0.13   0.00   0.01    -0.01   0.00   0.01
     2   6    -0.01   0.01   0.05    -0.04  -0.01   0.00    -0.01   0.00   0.01
     3   6     0.02  -0.01   0.04    -0.03  -0.04   0.04    -0.01  -0.02   0.03
     4   6     0.03  -0.09  -0.03     0.01  -0.05  -0.02    -0.01  -0.05  -0.00
     5   6     0.05  -0.09   0.02     0.02   0.07   0.02    -0.00  -0.01   0.02
     6   6    -0.01  -0.05  -0.02    -0.05   0.09  -0.04    -0.01   0.00  -0.04
     7   6    -0.04  -0.06  -0.03    -0.05   0.06  -0.05     0.02   0.04  -0.03
     8   6    -0.08  -0.05  -0.01     0.02   0.02   0.04     0.09   0.02   0.01
     9   6    -0.04   0.10   0.06    -0.03  -0.11  -0.07     0.13   0.03   0.08
    10   6    -0.03   0.05  -0.03     0.00  -0.02   0.03     0.05  -0.06   0.03
    11   6     0.01   0.01  -0.02     0.04  -0.05   0.03    -0.10   0.13   0.01
    12   6    -0.01   0.03  -0.02    -0.04   0.02   0.01    -0.00  -0.04  -0.02
    13   6     0.01  -0.02   0.01    -0.02   0.03   0.02    -0.01  -0.03  -0.04
    14   6     0.00  -0.02   0.00    -0.01   0.02   0.03    -0.02  -0.02  -0.05
    15   6    -0.01   0.00  -0.02     0.01   0.01   0.03     0.04  -0.07  -0.00
    16   6    -0.01  -0.01   0.00     0.03   0.02   0.00     0.05  -0.06  -0.04
    17   6     0.01  -0.03   0.02     0.02   0.00  -0.01     0.03   0.08  -0.06
    18   6     0.06  -0.02   0.00    -0.02   0.02  -0.01    -0.07  -0.01   0.05
    19   6     0.02  -0.06  -0.02    -0.03  -0.11   0.05    -0.02  -0.05   0.03
    20   6     0.01  -0.01  -0.01    -0.00  -0.00   0.05    -0.01   0.00   0.03
    21   6    -0.03  -0.01   0.00     0.04  -0.01  -0.00     0.00  -0.01  -0.01
    22   6    -0.05   0.06  -0.07    -0.02   0.06  -0.05    -0.04   0.03  -0.02
    23   6    -0.02   0.05   0.06    -0.04  -0.02  -0.01    -0.04  -0.01   0.01
    24   8    -0.02   0.03  -0.03     0.00   0.05  -0.04     0.01   0.02  -0.02
    25   1     0.12   0.25   0.06     0.17   0.03   0.13    -0.01  -0.03   0.01
    26   1     0.14   0.16  -0.15     0.16  -0.01  -0.04    -0.04   0.01   0.02
    27   1     0.13   0.22   0.04     0.20  -0.01  -0.07     0.00   0.02   0.01
    28   1     0.05   0.05   0.02    -0.05  -0.02   0.03    -0.03  -0.01   0.03
    29   1     0.01  -0.07  -0.12     0.07  -0.07  -0.12     0.00  -0.05  -0.07
    30   1     0.01  -0.17  -0.01    -0.04  -0.15   0.00    -0.04  -0.12   0.01
    31   1     0.05  -0.02   0.11     0.06   0.13   0.05     0.01   0.04   0.07
    32   1     0.12  -0.17   0.06     0.06   0.02   0.03     0.02  -0.07   0.04
[...]
 0005100,0.00007781,0.00015344,0.00014025,0.00130341,-0.00006286,-0.000
 71176,0.00139087,-0.00018034,0.00025537,0.00538884,-0.01411718,0.00038
 891,0.08891428,0.00036367,0.00004187,0.00001691,-0.00075925,0.00129711
 ,0.00270825,-0.00021679,0.00039350,-0.00011682,0.00000208,0.00005439,-
 0.00000367,-0.00004857,0.00002210,-0.00001948,-0.00012376,0.00014212,0
 .00037355,0.00008962,-0.00099812,-0.00033498,0.00008348,-0.00010956,0.
 00005836,-0.00004167,0.00002945,-0.00004598,0.00004002,0.00000554,0.00
 000301,0.00000092,0.00000817,-0.00000472,0.00004032,-0.00012865,-0.000
 08178,-0.00002415,0.00000119,0.00000028,0.00000785,-0.00000912,-0.0000
 0764,-0.00000424,-0.00000092,-0.00000932,0.00001379,0.00001186,-0.0000
 0024,-0.00000226,-0.00000946,-0.00000216,-0.00000509,-0.00000813,-0.00
 000429,-0.00019865,0.00002856,-0.00027427,-0.00067132,0.00103705,0.000
 03002,-0.00138955,0.00219825,-0.00015294,0.08263376,-0.27672433,0.0001
 4990,0.00289021,-0.01330123,0.00043205,-0.00009258,0.00006853,-0.00003
 655,0.00007668,0.00013409,0.00014535,-0.00011866,0.00000511,0.00002976
 ,-0.00007880,-0.00003756,0.00006081,0.00002767,-0.00002010,0.00003873,
 0.00002514,-0.00002114,-0.00000662,-0.00001379,0.,0.00000487,0.0000050
 6,-0.00003656,0.00001286,0.00001188,0.00000761,0.00000512,-0.00000282,
 -0.00000672,-0.00001834,0.00001400,0.00002434,-0.00000174,-0.00001626,
 0.00000277,-0.00000794,-0.00000415,0.00003036,0.00000768,0.00001149,-0
 .00000624,0.00000739,-0.00004019,-0.00000153,0.00004488,0.00001653,0.0
 0000043,0.00000876,0.00000087,-0.00000579,-0.00000012,-0.00001673,0.00
 000347,0.00001017,-0.00001486,-0.00003078,0.00006533,-0.00000059,-0.00
 000463,0.00000181,-0.00001082,-0.00000856,-0.00001156,-0.00000053,-0.0
 0000519,0.00001421,-0.00000527,0.00000925,0.00001056,-0.00000926,0.000
 00640,0.00001132,-0.00000361,-0.00000231,-0.00000148,-0.00000118,0.000
 00494,0.00000016,0.00000180,0.00000131,-0.00000182,-0.00000413,-0.0000
 0604,0.00000728,0.00000503,0.00001190,0.00000919,-0.00000626,-0.000006
 84,0.00000912,-0.00000049,0.00000354,-0.00000481,0.00010690,0.00005317
 ,0.00010530,0.00010565,0.00005922,0.00025325,0.00034574,0.00066823,0.0
 0028520,0.00044433,0.00036841,-0.00040467,0.00494458,-0.01532772,-0.00
 083256,-0.08775885,0.29900444,-0.00013269,-0.00031487,-0.00039189,0.00
 068597,-0.00069317,-0.00506650,0.00043651,-0.00020727,-0.00030726,-0.0
 0012484,0.00001255,0.00010249,0.00007923,-0.00007452,-0.00000599,0.000
 18890,-0.00015232,-0.00053273,-0.00001747,0.00165675,0.00032714,-0.000
 12624,0.00007809,0.00000414,0.00005785,-0.00003422,0.00002342,-0.00003
 717,-0.00000588,0.00001363,0.00000078,-0.00000677,-0.00000090,-0.00003
 693,0.00020527,0.00007600,0.00002034,0.00000178,0.00000734,-0.00000595
 ,0.00000696,0.00000357,0.00000252,-0.00000132,0.00000683,-0.00000769,-
 0.00000581,0.00000072,0.00000193,0.00000482,0.00000141,0.00000484,0.00
 000694,0.00000346,-0.00020722,-0.00029476,-0.00059772,0.00029956,0.000
 57338,0.00085315,0.00098118,-0.00378712,0.00006953,-0.00244828,-0.0001
 0458,-0.04832306,-0.00620327,0.03096904,-0.00263506,0.00054528,-0.0002
 7815,-0.00013521,0.00006685,0.00013670,0.00035149,0.00002090,-0.000010
 13,0.00006892,0.00004036,0.00003536,0.00021560,-0.00002586,0.00001142,
 0.00004814,-0.00003540,0.00007619,0.00000403,0.00001941,0.00001375,-0.
 00000388,-0.00002333,0.00001837,0.00001879,-0.00001583,-0.00000353,-0.
 00000205,0.00001969,0.00002972,0.00002332,-0.00004165,-0.00001461,0.00
 004766,0.00002905,-0.00001596,0.00000189,0.00004069,-0.00005695,-0.000
 01493,-0.00001095,0.00000453,-0.00000575,0.00002501,0.00000223,-0.0000
 3290,-0.00000785,-0.00000067,-0.00000523,-0.00000189,0.00000284,-0.000
 00019,0.00000923,-0.00000148,-0.00000329,0.00002180,0.00003693,-0.0000
 8615,-0.00000218,0.00000723,-0.00000481,0.00000729,0.00000016,0.000008
 50,0.00000057,0.00000251,-0.00000841,0.00000346,-0.00000675,-0.0000080
 9,0.00000490,-0.00000346,-0.00000733,0.00000114,0.00000090,0.00000059,
 0.00000085,-0.00000227,-0.00000014,-0.00000153,-0.00000047,0.00000049,
 0.00000200,0.00000273,-0.00000375,-0.00000343,-0.00000812,-0.00000640,
 0.00000376,0.00000325,-0.00000636,-0.00000036,-0.00000196,0.00000254,0
 .00008435,0.00001479,0.00019644,0.00019682,0.00004235,0.00031549,-0.00
 013008,0.00051982,0.00025228,-0.00005400,-0.00047643,-0.00000997,0.009
 67520,-0.02513262,-0.00008538,-0.00326515,-0.00273876,0.05354286,0.000
 61761,-0.00086251,-0.00030465,0.00049600,-0.00014803,-0.00153567,0.000
 91022,0.00014609,-0.00025619,0.00003177,-0.00030447,0.00026581,-0.0000
 4597,-0.00002123,0.00007816,0.00009770,-0.00003682,-0.00026545,-0.0004
 3702,0.00066979,0.00059287,-0.00109764,-0.00009716,0.00220943,0.000175
 12,-0.00065039,-0.00021168,-0.00006452,0.00004696,0.00020350,0.0000366
 7,-0.00003259,0.00000991,-0.00006770,0.00010220,0.00006698,0.00001237,
 -0.00000288,-0.00000581,-0.00001767,0.00000815,0.00001312,-0.00000877,
 -0.00009797,-0.00001956,0.00002086,0.00001659,0.00003351,-0.00000902,-
 0.00001474,-0.00000045,-0.00000646,0.00000424,0.00000541,0.00001106,-0
 .00004482,-0.00016217,0.00061199,-0.00043597,-0.00023657,0.00089053,-0
 .00111267,0.00253881,-0.00879268,0.00244263,0.00192038,-0.26272338,0.0
 8906847,0.04574568,-0.00016856,0.00010119,0.00000998,-0.00002725,-0.00
 005768,-0.00007493,0.00057039,-0.00009297,0.00014466,0.00031149,-0.000
 01874,-0.00000378,0.00032524,-0.00017371,0.00014683,0.00005881,0.00004
 538,0.00001430,0.00002183,0.00017907,0.00000328,0.00003735,0.00001368,
 -0.00003670,0.00000605,-0.00001714,0.00000358,0.00000794,0.00002448,0.
 00002255,0.00001026,0.00004933,0.00009278,-0.00008197,-0.00011214,-0.0
 0006863,-0.00042027,-0.00236745,0.00178364,0.00000349,0.00002872,-0.00
 000026,0.00001562,0.00000899,-0.00004912,0.00000031,0.00002938,0.00000
 984,-0.00001560,-0.00002775,0.00000440,0.00001204,0.00000468,-0.000003
 70,0.00002845,-0.00001001,-0.00004264,0.00001571,-0.00001654,0.0000124
 5,-0.00001046,0.00001549,0.00000660,0.00001170,-0.00000916,-0.00000187
 ,0.00000137,-0.00000375,-0.00001492,0.00001131,-0.00000406,-0.00002182
 ,0.00000602,0.00000176,-0.00000330,0.00000256,-0.00000138,-0.00000376,
 0.00000375,0.00000102,0.00000271,-0.00000317,-0.00000331,0.00000962,-0
 .00000459,0.00000189,-0.00000554,0.00000127,-0.00000759,-0.00000013,0.
 00000535,-0.00000041,0.00000534,-0.00001065,0.00005375,0.00004785,0.00
 001336,-0.00000828,0.00005718,0.00031096,0.00020088,-0.00007363,-0.000
 77098,0.00008339,0.00025710,0.00000789,-0.00005131,0.00043499,0.000940
 12,-0.00075601,-0.00015763,0.28665842,0.00182774,0.00104886,0.00042987
 ,0.03082930,-0.01590304,-0.00658276,-0.00301398,-0.00679154,0.00101425
 ,0.00236934,-0.00001869,-0.00051174,0.00008843,0.00015753,-0.00031697,
 -0.00007565,-0.00001566,-0.00001909,0.00090974,0.00061849,-0.00079029,
 -0.00014891,-0.00083029,0.00016938,-0.00022562,0.00049501,0.00031845,0
 .00007944,-0.00014195,-0.00019061,-0.00003638,0.00004655,0.00001716,0.
 00001897,0.00003624,-0.00003651,-0.00000891,-0.00000946,0.00001576,0.0
 0001702,0.00000058,-0.00001723,0.00000713,0.00012326,0.00003447,-0.000
 03043,-0.00002290,-0.00003586,0.00000935,0.00002145,0.00000241,0.00000
 980,0.00000002,-0.00000579,-0.00023383,0.00025844,0.00027262,-0.000162
 37,-0.00109623,-0.00000143,-0.00059709,-0.00004559,0.00279182,-0.01309
 546,0.00208517,0.00460612,0.08874319,-0.08298722,-0.02288067,-0.000005
 82,0.00045493,-0.00001270,-0.00010546,-0.00001785,0.00001032,-0.001104
 45,-0.00001020,-0.00046270,-0.00021438,0.00038505,0.00031140,-0.000171
 92,0.00022378,0.00021186,0.00006562,-0.00088249,0.00014728,-0.00009033
 ,-0.00003798,-0.00006034,-0.00009759,-0.00000753,0.00010853,-0.0000107
 8,0.00001654,0.00002556,-0.00000673,-0.00001040,-0.00002044,-0.0000853
 8,-0.00003084,0.00009931,-0.00010618,-0.00002416,0.00006041,-0.0009439
 6,0.00076692,0.00136888,-0.00001969,-0.00001208,-0.00009549,0.00001923
 ,-0.00000727,0.00000603,-0.00000534,-0.00003807,-0.00002776,0.00001784
 ,0.00003504,-0.00001134,-0.00001114,-0.00000638,0.00000044,-0.00001270
 ,0.00003418,-0.00000753,-0.00002208,0.00002394,-0.00002242,0.00001362,
 -0.00001395,-0.00000293,-0.00001411,0.00000987,-0.00000259,-0.00000303
 ,0.00000168,0.00001379,-0.00001154,0.00000493,0.00002430,-0.00000692,-
 0.00000152,0.00000513,-0.00000151,-0.00000055,0.00000372,-0.00000479,-
 0.00000130,-0.00000323,0.00000434,0.00000441,-0.00001301,0.00000506,-0
 .00000658,0.00000243,-0.00000030,0.00001031,-0.00000260,-0.00000637,-0
 .00000045,-0.00000568,0.00007283,0.00002480,-0.00009512,-0.00003980,0.
 00006080,-0.00009804,0.00029736,0.00006946,-0.00001993,-0.00078673,-0.
 00003611,0.00041095,0.00033416,0.00003111,-0.00011665,-0.00133586,0.00
 098791,0.00048727,-0.09319824,0.09684267,0.00088321,-0.00035621,-0.000
 04969,-0.00010922,-0.00103791,-0.00023966,-0.00033268,0.00025940,-0.00
 001052,0.00016829,0.00010769,0.00040782,-0.00005526,-0.00012252,0.0000
 2864,0.00018903,-0.00000187,-0.00002307,-0.00058547,0.00015416,0.00004
 556,0.00089318,0.00190817,-0.00128925,-0.00001660,-0.00019773,-0.00012
 966,-0.00004478,0.00014763,0.00006748,0.00001999,-0.00002515,0.0000106
 7,-0.00002458,-0.00001349,-0.00002617,0.00000305,-0.00000077,-0.000010
 56,-0.00000762,0.00000136,0.00000546,-0.00001274,-0.00005547,-0.000019
 56,0.00001975,0.00001500,0.00001784,-0.00000573,-0.00001174,-0.0000014
 4,-0.00000593,-0.00000242,0.00000251,-0.00006578,-0.00000172,0.0000233
 9,-0.00047821,0.00081479,-0.00026754,-0.00053557,0.00162314,-0.0048826
 3,0.02969892,-0.00742639,-0.00819253,0.04680046,-0.02277295,-0.0586433
 1,0.00031430,-0.00037033,0.00016903,0.00002080,-0.00006040,-0.00002655
 ,-0.00038840,-0.00025080,0.00006772,-0.00012160,0.00019892,-0.00000889
 ,0.00039763,-0.00003271,0.00016890,-0.00001819,0.00000653,-0.00000810,
 0.00000047,0.00008573,-0.00002220,0.00003242,-0.00001722,-0.00000042,0
 .00001189,-0.00000967,0.00000434,-0.00001429,-0.00002162,-0.00000153,-
 0.00002878,0.00003504,-0.00003836,-0.00004363,-0.00023932,0.00005838,0
 .00183616,0.00122549,-0.00220686,-0.00000614,0.00002198,-0.00001598,-0
 .00001551,0.00000952,0.00002728,0.00000734,0.00001447,0.00000605,-0.00
 001089,-0.00001882,0.00000110,0.00000032,0.00000323,0.00000253,0.00001
 059,-0.00002278,0.00001194,0.00000592,-0.00000934,0.00000505,-0.000010
 79,0.00000597,0.00000291,0.00000692,-0.00000607,0.00000288,-0.00000187
 ,0.00000008,-0.00000523,0.00000440,-0.00000082,-0.00000956,-0.00000055
 ,-0.00000032,-0.00000218,0.00000113,0.00000115,-0.00000171,0.00000173,
 0.00000099,0.00000018,-0.00000259,-0.00000375,0.00000745,0.00000048,0.
 00000448,0.00000017,-0.00000110,-0.00000650,0.00000347,0.00000155,0.00
 000097,0.00000007,-0.00003629,-0.00007668,0.00002754,0.00000758,0.0000
 4594,0.00004385,0.00004057,0.00022914,0.00014457,0.00164108,0.00020670
 ,-0.00014371,-0.00045519,-0.00045604,0.00009178,0.00022698,-0.00014066
 ,0.00146433,-0.05721790,0.01675934,0.06797964,0.00025553,-0.00133352,0
 .00034203,-0.00228730,-0.00014542,-0.00077455,0.00039629,0.00047356,0.
 00045638,0.00017539,-0.00009045,0.00003976,0.00000580,0.00000930,-0.00
 006726,0.00013980,0.00005427,0.00042167,-0.00012870,-0.00024470,-0.001
 01876,-0.00007206,-0.00009383,0.00034694,-0.00003031,-0.00004707,-0.00
 002114,0.00001187,-0.00000884,0.00003158,-0.00000638,0.00002069,-0.000
 02058,0.00001130,-0.00006085,-0.00002253,-0.00004018,-0.00006352,0.000
 01488,-0.00000061,-0.00000331,-0.00000104,-0.00000580,-0.00000038,-0.0
 0000020,-0.00000297,-0.00000626,0.00000119,0.00000020,0.00000145,-0.00
 000120,0.00000024,0.00000004,-0.00000509,0.00004261,0.00001611,0.00004
 773,-0.00007073,0.00027343,-0.00001222,0.00101477,0.00060023,0.0009910
 1,0.00594322,0.00290234,0.00908557,-0.14365958,-0.04631712,-0.10994558
 ,0.00017803,-0.00014409,0.00002980,-0.00005551,-0.00010087,-0.00012463
 ,0.00060064,0.00006951,0.00021452,0.00009512,-0.00025814,-0.00049577,0
 .00043353,0.00004968,0.00000003,0.00001490,-0.00005926,0.00003496,0.00
 001671,0.00010888,0.00004665,-0.00001583,0.00000109,0.00002251,0.00001
 990,-0.00000985,0.00001952,0.00004793,0.00020587,-0.00000584,0.0003672
 7,-0.00026747,0.00072793,0.00022030,0.00022699,-0.00006135,-0.00022717
 ,0.00008987,-0.00023102,0.00002248,-0.00000684,0.00010660,0.00000556,0
 .00000685,0.00000454,-0.00000065,-0.00000350,0.00000635,0.00000714,0.0
 0000754,0.00000274,0.00000013,-0.00000094,-0.00000050,-0.00000157,0.00
 000439,0.00002401,0.00000411,0.00001964,-0.00000710,0.00002991,0.00001
 460,0.00000230,0.00000290,0.00000631,-0.00000232,0.00000024,0.00000644
 ,0.00001653,-0.00000256,0.00000098,0.00000608,0.00000515,0.00000330,-0
 .00000066,-0.00000236,0.00000072,0.00000139,0.00000149,-0.00000174,0.0
 0000267,0.00000188,0.00000253,-0.00000158,-0.00000052,0.00000025,0.000
 00411,0.00000118,0.00000301,-0.00000063,0.00000132,-0.00000236,0.00000
 112,0.00000167,-0.00001593,-0.00000206,-0.00005020,-0.00001455,-0.0000
 0057,0.00042368,-0.00011370,-0.00031323,0.00022229,0.00010263,-0.00002
 849,0.00000163,-0.00064760,0.00270621,-0.00005955,0.00013206,-0.000453
 34,-0.01852661,-0.00968776,-0.02259223,0.15452306,0.00056509,-0.006718
 19,0.00190812,-0.02165088,-0.01219658,-0.02299859,-0.00168858,0.001287
 85,-0.00074098,0.00003572,0.00009754,0.00029828,-0.00003195,0.00001185
 ,-0.00004525,0.00033738,0.00005639,0.00011085,-0.00077377,0.00066285,-
 0.00230869,-0.00011969,0.00002781,0.00024669,-0.00003937,0.00003182,0.
 00000934,-0.00000971,-0.00000267,0.00000646,0.00000039,0.00000900,-0.0
 0002669,0.00003336,0.00002617,0.00003630,-0.00004295,-0.00006950,0.000
 01896,0.00000187,0.00001187,0.00001012,-0.00000025,-0.00000019,-0.0000
 0547,-0.00000188,-0.00000365,0.00000179,-0.00000026,0.00000143,-0.0000
 0078,-0.00000006,0.00000182,-0.00000344,0.00020826,-0.00000277,-0.0000
 7573,-0.00005994,-0.00028303,-0.00016135,0.00047977,0.00091251,-0.0000
 0092,0.00696278,0.00416494,0.00963909,-0.04601284,-0.07293950,-0.05592
 740,0.00000889,0.00013789,0.00001404,0.00015426,0.00009836,-0.00014947
 ,0.00002372,0.00017886,0.00027124,-0.00145738,-0.00088855,-0.00162268,
 0.00096863,-0.00003524,0.00046997,0.00005286,0.00000443,0.00002909,-0.
 00001845,0.00025573,0.00004067,0.00000362,0.00001096,0.00000255,0.0000
 3482,-0.00002776,0.00004626,0.00008355,0.00027935,-0.00004759,0.000463
 34,-0.00002122,0.00123246,0.00022922,-0.00000678,-0.00005056,-0.000088
 88,-0.00005981,0.00001951,-0.00000497,0.00000980,0.00004508,0.00000338
 ,-0.00000187,0.00001682,0.00000371,-0.00000430,0.00000332,0.00000079,0
 .00000304,0.00000085,0.00000348,-0.00000025,0.00000560,0.00000189,0.00
 000721,-0.00001251,0.00000825,0.00000799,-0.00000120,0.00001864,0.0000
 2801,0.00000783,0.00000502,0.00000198,-0.00000474,-0.00000036,0.000001
 22,0.00000532,0.00000409,-0.00000050,-0.00000073,0.00000550,0.00000248
 ,-0.00000123,-0.00000026,-0.00000038,0.00000036,0.00000111,-0.00000065
 ,0.00000263,0.00000117,0.00000118,-0.00000089,-0.00000264,-0.00000111,
 0.00000085,0.00000178,0.00000143,-0.00000169,0.00000210,-0.00000184,0.
 00000306,0.00004093,0.00001522,-0.00001783,-0.00006697,-0.00003427,0.0
 0019593,-0.00004007,-0.00007363,-0.00029142,0.00023116,-0.00004292,0.0
 0000310,-0.00095290,-0.00067110,0.00216295,0.00029746,0.00009067,-0.00
 052971,0.00745170,0.00412835,0.00988316,0.05433531,0.08152026,0.000688
 83,-0.00031357,0.00073747,-0.00058196,-0.00040541,-0.00105811,-0.00045
 194,0.00023289,-0.00028977,0.00028239,-0.00002192,0.00015320,-0.000044
 29,-0.00000444,-0.00001473,0.00017106,-0.00005184,0.00028416,0.0008893
 4,0.00158741,0.00033640,-0.00014761,-0.00010941,0.00013646,-0.00002211
 ,-0.00001540,-0.00005042,0.00000313,0.00000734,0.00001963,0.00000381,0
 .00000102,-0.00000968,0.00003084,-0.00003954,-0.00001054,-0.00001497,-
 0.00002509,0.00000673,0.00000209,-0.00000156,0.00000250,-0.00000248,-0
 .00000938,-0.00000689,0.00000277,0.00000146,0.00000356,-0.00000184,-0.
 00000258,-0.00000103,-0.00000226,-0.00000107,-0.00000185,-0.00004817,-
 0.00002636,-0.00024285,0.00024071,-0.00037309,-0.00031546,-0.00176610,
 -0.00128970,0.00174413,-0.01682283,-0.00899878,-0.02482147,-0.11023924
 ,-0.05660543,-0.17673830,0.00027549,-0.00002756,0.00008872,-0.00001278
 ,0.00018510,0.00010824,-0.00004418,0.00017267,-0.00004074,-0.00016952,
 0.00017338,-0.00005623,0.00052134,-0.00025339,0.00031565,0.00000872,-0
 .00004650,0.00000174,0.00003127,0.00015631,0.00001390,0.00001300,0.000
 00022,-0.00000203,0.00001556,-0.00001026,0.00002604,0.00006698,0.00015
 467,0.00002657,0.00010221,0.00038853,0.00043695,-0.00000986,-0.0000054
 9,0.00000631,-0.00009204,-0.00015768,0.00001578,0.00000984,0.00000126,
 0.00001786,-0.00001030,-0.00000461,0.00001253,-0.00000017,0.00000235,0
 .00000685,0.,-0.00000215,0.00000212,0.00000040,0.00000053,-0.00000014,
 -0.00000490,-0.00001266,0.00001763,0.00000264,-0.00000629,0.00000414,-
 0.00000567,0.00000918,-0.00000768,0.00000147,-0.00000092,0.00000181,-0
 .00000137,0.00000418,0.00000391,0.00000034,0.00000089,0.00000002,0.000
 00311,0.00000116,-0.00000073,-0.00000078,0.00000051,-0.00000002,0.0000
 0180,-0.00000042,0.00000145,-0.00000008,0.00000008,0.00000141,-0.00000
 064,0.00000195,0.00000232,-0.00000004,-0.00000053,0.00000076,0.0000017
 8,-0.00000043,0.00000107,0.00006364,0.00001603,0.00005424,-0.00002297,
 0.00014034,0.00017615,0.00125928,0.00065793,0.00016337,-0.00022032,0.0
 0018129,0.00061137,0.00165075,0.00338121,-0.00449139,-0.00008055,0.000
 34453,0.00023517,0.00402519,0.00274017,0.00537633,0.12045217,0.0582789
 0,0.19700541\\-0.00000202,-0.00003271,-0.00001392,0.00005668,-0.000049
 27,0.00000862,0.00002537,0.00002317,-0.00001551,-0.00000308,-0.0000151
 6,-0.00001374,-0.00002133,0.00000623,0.00002589,-0.00004795,-0.0000038
 3,-0.00001467,0.00004461,-0.00000871,-0.00001677,-0.00004669,0.0000044
 1,0.00000408,0.00000796,0.00002308,0.00001758,0.00003299,-0.00002046,0
 .00000731,-0.00002583,-0.00001583,-0.00003397,0.00005080,0.00001928,-0
 .00002923,0.00000943,0.00003081,0.00003228,-0.00000311,-0.00001433,-0.
 00000279,-0.00001637,0.00001124,0.00004767,-0.00000719,0.00001088,-0.0
 0000138,0.00001156,0.00000041,0.00000028,-0.00000322,-0.00005109,0.000
 00922,0.00004076,-0.00002335,-0.00002243,-0.00006055,0.00000740,0.0000
 1165,0.00003432,0.00001469,0.00000579,-0.00002332,0.00002185,0.0000066
 7,-0.00000355,0.00002779,0.00003049,-0.00003643,-0.00002894,-0.0000189
 4,-0.00000660,-0.00000203,0.00001183,-0.00000915,-0.00000261,-0.000012
 24,0.00000335,0.00002951,-0.00000078,0.00001580,0.00001098,-0.00001867
 ,-0.00000514,0.00000074,0.00000754,-0.00000169,-0.00000374,-0.00000696
 ,0.00000242,0.00000281,-0.00000958,-0.00000565,-0.00001562,-0.00000733
 ,-0.00000450,-0.00000269,0.00002230,0.00000241,0.00000941,-0.00001194,
 -0.00000178,0.00001743,-0.00000812,-0.00000354,-0.00000037,0.00000833,
 0.00001203,0.00000598,-0.00000279,0.00000064,-0.00000152,-0.00001066,-
 0.00000634,0.00000093,0.00004424,0.00001226,0.00000027,-0.00000017,0.0
 0000401,0.00000250,0.00000441,-0.00000299,0.00000864,0.00000828,0.0000
 0517,0.00000539,-0.00001413,-0.00002508,-0.00001432,-0.00000839,-0.000
 00540,-0.00001103,-0.00000990,-0.00000464,0.00000140,0.00000191,0.0000
 0199,-0.00000459,0.00000131,-0.00000866,0.00000104,0.00000709,-0.00000
 003,-0.00000108,-0.00000599,-0.00001064,-0.00000159,0.00001202,-0.0000
 0048,-0.00000246,-0.00000797,-0.00000334,0.00001007,-0.00001162,0.0000
 0085,0.00000613,0.00000021,0.00000374,0.00000687,-0.00001721,0.0000024
 1,0.00001177,0.00000344,-0.00000697,0.00001187,0.00000096,-0.00000408,
 -0.00000714,0.00000181,0.00000270,-0.00000024,-0.00000093,0.00000178,-
 0.00000152,0.00000876,0.00000753,0.00000207,0.00000431,0.00001817,-0.0
 0000604,-0.00001141,0.00000561,-0.00000478,0.00000385\\\@


 A people that values its privileges above its principles soon loses both.
 -- Dwight D. Eisenhower
 Job cpu time:       0 days  0 hours 23 minutes 23.6 seconds.
 Elapsed time:       0 days  2 hours 53 minutes 45.5 seconds.
 File lengths (MBytes):  RWF=   1252 Int=      0 D2E=      0 Chk=     16 Scr=      1
 Normal termination of Gaussian 16 at Thu Feb 22 15:11:45 2024.
