 Entering Gaussian System, Link 0=g16
 Input=/Volumes/SSD-PMU3/b3lyp_6-31gd_freq/GTUZXBPERKBZEN-XKUGPKLMSA-N_calculating/gaussianinput0.gjf
 Output=/Volumes/SSD-PMU3/b3lyp_6-31gd_freq/GTUZXBPERKBZEN-XKUGPKLMSA-N_calculating/gaussianinput0.log
 Initial command:
 /Applications/g16/l1.exe "/Users/macmini_m1_2022/PycharmProjects/sphere_model/sphere_model_lib/Gau-79968.inp" -scrdir="/Users/macmini_m1_2022/PycharmProjects/sphere_model/sphere_model_lib/"
 Entering Link 1 = /Applications/g16/l1.exe PID=     79969.
  
 Copyright (c) 1988,1990,1992,1993,1995,1998,2003,2009,2016,
            Gaussian, Inc.  All Rights Reserved.
  
 This is part of the Gaussian(R) 16 program.  It is based on
 the Gaussian(R) 09 system (copyright 2009, Gaussian, Inc.),
 the Gaussian(R) 03 system (copyright 2003, Gaussian, Inc.),
 the Gaussian(R) 98 system (copyright 1998, Gaussian, Inc.),
 the Gaussian(R) 94 system (copyright 1995, Gaussian, Inc.),
 the Gaussian 92(TM) system (copyright 1992, Gaussian, Inc.),
 the Gaussian 90(TM) system (copyright 1990, Gaussian, Inc.),
 the Gaussian 88(TM) system (copyright 1988, Gaussian, Inc.),
 the Gaussian 86(TM) system (copyright 1986, Carnegie Mellon
 University), and the Gaussian 82(TM) system (copyright 1983,
 Carnegie Mellon University). Gaussian is a federally registered
 trademark of Gaussian, Inc.
  
 This software contains proprietary and confidential information,
 including trade secrets, belonging to Gaussian, Inc.
  
 This software is provided under written license and may be
 used, copied, transmitted, or stored only in accord with that
 written license.
  
 The following legend is applicable only to US Government
 contracts under FAR:
  
                    RESTRICTED RIGHTS LEGEND
  
 Use, reproduction and disclosure by the US Government is
 subject to restrictions as set forth in subparagraphs (a)
 and (c) of the Commercial Computer Software - Restricted
 Rights clause in FAR 52.227-19.
  
 Gaussian, Inc.
 340 Quinnipiac St., Bldg. 40, Wallingford CT 06492
  
  
 ---------------------------------------------------------------
 Warning -- This program may not be used in any manner that
 competes with the business of Gaussian, Inc. or will provide
 assistance to any competitor of Gaussian, Inc.  The licensee
 of this program is prohibited from giving any competitor of
 Gaussian, Inc. access to this program.  By using this program,
 the user acknowledges that Gaussian, Inc. is engaged in the
 business of creating and licensing software in the field of
 computational chemistry and represents and warrants to the
 licensee that it is not a competitor of Gaussian, Inc. and that
 it will not use this program in any manner prohibited above.
 ---------------------------------------------------------------
  

 Cite this work as:
 Gaussian 16, Revision A.03,
 M. J. Frisch, G. W. Trucks, H. B. Schlegel, G. E. Scuseria, 
 M. A. Robb, J. R. Cheeseman, G. Scalmani, V. Barone, 
 G. A. Petersson, H. Nakatsuji, X. Li, M. Caricato, A. V. Marenich, 
 J. Bloino, B. G. Janesko, R. Gomperts, B. Mennucci, H. P. Hratchian, 
 J. V. Ortiz, A. F. Izmaylov, J. L. Sonnenberg, D. Williams-Young, 
 F. Ding, F. Lipparini, F. Egidi, J. Goings, B. Peng, A. Petrone, 
 T. Henderson, D. Ranasinghe, V. G. Zakrzewski, J. Gao, N. Rega, 
 G. Zheng, W. Liang, M. Hada, M. Ehara, K. Toyota, R. Fukuda, 
 J. Hasegawa, M. Ishida, T. Nakajima, Y. Honda, O. Kitao, H. Nakai, 
 T. Vreven, K. Throssell, J. A. Montgomery, Jr., J. E. Peralta, 
 F. Ogliaro, M. J. Bearpark, J. J. Heyd, E. N. Brothers, K. N. Kudin, 
 V. N. Staroverov, T. A. Keith, R. Kobayashi, J. Normand, 
 K. Raghavachari, A. P. Rendell, J. C. Burant, S. S. Iyengar, 
 J. Tomasi, M. Cossi, J. M. Millam, M. Klene, C. Adamo, R. Cammi, 
 J. W. Ochterski, R. L. Martin, K. Morokuma, O. Farkas, 
 J. B. Foresman, and D. J. Fox, Gaussian, Inc., Wallingford CT, 2016.
 
 ******************************************
 Gaussian 16:  EM64M-G16RevA.03 25-Dec-2016
                23-Feb-2024 
 ******************************************
 %nprocshared=10
 Will use up to   10 processors via shared memory.
 %mem=12GB
 %chk= 0.chk
 ---------------------
 # freq b3lyp/6-31g(d)
 ---------------------
 1/10=4,30=1,38=1/1,3;
 2/12=2,17=6,18=5,40=1/2;
 3/5=1,6=6,7=1,11=2,25=1,30=1,71=2,74=-5,140=1/1,2,3;
 4//1;
 5/5=2,38=5,98=1/2;
 8/6=4,10=90,11=11/1;
 11/6=1,8=1,9=11,15=111,16=1/1,2,10;
 10/6=1/2;
 6/7=2,8=2,9=2,10=2,28=1/1;
 7/8=1,10=1,25=1/1,2,3,16;
 1/10=4,30=1/3;
 99//99;
 ---------
 good luck
 ---------
 Symbolic Z-matrix:
 Charge =  0 Multiplicity = 1
 O                     1.21706   0.        0. 
 C                     0.        0.        0. 
 C                    -0.84844  -1.26605   0.00691 
 C                    -1.72753  -1.25578   1.28743 
 C                    -1.76156  -1.25745  -1.24365 
 C                    -2.652     0.       -1.22489 
 C                    -1.76155   1.25745  -1.24365 
 C                    -0.84844   1.26605   0.00691 
 C                    -1.72753   1.25578   1.28743 
 C                    -2.64066   0.        1.3295 
 Si                   -3.72988   0.        2.91986 
 C                    -4.8351   -1.54226   2.95565 
 C                    -4.83509   1.54227   2.95565 
 C                    -2.63088  -0.00001   4.46629 
 C                    -3.52325   0.        0.0498 
 H                    -0.17939  -2.13309   0.00266 
 H                    -2.33112  -2.17386   1.30266 
 H                    -1.07769  -1.28968   2.17194 
 H                    -1.15202  -1.28178  -2.15666 
 H                    -2.38045  -2.16531  -1.24758 
 H                    -3.30228   0.       -2.10985 
 H                    -1.15202   1.28178  -2.15666 
 H                    -2.38044   2.16532  -1.24758 
 H                    -0.17939   2.13309   0.00266 
 H                    -2.33111   2.17386   1.30266 
 H                    -1.07769   1.28968   2.17194 
 H                    -4.24878  -2.4686    2.96697 
 H                    -5.45965  -1.54107   3.8575 
 H                    -5.50958  -1.58605   2.09244 
 H                    -5.45965   1.54108   3.85751 
 H                    -5.50957   1.58606   2.09245 
 H                    -4.24876   2.46861   2.96698 
 H                    -3.24954  0.         5.37222 
 H                    -1.98516  -0.88477   4.51296 
 H                    -1.98516   0.88476   4.51297 
 H                    -4.17927  -0.88151   0.04088 
 H                    -4.17927   0.88151   0.04088 
 

 GradGradGradGradGradGradGradGradGradGradGradGradGradGradGradGradGradGrad
 Berny optimization.
 Initialization pass.
 Trust Radius=3.00D-01 FncErr=1.00D-07 GrdErr=1.00D-07 EigMax=2.50D+02 EigMin=1.00D-04
 Number of steps in this run=      2 maximum allowed number of steps=      2.
 GradGradGradGradGradGradGradGradGradGradGradGradGradGradGradGradGradGrad

                          Input orientation:                          
 ---------------------------------------------------------------------
 Center     Atomic      Atomic             Coordinates (Angstroms)
 Number     Number       Type             X           Y           Z
 ---------------------------------------------------------------------
      1          8           0        1.217056    0.000000    0.000000
      2          6           0        0.000000    0.000000    0.000000
      3          6           0       -0.848439   -1.266053    0.006912
      4          6           0       -1.727533   -1.255781    1.287431
      5          6           0       -1.761555   -1.257451   -1.243650
      6          6           0       -2.652004    0.000001   -1.224886
      7          6           0       -1.761554    1.257452   -1.243651
      8          6           0       -0.848439    1.266053    0.006912
      9          6           0       -1.727532    1.255782    1.287431
     10          6           0       -2.640657    0.000001    1.329495
     11         14           0       -3.729877    0.000002    2.919855
     12          6           0       -4.835097   -1.542260    2.955646
     13          6           0       -4.835087    1.542271    2.955652
     14          6           0       -2.630882   -0.000006    4.466292
     15          6           0       -3.523254    0.000001    0.049798
     16          1           0       -0.179393   -2.133088    0.002662
     17          1           0       -2.331115   -2.173855    1.302655
     18          1           0       -1.077693   -1.289679    2.171936
     19          1           0       -1.152022   -1.281778   -2.156662
     20          1           0       -2.380446   -2.165314   -1.247579
     21          1           0       -3.302283    0.000001   -2.109854
     22          1           0       -1.152020    1.281778   -2.156662
     23          1           0       -2.380444    2.165315   -1.247580
     24          1           0       -0.179392    2.133088    0.002661
     25          1           0       -2.331113    2.173857    1.302655
     26          1           0       -1.077691    1.289679    2.171936
     27          1           0       -4.248781   -2.468598    2.966968
     28          1           0       -5.459655   -1.541073    3.857503
     29          1           0       -5.509579   -1.586045    2.092441
     30          1           0       -5.459645    1.541084    3.857508
     31          1           0       -5.509568    1.586064    2.092446
     32          1           0       -4.248764    2.468605    2.966977
     33          1           0       -3.249535   -0.000004    5.372217
     34          1           0       -1.985162   -0.884773    4.512964
     35          1           0       -1.985155    0.884756    4.512967
     36          1           0       -4.179271   -0.881508    0.040884
     37          1           0       -4.179270    0.881511    0.040884
 ---------------------------------------------------------------------
                    Distance matrix (angstroms):
                    1          2          3          4          5
     1  O    0.000000
     2  C    1.217056   0.000000
     3  C    2.422645   1.524069   0.000000
     4  C    3.450372   2.493759   1.553268   0.000000
     5  C    3.464098   2.496182   1.548470   2.531310   0.000000
     6  C    4.058321   2.921211   2.524493   2.956919   1.540921
     7  C    3.464097   2.496182   2.960703   3.567054   2.514903
     8  C    2.422645   1.524069   2.532106   2.961787   2.960702
     9  C    3.450372   2.493759   2.961787   2.511563   3.567053
    10  C    4.080381   2.956455   2.562062   1.553240   2.995844
    11  Si   5.744362   4.736828   4.288452   2.872487   4.773914
    12  C    6.909628   5.873038   4.966363   3.538639   5.211704
    13  C    6.909625   5.873035   5.698694   4.502105   5.909245
    14  C    5.895285   5.183561   4.966493   3.535275   5.911035
    15  C    4.740572   3.523606   2.959623   2.516612   2.521463
    16  H    2.549537   2.140620   1.095167   2.194775   2.196195
    17  H    4.360284   3.443349   2.168267   1.098819   2.765477
    18  H    3.412690   2.746270   2.177256   1.098085   3.483523
    19  H    3.450605   2.760670   2.184825   3.491943   1.098050
    20  H    4.380303   3.451313   2.174733   2.771249   1.098752
    21  H    4.987575   3.918744   3.479216   3.949477   2.169179
    22  H    3.450604   2.760669   3.356286   4.316503   2.766371
    23  H    4.380303   3.451313   3.961701   4.307722   3.478271
    24  H    2.549537   2.140620   3.464362   3.941041   3.943639
    25  H    4.360283   3.443349   3.963616   3.482378   4.310677
    26  H    3.412688   2.746269   3.357328   2.772005   4.315295
    27  H    6.691207   5.740123   4.665873   3.263198   5.038102
    28  H    7.863441   6.860253   6.013817   4.540418   6.306992
    29  H    7.220905   6.103221   5.116449   3.880849   5.028435
    30  H    7.863437   6.860250   6.631013   5.325074   6.894163
    31  H    7.220900   6.103218   5.848944   4.798742   5.767384
    32  H    6.691200   5.740118   5.854218   4.800889   6.148096
    33  H    6.986498   6.278550   6.012873   4.536402   6.896735
    34  H    5.603915   5.009045   4.662834   3.257005   5.772997
    35  H    5.603911   5.009042   5.120804   3.879736   6.146356
    36  H    5.468004   4.271421   3.353129   2.775784   2.763460
    37  H    5.468004   4.271420   3.963284   3.483233   3.474267
                    6          7          8          9         10
     6  C    0.000000
     7  C    1.540921   0.000000
     8  C    2.524492   1.548470   0.000000
     9  C    2.956919   2.531311   1.553267   0.000000
    10  C    2.554406   2.995845   2.562061   1.553239   0.000000
    11  Si   4.282603   4.773914   4.288450   2.872486   1.927601
    12  C    4.961987   5.909243   5.698692   4.502104   3.136639
    13  C    4.961990   5.211705   4.966359   3.538635   3.136639
    14  C    5.691217   5.911039   4.966496   3.535280   3.136812
    15  C    1.543987   2.521464   2.959622   2.516613   1.554542
    16  H    3.488660   3.943639   3.464361   3.941041   3.516870
    17  H    3.349191   4.310678   3.963615   3.482378   2.195948
    18  H    3.959814   4.315296   3.357328   2.772005   2.194502
    19  H    2.181997   2.766371   3.356286   4.316503   4.001535
    20  H    2.182395   3.478271   3.961701   4.307722   3.376035
    21  H    1.098194   2.169179   3.479215   3.949477   3.502409
    22  H    2.181997   1.098049   2.184825   3.491943   4.001535
    23  H    2.182394   1.098752   2.174733   2.771250   3.376035
    24  H    3.488659   2.196194   1.095167   2.194775   3.516870
    25  H    3.349192   2.765478   2.168267   1.098819   2.195948
    26  H    3.959814   3.483524   2.177256   1.098085   2.194502
    27  H    5.120090   6.148094   5.854219   4.800890   3.370662
    28  H    6.007370   6.894162   6.631012   5.325074   4.088090
    29  H    4.656816   5.767380   5.848942   4.798740   3.365760
    30  H    6.007372   6.306992   6.013813   4.540414   4.088090
    31  H    4.656819   5.028433   5.116442   3.880842   3.365760
    32  H    5.120094   5.038104   4.665868   3.263192   3.370662
    33  H    6.624108   6.896738   6.012875   4.536405   4.088317
    34  H    5.843837   6.146360   5.120810   3.879744   3.368527
    35  H    5.843837   5.773002   4.662836   3.257010   3.368526
    36  H    2.170663   3.474268   3.963283   3.483233   2.192010
    37  H    2.170662   2.763460   3.353127   2.775784   2.192010
                   11         12         13         14         15
    11  Si   0.000000
    12  C    1.897726   0.000000
    13  C    1.897726   3.084531   0.000000
    14  C    1.897171   3.085314   3.085315   0.000000
    15  C    2.877485   3.541674   3.541679   4.505746   0.000000
    16  H    5.066165   5.544797   6.626002   5.521216   3.966572
    17  H    3.049184   3.066140   4.776177   3.850205   2.777858
    18  H    3.042489   3.846568   4.769923   3.056096   3.485328
    19  H    5.836036   6.306234   6.904779   6.906047   3.483413
    20  H    4.886416   4.907200   6.118709   6.115521   2.770882
    21  H    5.047852   5.512475   5.512480   6.610331   2.170927
    22  H    5.836036   6.904777   6.306234   6.906050   3.483413
    23  H    4.886416   6.118704   4.907200   6.115527   2.770882
    24  H    5.066164   6.626001   5.544792   5.521222   3.966572
    25  H    3.049184   4.776174   3.066135   3.850213   2.777859
    26  H    3.042489   4.769924   3.846562   3.056102   3.485329
    27  H    2.522988   1.096356   4.053511   3.310516   3.889762
    28  H    2.499245   1.097005   3.272679   3.278333   4.541275
    29  H    2.523390   1.096342   3.314579   4.054329   3.260892
    30  H    2.499245   3.272679   1.097004   3.278334   4.541278
    31  H    2.523390   3.314579   1.096343   4.054331   3.260897
    32  H    2.522987   4.053511   1.096357   3.310518   3.889769
    33  H    2.498961   3.276030   3.276030   1.097010   5.329453
    34  H    2.522866   3.313557   4.054360   1.096333   4.802958
    35  H    2.522866   4.054359   3.313558   1.096333   4.802959
    36  H    3.044255   3.059827   3.847164   4.770617   1.098861
    37  H    3.044255   3.847156   3.059832   4.770620   1.098861
                   16         17         18         19         20
    16  H    0.000000
    17  H    2.514270   0.000000
    18  H    2.494801   1.763089   0.000000
    19  H    2.516628   3.762039   4.329243   0.000000
    20  H    2.531556   2.550725   3.762577   1.765246   0.000000
    21  H    4.331886   4.161014   4.994577   2.503751   2.506370
    22  H    4.155718   5.029765   5.035343   2.563556   3.770664
    23  H    4.988386   5.033342   5.032617   3.770663   4.330629
    24  H    4.266176   4.986948   4.150667   4.155718   4.988386
    25  H    4.986949   4.347712   3.784547   5.029766   5.033342
    26  H    4.150665   3.784546   2.579358   5.035343   5.032617
    27  H    5.045750   2.556219   3.475302   6.103281   4.620072
    28  H    6.564408   4.088450   4.701694   7.402237   5.994420
    29  H    5.751288   3.327449   4.442495   6.093912   4.613324
    30  H    7.499363   5.487781   5.482324   7.917980   7.020026
    31  H    6.827156   4.986314   5.283723   6.728123   5.917771
    32  H    6.820742   5.291482   4.981213   7.064479   6.536536
    33  H    6.542778   4.704302   4.077004   7.920008   7.018945
    34  H    5.016165   3.476708   2.543199   6.733175   5.914380
    35  H    5.719354   4.447572   3.321458   7.062006   6.530166
    36  H    4.191293   2.584165   3.785204   3.762135   2.558137
    37  H    5.008821   3.787216   4.344563   4.321257   3.765508
                   21         22         23         24         25
    21  H    0.000000
    22  H    2.503752   0.000000
    23  H    2.506370   1.765246   0.000000
    24  H    4.331885   2.516627   2.531555   0.000000
    25  H    4.161014   3.762039   2.550726   2.514269   0.000000
    26  H    4.994578   4.329243   3.762578   2.494801   1.763090
    27  H    5.723981   7.064477   6.536532   6.820745   5.291482
    28  H    6.529817   7.917979   7.020023   7.499363   5.487780
    29  H    5.004696   6.728121   5.917764   6.827153   4.986308
    30  H    6.529821   7.402237   5.994420   6.564403   4.088446
    31  H    5.004701   6.093910   4.613320   5.751279   3.327438
    32  H    5.723989   6.103283   4.620075   5.045744   2.556214
    33  H    7.482257   7.920010   7.018948   6.542782   4.704307
    34  H    6.810239   7.062010   6.530172   5.719364   4.447582
    35  H    6.810240   6.733178   5.914388   5.016171   3.476718
    36  H    2.484319   4.321257   3.765508   5.008820   3.787217
    37  H    2.484319   3.762136   2.558137   4.191292   2.584165
                   26         27         28         29         30
    26  H    0.000000
    27  H    4.981218   0.000000
    28  H    5.482326   1.766231   0.000000
    29  H    5.283724   1.770115   1.766340   0.000000
    30  H    4.701689   4.282149   3.082157   3.591224   0.000000
    31  H    4.442488   4.335280   3.591226   3.172109   1.766341
    32  H    3.475293   4.937203   4.282150   4.335280   1.766231
    33  H    4.077007   3.588547   3.090936   4.287220   3.090935
    34  H    3.321469   3.165845   3.596173   4.332693   4.287941
    35  H    2.543203   4.331178   4.287940   4.938154   3.596175
    36  H    4.344564   3.329513   4.079337   2.544598   4.698396
    37  H    3.785205   4.448599   4.698391   3.473822   4.079340
                   31         32         33         34         35
    31  H    0.000000
    32  H    1.770116   0.000000
    33  H    4.287220   3.588547   0.000000
    34  H    4.938156   4.331179   1.766287   0.000000
    35  H    4.332695   3.165847   1.766286   1.769529   0.000000
    36  H    3.473832   4.448607   5.483117   4.981328   5.285202
    37  H    2.544601   3.329522   5.483118   5.285203   4.981333
                   36         37
    36  H    0.000000
    37  H    1.763019   0.000000
 Stoichiometry    C13H22OSi
 Framework group  C1[X(C13H22OSi)]
 Deg. of freedom   105
 Full point group                 C1      NOp   1
 Largest Abelian subgroup         C1      NOp   1
 Largest concise Abelian subgroup C1      NOp   1
                         Standard orientation:                         
 ---------------------------------------------------------------------
 Center     Atomic      Atomic             Coordinates (Angstroms)
 Number     Number       Type             X           Y           Z
 ---------------------------------------------------------------------
      1          8           0       -3.166934    1.951429    0.000002
      2          6           0       -2.367678    1.033597    0.000001
      3          6           0       -1.805286    0.398294   -1.266053
      4          6           0       -0.262282    0.576265   -1.255781
      5          6           0       -2.148732   -1.111584   -1.257452
      6          6           0       -1.549812   -1.770787   -0.000001
      7          6           0       -2.148732   -1.111586    1.257451
      8          6           0       -1.805285    0.398292    1.266053
      9          6           0       -0.262281    0.576264    1.255782
     10          6           0        0.369101   -0.084736   -0.000000
     11         14           0        2.283761    0.138246    0.000001
     12          6           0        3.036563   -0.671740   -1.542262
     13          6           0        3.036562   -0.671731    1.542269
     14          6           0        2.728270    1.982608   -0.000006
     15          6           0       -0.016360   -1.590732   -0.000001
     16          1           0       -2.247862    0.900059   -2.133087
     17          1           0        0.145579    0.131078   -2.173856
     18          1           0       -0.021998    1.647202   -1.289678
     19          1           0       -3.237560   -1.251496   -1.281779
     20          1           0       -1.745262   -1.580895   -2.165316
     21          1           0       -1.790157   -2.842358   -0.000002
     22          1           0       -3.237560   -1.251497    1.281777
     23          1           0       -1.745263   -1.580897    2.165313
     24          1           0       -2.247862    0.900055    2.133089
     25          1           0        0.145579    0.131075    2.173856
     26          1           0       -0.021998    1.647201    1.289680
     27          1           0        2.660061   -0.222139   -2.468600
     28          1           0        4.126846   -0.550484   -1.541076
     29          1           0        2.828525   -1.747272   -1.586048
     30          1           0        4.126844   -0.550476    1.541081
     31          1           0        2.828523   -1.747263    1.586061
     32          1           0        2.660058   -0.222124    2.468603
     33          1           0        3.817742    2.110988   -0.000004
     34          1           0        2.339414    2.500223   -0.884772
     35          1           0        2.339413    2.500229    0.884757
     36          1           0        0.407732   -2.091315   -0.881511
     37          1           0        0.407732   -2.091315    0.881508
 ---------------------------------------------------------------------
 Rotational constants (GHZ):           0.9554016           0.3985692           0.3788285
 Standard basis: 6-31G(d) (6D, 7F)
 There are   273 symmetry adapted cartesian basis functions of A   symmetry.
 There are   273 symmetry adapted basis functions of A   symmetry.
   273 basis functions,   532 primitive gaussians,   273 cartesian basis functions
    61 alpha electrons       61 beta electrons
       nuclear repulsion energy      1223.4583504641 Hartrees.
 NAtoms=   37 NActive=   37 NUniq=   37 SFac= 1.00D+00 NAtFMM=   60 NAOKFM=F Big=F
 Integral buffers will be    131072 words long.
 Raffenetti 2 integral format.
 Two-electron integral symmetry is turned on.
 One-electron integrals computed using PRISM.
 NBasis=   273 RedAO= T EigKep=  2.15D-03  NBF=   273
 NBsUse=   273 1.00D-06 EigRej= -1.00D+00 NBFU=   273
 ExpMin= 7.78D-02 ExpMax= 1.61D+04 ExpMxC= 2.43D+03 IAcc=3 IRadAn=         5 AccDes= 0.00D+00
 Harris functional with IExCor=  402 and IRadAn=       5 diagonalized for initial guess.
 HarFok:  IExCor=  402 AccDes= 0.00D+00 IRadAn=         5 IDoV= 1 UseB2=F ITyADJ=14
 ICtDFT=  3500011 ScaDFX=  1.000000  1.000000  1.000000  1.000000
 FoFCou: FMM=F IPFlag=           0 FMFlag=      100000 FMFlg1=           0
         NFxFlg=           0 DoJE=T BraDBF=F KetDBF=T FulRan=T
         wScrn=  0.000000 ICntrl=       500 IOpCl=  0 I1Cent=   200000004 NGrid=           0
         NMat0=    1 NMatS0=      1 NMatT0=    0 NMatD0=    1 NMtDS0=    0 NMtDT0=    0
 Petite list used in FoFCou.
 Requested convergence on RMS density matrix=1.00D-08 within 128 cycles.
 Requested convergence on MAX density matrix=1.00D-06.
 Requested convergence on             energy=1.00D-06.
 No special actions if energy rises.
 Integral accuracy reduced to 1.0D-05 until final iterations.
 Initial convergence to 1.0D-05 achieved.  Increase integral accuracy.
 SCF Done:  E(RB3LYP) =  -873.402620818     A.U. after   13 cycles
            NFock= 13  Conv=0.97D-08     -V/T= 2.0079
 DoSCS=F DFT=T ScalE2(SS,OS)=  1.000000  1.000000
 Range of M.O.s used for correlation:     1   273
 NBasis=   273 NAE=    61 NBE=    61 NFC=     0 NFV=     0
 NROrb=    273 NOA=    61 NOB=    61 NVA=   212 NVB=   212
 Symmetrizing basis deriv contribution to polar:
 IMax=3 JMax=2 DiffMx= 0.00D+00
 G2DrvN: will do    38 centers at a time, making    1 passes.
 Calling FoFCou, ICntrl=  3107 FMM=F I1Cent=   0 AccDes= 0.00D+00.
 End of G2Drv F.D. properties file   721 does not exist.
 End of G2Drv F.D. properties file   722 does not exist.
 End of G2Drv F.D. properties file   788 does not exist.
          IDoAtm=1111111111111111111111111111111111111
          Differentiating once with respect to electric field.
                with respect to dipole field.
          Differentiating once with respect to nuclear coordinates.
 Keep R1 ints in memory in canonical form, NReq=710497893.
          There are   114 degrees of freedom in the 1st order CPHF.  IDoFFX=6 NUNeed=     3.
    111 vectors produced by pass  0 Test12= 1.29D-14 1.00D-09 XBig12= 1.10D+02 2.43D+00.
 AX will form   111 AO Fock derivatives at one time.
    111 vectors produced by pass  1 Test12= 1.29D-14 1.00D-09 XBig12= 9.24D+00 8.74D-01.
    111 vectors produced by pass  2 Test12= 1.29D-14 1.00D-09 XBig12= 9.24D-02 3.61D-02.
    111 vectors produced by pass  3 Test12= 1.29D-14 1.00D-09 XBig12= 3.47D-04 4.12D-03.
    111 vectors produced by pass  4 Test12= 1.29D-14 1.00D-09 XBig12= 3.57D-07 6.59D-05.
     57 vectors produced by pass  5 Test12= 1.29D-14 1.00D-09 XBig12= 2.87D-10 1.94D-06.
      3 vectors produced by pass  6 Test12= 1.29D-14 1.00D-09 XBig12= 2.52D-13 7.10D-08.
      2 vectors produced by pass  7 Test12= 1.29D-14 1.00D-09 XBig12= 2.38D-16 1.93D-09.
 InvSVY:  IOpt=1 It=  1 EMax= 7.11D-15
 Solved reduced A of dimension   617 with   114 vectors.
 Isotropic polarizability for W=    0.000000      148.02 Bohr**3.
 End of Minotr F.D. properties file   721 does not exist.
 End of Minotr F.D. properties file   722 does not exist.
 End of Minotr F.D. properties file   788 does not exist.

 **********************************************************************

            Population analysis using the SCF density.

 **********************************************************************

 Orbital symmetries:
       Occupied  (A) (A) (A) (A) (A) (A) (A) (A) (A) (A) (A) (A)
                 (A) (A) (A) (A) (A) (A) (A) (A) (A) (A) (A) (A)
                 (A) (A) (A) (A) (A) (A) (A) (A) (A) (A) (A) (A)
                 (A) (A) (A) (A) (A) (A) (A) (A) (A) (A) (A) (A)
                 (A) (A) (A) (A) (A) (A) (A) (A) (A) (A) (A) (A)
                 (A)
       Virtual   (A) (A) (A) (A) (A) (A) (A) (A) (A) (A) (A) (A)
                 (A) (A) (A) (A) (A) (A) (A) (A) (A) (A) (A) (A)
                 (A) (A) (A) (A) (A) (A) (A) (A) (A) (A) (A) (A)
                 (A) (A) (A) (A) (A) (A) (A) (A) (A) (A) (A) (A)
                 (A) (A) (A) (A) (A) (A) (A) (A) (A) (A) (A) (A)
                 (A) (A) (A) (A) (A) (A) (A) (A) (A) (A) (A) (A)
                 (A) (A) (A) (A) (A) (A) (A) (A) (A) (A) (A) (A)
                 (A) (A) (A) (A) (A) (A) (A) (A) (A) (A) (A) (A)
                 (A) (A) (A) (A) (A) (A) (A) (A) (A) (A) (A) (A)
                 (A) (A) (A) (A) (A) (A) (A) (A) (A) (A) (A) (A)
                 (A) (A) (A) (A) (A) (A) (A) (A) (A) (A) (A) (A)
                 (A) (A) (A) (A) (A) (A) (A) (A) (A) (A) (A) (A)
                 (A) (A) (A) (A) (A) (A) (A) (A) (A) (A) (A) (A)
                 (A) (A) (A) (A) (A) (A) (A) (A) (A) (A) (A) (A)
                 (A) (A) (A) (A) (A) (A) (A) (A) (A) (A) (A) (A)
                 (A) (A) (A) (A) (A) (A) (A) (A) (A) (A) (A) (A)
                 (A) (A) (A) (A) (A) (A) (A) (A) (A) (A) (A) (A)
                 (A) (A) (A) (A) (A) (A) (A) (A)
 The electronic state is 1-A.
 Alpha  occ. eigenvalues --  -66.11833 -19.12699 -10.25806 -10.19169 -10.18994
 Alpha  occ. eigenvalues --  -10.18994 -10.18921 -10.18919 -10.18775 -10.18774
 Alpha  occ. eigenvalues --  -10.18473 -10.18294 -10.16313 -10.16313 -10.16236
 Alpha  occ. eigenvalues --   -5.26278  -3.62154  -3.62152  -3.62140  -1.02503
 Alpha  occ. eigenvalues --   -0.86816  -0.77573  -0.77235  -0.75530  -0.70836
 Alpha  occ. eigenvalues --   -0.67949  -0.67764  -0.67188  -0.64343  -0.59858
 Alpha  occ. eigenvalues --   -0.58273  -0.56614  -0.50720  -0.46921  -0.45707
 Alpha  occ. eigenvalues --   -0.45197  -0.44074  -0.43480  -0.43437  -0.41503
 Alpha  occ. eigenvalues --   -0.41492  -0.41137  -0.40576  -0.40546  -0.40026
 Alpha  occ. eigenvalues --   -0.39364  -0.38515  -0.38462  -0.38289  -0.36018
 Alpha  occ. eigenvalues --   -0.35907  -0.34375  -0.33522  -0.33470  -0.33413
 Alpha  occ. eigenvalues --   -0.30543  -0.30099  -0.29287  -0.28878  -0.25446
 Alpha  occ. eigenvalues --   -0.22504
 Alpha virt. eigenvalues --   -0.00454   0.05756   0.08301   0.08393   0.08590
 Alpha virt. eigenvalues --    0.11313   0.11322   0.11577   0.12242   0.12578
 Alpha virt. eigenvalues --    0.13396   0.13899   0.14414   0.14805   0.15211
 Alpha virt. eigenvalues --    0.16147   0.16455   0.16654   0.17521   0.18655
 Alpha virt. eigenvalues --    0.18675   0.19610   0.20039   0.20328   0.20404
 Alpha virt. eigenvalues --    0.21399   0.22097   0.23017   0.23661   0.23832
 Alpha virt. eigenvalues --    0.24204   0.26508   0.26547   0.27137   0.28011
 Alpha virt. eigenvalues --    0.28203   0.30252   0.31437   0.34604   0.37159
 Alpha virt. eigenvalues --    0.39048   0.39076   0.39331   0.46478   0.46874
 Alpha virt. eigenvalues --    0.49155   0.52683   0.52992   0.55476   0.55739
 Alpha virt. eigenvalues --    0.58482   0.58843   0.60811   0.62005   0.63391
 Alpha virt. eigenvalues --    0.63423   0.64118   0.64426   0.65630   0.65662
 Alpha virt. eigenvalues --    0.67345   0.68801   0.70141   0.70159   0.71028
 Alpha virt. eigenvalues --    0.73621   0.74927   0.75394   0.75846   0.76259
 Alpha virt. eigenvalues --    0.76587   0.77286   0.78185   0.80106   0.81599
 Alpha virt. eigenvalues --    0.82912   0.84237   0.84244   0.85041   0.85427
 Alpha virt. eigenvalues --    0.85942   0.87118   0.87534   0.87799   0.88040
 Alpha virt. eigenvalues --    0.89065   0.90197   0.91014   0.91630   0.92381
 Alpha virt. eigenvalues --    0.93383   0.93542   0.94997   0.95757   0.96025
 Alpha virt. eigenvalues --    0.96144   0.96474   0.96790   0.97115   0.98448
 Alpha virt. eigenvalues --    1.00322   1.00999   1.01682   1.02258   1.05074
 Alpha virt. eigenvalues --    1.05420   1.10558   1.11548   1.12444   1.16759
 Alpha virt. eigenvalues --    1.17865   1.21663   1.22671   1.23149   1.26875
 Alpha virt. eigenvalues --    1.30628   1.33034   1.35016   1.35270   1.42087
 Alpha virt. eigenvalues --    1.44440   1.44964   1.53294   1.57027   1.60528
 Alpha virt. eigenvalues --    1.62532   1.64016   1.66081   1.66376   1.67607
 Alpha virt. eigenvalues --    1.71807   1.72524   1.72671   1.72949   1.74247
 Alpha virt. eigenvalues --    1.74365   1.77327   1.79859   1.80083   1.83645
 Alpha virt. eigenvalues --    1.83951   1.84503   1.84634   1.85050   1.86276
 Alpha virt. eigenvalues --    1.87724   1.89302   1.91261   1.94979   1.99116
 Alpha virt. eigenvalues --    2.00397   2.05269   2.05481   2.07911   2.07944
 Alpha virt. eigenvalues --    2.09596   2.11035   2.14107   2.14660   2.15711
 Alpha virt. eigenvalues --    2.20940   2.23246   2.23365   2.24300   2.26866
 Alpha virt. eigenvalues --    2.27228   2.28646   2.28692   2.28926   2.29392
 Alpha virt. eigenvalues --    2.29612   2.29753   2.32742   2.34205   2.35483
 Alpha virt. eigenvalues --    2.35600   2.39170   2.41140   2.43382   2.47286
 Alpha virt. eigenvalues --    2.48746   2.51293   2.52536   2.56227   2.63584
 Alpha virt. eigenvalues --    2.63768   2.68654   2.69362   2.71315   2.74275
 Alpha virt. eigenvalues --    2.76084   2.76207   2.80625   2.80670   2.81222
 Alpha virt. eigenvalues --    3.01704   3.04067   3.13220   4.09364   4.13741
 Alpha virt. eigenvalues --    4.20886   4.23797   4.23858   4.27399   4.28907
 Alpha virt. eigenvalues --    4.31458   4.50020   4.57215   4.69024   4.77699
 Alpha virt. eigenvalues --    4.81382   4.84501
          Condensed to atoms (all electrons):
               1          2          3          4          5          6
     1  O    8.018214   0.579089  -0.074415   0.000796   0.001065   0.000067
     2  C    0.579089   4.514517   0.333548  -0.030523  -0.027800  -0.020542
     3  C   -0.074415   0.333548   5.233686   0.329512   0.338383  -0.024223
     4  C    0.000796  -0.030523   0.329512   5.130502  -0.040059  -0.016550
     5  C    0.001065  -0.027800   0.338383  -0.040059   5.097806   0.375711
     6  C    0.000067  -0.020542  -0.024223  -0.016550   0.375711   4.939352
     7  C    0.001065  -0.027800  -0.008552  -0.003032  -0.048486   0.375711
     8  C   -0.074415   0.333548  -0.121907  -0.008761  -0.008552  -0.024223
     9  C    0.000796  -0.030523  -0.008761  -0.053107  -0.003032  -0.016550
    10  C    0.000071  -0.021036  -0.023690   0.374295  -0.017068  -0.025378
    11  Si  -0.000013  -0.000118   0.002763  -0.013250  -0.000028   0.002632
    12  C    0.000000  -0.000003   0.000011  -0.002893  -0.000001   0.000017
    13  C    0.000000  -0.000003  -0.000016   0.000643  -0.000002   0.000017
    14  C    0.000000  -0.000005   0.000017  -0.002819  -0.000002  -0.000017
    15  C   -0.000033  -0.003264  -0.015021  -0.051701  -0.047301   0.369999
    16  H    0.004288  -0.032101   0.342648  -0.031562  -0.032308   0.004114
    17  H   -0.000083   0.003506  -0.033513   0.359185  -0.006152  -0.001264
    18  H    0.000844  -0.000996  -0.042030   0.365892   0.005074  -0.000013
    19  H    0.000717  -0.001082  -0.039637   0.005175   0.367694  -0.035109
    20  H   -0.000084   0.003519  -0.031231  -0.006299   0.360035  -0.033768
    21  H   -0.000000   0.000300   0.004588   0.000188  -0.038713   0.367027
    22  H    0.000717  -0.001082  -0.000047   0.000023  -0.004372  -0.035109
    23  H   -0.000084   0.003519  -0.000314   0.000126   0.005305  -0.033768
    24  H    0.004288  -0.032101   0.007124   0.000018  -0.000059   0.004114
    25  H   -0.000083   0.003506  -0.000340   0.005587   0.000116  -0.001264
    26  H    0.000844  -0.000996  -0.000076  -0.004772  -0.000001  -0.000013
    27  H   -0.000000  -0.000000  -0.000022  -0.000019   0.000001  -0.000002
    28  H   -0.000000   0.000000   0.000000   0.000055  -0.000000   0.000000
    29  H   -0.000000   0.000000  -0.000002  -0.000042   0.000001  -0.000023
    30  H   -0.000000   0.000000   0.000000  -0.000004   0.000000   0.000000
    31  H   -0.000000   0.000000  -0.000000   0.000015   0.000000  -0.000023
    32  H   -0.000000  -0.000000  -0.000001   0.000014   0.000000  -0.000002
    33  H   -0.000000   0.000000   0.000000   0.000056   0.000000   0.000000
    34  H    0.000000   0.000001  -0.000023  -0.000017   0.000000  -0.000000
    35  H    0.000000   0.000001  -0.000003  -0.000043   0.000000  -0.000000
    36  H    0.000000   0.000134  -0.001613  -0.004012  -0.003824  -0.038222
    37  H    0.000000   0.000134  -0.000096   0.005524   0.005133  -0.038222
               7          8          9         10         11         12
     1  O    0.001065  -0.074415   0.000796   0.000071  -0.000013   0.000000
     2  C   -0.027800   0.333548  -0.030523  -0.021036  -0.000118  -0.000003
     3  C   -0.008552  -0.121907  -0.008761  -0.023690   0.002763   0.000011
     4  C   -0.003032  -0.008761  -0.053107   0.374295  -0.013250  -0.002893
     5  C   -0.048486  -0.008552  -0.003032  -0.017068  -0.000028  -0.000001
     6  C    0.375711  -0.024223  -0.016550  -0.025378   0.002632   0.000017
     7  C    5.097805   0.338383  -0.040059  -0.017068  -0.000028  -0.000002
     8  C    0.338383   5.233687   0.329512  -0.023690   0.002763  -0.000016
     9  C   -0.040059   0.329512   5.130502   0.374295  -0.013250   0.000643
    10  C   -0.017068  -0.023690   0.374295   5.049438   0.327091  -0.019651
    11  Si  -0.000028   0.002763  -0.013250   0.327091  11.933783   0.402445
    12  C   -0.000002  -0.000016   0.000643  -0.019651   0.402445   5.261612
    13  C   -0.000001   0.000011  -0.002893  -0.019651   0.402445  -0.028508
    14  C   -0.000002   0.000017  -0.002819  -0.019763   0.402957  -0.028420
    15  C   -0.047301  -0.015021  -0.051701   0.377028  -0.014913  -0.002863
    16  H   -0.000059   0.007124   0.000018   0.004077  -0.000239   0.000001
    17  H    0.000116  -0.000340   0.005587  -0.036076  -0.003419   0.000932
    18  H   -0.000001  -0.000076  -0.004772  -0.037418  -0.003828  -0.000113
    19  H   -0.004372  -0.000047   0.000023   0.000007   0.000059  -0.000000
    20  H    0.005305  -0.000314   0.000126  -0.000949  -0.000270  -0.000004
    21  H   -0.038713   0.004588   0.000188   0.004681  -0.000174   0.000000
    22  H    0.367694  -0.039637   0.005175   0.000007   0.000059  -0.000000
    23  H    0.360035  -0.031231  -0.006299  -0.000949  -0.000270   0.000000
    24  H   -0.032308   0.342648  -0.031562   0.004077  -0.000239   0.000000
    25  H   -0.006152  -0.033513   0.359185  -0.036076  -0.003419   0.000015
    26  H    0.005074  -0.042030   0.365892  -0.037418  -0.003828   0.000015
    27  H    0.000000  -0.000001   0.000014  -0.001254  -0.020428   0.361548
    28  H    0.000000   0.000000  -0.000004   0.001051  -0.016910   0.360364
    29  H    0.000000  -0.000000   0.000015  -0.001296  -0.020446   0.361413
    30  H   -0.000000   0.000000   0.000055   0.001051  -0.016910  -0.001142
    31  H    0.000001  -0.000002  -0.000042  -0.001296  -0.020446  -0.000981
    32  H    0.000001  -0.000022  -0.000019  -0.001254  -0.020428   0.001241
    33  H    0.000000   0.000000   0.000056   0.001045  -0.016846  -0.001130
    34  H    0.000000  -0.000003  -0.000043  -0.001287  -0.020354  -0.001001
    35  H    0.000000  -0.000023  -0.000017  -0.001287  -0.020354   0.001236
    36  H    0.005133  -0.000096   0.005524  -0.038508  -0.003454   0.000952
    37  H   -0.003824  -0.001613  -0.004012  -0.038508  -0.003454  -0.000122
              13         14         15         16         17         18
     1  O    0.000000   0.000000  -0.000033   0.004288  -0.000083   0.000844
     2  C   -0.000003  -0.000005  -0.003264  -0.032101   0.003506  -0.000996
     3  C   -0.000016   0.000017  -0.015021   0.342648  -0.033513  -0.042030
     4  C    0.000643  -0.002819  -0.051701  -0.031562   0.359185   0.365892
     5  C   -0.000002  -0.000002  -0.047301  -0.032308  -0.006152   0.005074
     6  C    0.000017  -0.000017   0.369999   0.004114  -0.001264  -0.000013
     7  C   -0.000001  -0.000002  -0.047301  -0.000059   0.000116  -0.000001
     8  C    0.000011   0.000017  -0.015021   0.007124  -0.000340  -0.000076
     9  C   -0.002893  -0.002819  -0.051701   0.000018   0.005587  -0.004772
    10  C   -0.019651  -0.019763   0.377028   0.004077  -0.036076  -0.037418
    11  Si   0.402445   0.402957  -0.014913  -0.000239  -0.003419  -0.003828
    12  C   -0.028508  -0.028420  -0.002863   0.000001   0.000932  -0.000113
    13  C    5.261611  -0.028420  -0.002863   0.000000   0.000015   0.000015
    14  C   -0.028420   5.261314   0.000662   0.000001  -0.000115   0.001001
    15  C   -0.002863   0.000662   5.103729   0.000232  -0.003863   0.005430
    16  H    0.000000   0.000001   0.000232   0.606965  -0.003619  -0.002202
    17  H    0.000015  -0.000115  -0.003863  -0.003619   0.602992  -0.036159
    18  H    0.000015   0.001001   0.005430  -0.002202  -0.036159   0.596184
    19  H   -0.000000  -0.000000   0.005107  -0.002653  -0.000076  -0.000167
    20  H    0.000000   0.000000  -0.003991  -0.003877   0.006101  -0.000042
    21  H    0.000000   0.000000  -0.039614  -0.000137  -0.000075   0.000019
    22  H   -0.000000  -0.000000   0.005107  -0.000090  -0.000000  -0.000006
    23  H   -0.000004   0.000000  -0.003991   0.000024  -0.000004   0.000001
    24  H    0.000001   0.000001   0.000232  -0.000177   0.000024  -0.000067
    25  H    0.000932  -0.000115  -0.003863   0.000024  -0.000188   0.000028
    26  H   -0.000113   0.001001   0.005430  -0.000067   0.000028   0.004357
    27  H    0.001241  -0.001011  -0.000032   0.000000   0.002445  -0.000047
    28  H   -0.001142  -0.001128   0.000053  -0.000000  -0.000017  -0.000008
    29  H   -0.000981   0.001240  -0.000011   0.000000   0.000064   0.000011
    30  H    0.360364  -0.001128   0.000053  -0.000000  -0.000000  -0.000000
    31  H    0.361413   0.001240  -0.000011   0.000000  -0.000002   0.000000
    32  H    0.361548  -0.001011  -0.000032   0.000000  -0.000000  -0.000001
    33  H   -0.001129   0.360196  -0.000004  -0.000000  -0.000007  -0.000021
    34  H    0.001236   0.361709   0.000017   0.000001  -0.000044   0.002489
    35  H   -0.001001   0.361708   0.000017   0.000000   0.000010   0.000068
    36  H   -0.000122   0.000016   0.363051  -0.000052   0.004687  -0.000018
    37  H    0.000952   0.000016   0.363051   0.000018  -0.000033  -0.000153
              19         20         21         22         23         24
     1  O    0.000717  -0.000084  -0.000000   0.000717  -0.000084   0.004288
     2  C   -0.001082   0.003519   0.000300  -0.001082   0.003519  -0.032101
     3  C   -0.039637  -0.031231   0.004588  -0.000047  -0.000314   0.007124
     4  C    0.005175  -0.006299   0.000188   0.000023   0.000126   0.000018
     5  C    0.367694   0.360035  -0.038713  -0.004372   0.005305  -0.000059
     6  C   -0.035109  -0.033768   0.367027  -0.035109  -0.033768   0.004114
     7  C   -0.004372   0.005305  -0.038713   0.367694   0.360035  -0.032308
     8  C   -0.000047  -0.000314   0.004588  -0.039637  -0.031231   0.342648
     9  C    0.000023   0.000126   0.000188   0.005175  -0.006299  -0.031562
    10  C    0.000007  -0.000949   0.004681   0.000007  -0.000949   0.004077
    11  Si   0.000059  -0.000270  -0.000174   0.000059  -0.000270  -0.000239
    12  C   -0.000000  -0.000004   0.000000  -0.000000   0.000000   0.000000
    13  C   -0.000000   0.000000   0.000000  -0.000000  -0.000004   0.000001
    14  C   -0.000000   0.000000   0.000000  -0.000000   0.000000   0.000001
    15  C    0.005107  -0.003991  -0.039614   0.005107  -0.003991   0.000232
    16  H   -0.002653  -0.003877  -0.000137  -0.000090   0.000024  -0.000177
    17  H   -0.000076   0.006101  -0.000075  -0.000000  -0.000004   0.000024
    18  H   -0.000167  -0.000042   0.000019  -0.000006   0.000001  -0.000067
    19  H    0.597549  -0.036107  -0.003528   0.004373  -0.000011  -0.000090
    20  H   -0.036107   0.605428  -0.003096  -0.000011  -0.000200   0.000024
    21  H   -0.003528  -0.003096   0.632764  -0.003528  -0.003096  -0.000137
    22  H    0.004373  -0.000011  -0.003528   0.597548  -0.036107  -0.002653
    23  H   -0.000011  -0.000200  -0.003096  -0.036107   0.605428  -0.003877
    24  H   -0.000090   0.000024  -0.000137  -0.002653  -0.003877   0.606965
    25  H   -0.000000  -0.000004  -0.000075  -0.000076   0.006101  -0.003619
    26  H   -0.000006   0.000001   0.000019  -0.000167  -0.000042  -0.002202
    27  H   -0.000000   0.000002   0.000000  -0.000000   0.000000   0.000000
    28  H    0.000000   0.000000  -0.000000  -0.000000  -0.000000  -0.000000
    29  H   -0.000000   0.000002   0.000001  -0.000000   0.000000   0.000000
    30  H   -0.000000  -0.000000  -0.000000   0.000000   0.000000  -0.000000
    31  H   -0.000000   0.000000   0.000001  -0.000000   0.000002   0.000000
    32  H   -0.000000   0.000000   0.000000  -0.000000   0.000002   0.000000
    33  H   -0.000000  -0.000000  -0.000000  -0.000000  -0.000000  -0.000000
    34  H   -0.000000   0.000000   0.000000  -0.000000   0.000000   0.000000
    35  H   -0.000000   0.000000   0.000000  -0.000000   0.000000   0.000001
    36  H   -0.000062   0.005014  -0.003233  -0.000171  -0.000034   0.000018
    37  H   -0.000171  -0.000034  -0.003233  -0.000062   0.005014  -0.000052
              25         26         27         28         29         30
     1  O   -0.000083   0.000844  -0.000000  -0.000000  -0.000000  -0.000000
     2  C    0.003506  -0.000996  -0.000000   0.000000   0.000000   0.000000
     3  C   -0.000340  -0.000076  -0.000022   0.000000  -0.000002   0.000000
     4  C    0.005587  -0.004772  -0.000019   0.000055  -0.000042  -0.000004
     5  C    0.000116  -0.000001   0.000001  -0.000000   0.000001   0.000000
     6  C   -0.001264  -0.000013  -0.000002   0.000000  -0.000023   0.000000
     7  C   -0.006152   0.005074   0.000000   0.000000   0.000000  -0.000000
     8  C   -0.033513  -0.042030  -0.000001   0.000000  -0.000000   0.000000
     9  C    0.359185   0.365892   0.000014  -0.000004   0.000015   0.000055
    10  C   -0.036076  -0.037418  -0.001254   0.001051  -0.001296   0.001051
    11  Si  -0.003419  -0.003828  -0.020428  -0.016910  -0.020446  -0.016910
    12  C    0.000015   0.000015   0.361548   0.360364   0.361413  -0.001142
    13  C    0.000932  -0.000113   0.001241  -0.001142  -0.000981   0.360364
    14  C   -0.000115   0.001001  -0.001011  -0.001128   0.001240  -0.001128
    15  C   -0.003863   0.005430  -0.000032   0.000053  -0.000011   0.000053
    16  H    0.000024  -0.000067   0.000000  -0.000000   0.000000  -0.000000
    17  H   -0.000188   0.000028   0.002445  -0.000017   0.000064  -0.000000
    18  H    0.000028   0.004357  -0.000047  -0.000008   0.000011  -0.000000
    19  H   -0.000000  -0.000006  -0.000000   0.000000  -0.000000  -0.000000
    20  H   -0.000004   0.000001   0.000002   0.000000   0.000002  -0.000000
    21  H   -0.000075   0.000019   0.000000  -0.000000   0.000001  -0.000000
    22  H   -0.000076  -0.000167  -0.000000  -0.000000  -0.000000   0.000000
    23  H    0.006101  -0.000042   0.000000  -0.000000   0.000000   0.000000
    24  H   -0.003619  -0.002202   0.000000  -0.000000   0.000000  -0.000000
    25  H    0.602992  -0.036159  -0.000000  -0.000000  -0.000002  -0.000017
    26  H   -0.036159   0.596184  -0.000001  -0.000000   0.000000  -0.000008
    27  H   -0.000000  -0.000001   0.548483  -0.025292  -0.024973  -0.000004
    28  H   -0.000000  -0.000000  -0.025292   0.545185  -0.025369   0.000516
    29  H   -0.000002   0.000000  -0.024973  -0.025369   0.549069  -0.000084
    30  H   -0.000017  -0.000008  -0.000004   0.000516  -0.000084   0.545184
    31  H    0.000064   0.000011  -0.000006  -0.000084   0.000431  -0.025369
    32  H    0.002445  -0.000047  -0.000020  -0.000004  -0.000006  -0.025292
    33  H   -0.000007  -0.000021  -0.000084   0.000503  -0.000004   0.000503
    34  H    0.000010   0.000068   0.000436  -0.000083  -0.000005  -0.000004
    35  H   -0.000044   0.002489  -0.000005  -0.000004  -0.000020  -0.000083
    36  H   -0.000033  -0.000153   0.000068  -0.000021   0.002522  -0.000008
    37  H    0.004687  -0.000018   0.000011  -0.000008  -0.000041  -0.000021
              31         32         33         34         35         36
     1  O   -0.000000  -0.000000  -0.000000   0.000000   0.000000   0.000000
     2  C    0.000000  -0.000000   0.000000   0.000001   0.000001   0.000134
     3  C   -0.000000  -0.000001   0.000000  -0.000023  -0.000003  -0.001613
     4  C    0.000015   0.000014   0.000056  -0.000017  -0.000043  -0.004012
     5  C    0.000000   0.000000   0.000000   0.000000   0.000000  -0.003824
     6  C   -0.000023  -0.000002   0.000000  -0.000000  -0.000000  -0.038222
     7  C    0.000001   0.000001   0.000000   0.000000   0.000000   0.005133
     8  C   -0.000002  -0.000022   0.000000  -0.000003  -0.000023  -0.000096
     9  C   -0.000042  -0.000019   0.000056  -0.000043  -0.000017   0.005524
    10  C   -0.001296  -0.001254   0.001045  -0.001287  -0.001287  -0.038508
    11  Si  -0.020446  -0.020428  -0.016846  -0.020354  -0.020354  -0.003454
    12  C   -0.000981   0.001241  -0.001130  -0.001001   0.001236   0.000952
    13  C    0.361413   0.361548  -0.001129   0.001236  -0.001001  -0.000122
    14  C    0.001240  -0.001011   0.360196   0.361709   0.361708   0.000016
    15  C   -0.000011  -0.000032  -0.000004   0.000017   0.000017   0.363051
    16  H    0.000000   0.000000  -0.000000   0.000001   0.000000  -0.000052
    17  H   -0.000002  -0.000000  -0.000007  -0.000044   0.000010   0.004687
    18  H    0.000000  -0.000001  -0.000021   0.002489   0.000068  -0.000018
    19  H   -0.000000  -0.000000  -0.000000  -0.000000  -0.000000  -0.000062
    20  H    0.000000   0.000000  -0.000000   0.000000   0.000000   0.005014
    21  H    0.000001   0.000000  -0.000000   0.000000   0.000000  -0.003233
    22  H   -0.000000  -0.000000  -0.000000  -0.000000  -0.000000  -0.000171
    23  H    0.000002   0.000002  -0.000000   0.000000   0.000000  -0.000034
    24  H    0.000000   0.000000  -0.000000   0.000000   0.000001   0.000018
    25  H    0.000064   0.002445  -0.000007   0.000010  -0.000044  -0.000033
    26  H    0.000011  -0.000047  -0.000021   0.000068   0.002489  -0.000153
    27  H   -0.000006  -0.000020  -0.000084   0.000436  -0.000005   0.000068
    28  H   -0.000084  -0.000004   0.000503  -0.000083  -0.000004  -0.000021
    29  H    0.000431  -0.000006  -0.000004  -0.000005  -0.000020   0.002522
    30  H   -0.025369  -0.025292   0.000503  -0.000004  -0.000083  -0.000008
    31  H    0.549068  -0.024973  -0.000004  -0.000020  -0.000005  -0.000041
    32  H   -0.024973   0.548483  -0.000084  -0.000005   0.000436   0.000011
    33  H   -0.000004  -0.000084   0.545254  -0.025241  -0.025241  -0.000000
    34  H   -0.000020  -0.000005  -0.025241   0.546309  -0.024748  -0.000001
    35  H   -0.000005   0.000436  -0.025241  -0.024748   0.546309   0.000000
    36  H   -0.000041   0.000011  -0.000000  -0.000001   0.000000   0.609997
    37  H    0.002522   0.000068  -0.000000   0.000000  -0.000001  -0.036102
              37
     1  O    0.000000
     2  C    0.000134
     3  C   -0.000096
     4  C    0.005524
     5  C    0.005133
     6  C   -0.038222
     7  C   -0.003824
     8  C   -0.001613
     9  C   -0.004012
    10  C   -0.038508
    11  Si  -0.003454
    12  C   -0.000122
    13  C    0.000952
    14  C    0.000016
    15  C    0.363051
    16  H    0.000018
    17  H   -0.000033
    18  H   -0.000153
    19  H   -0.000171
    20  H   -0.000034
    21  H   -0.003233
    22  H   -0.000062
    23  H    0.005014
    24  H   -0.000052
    25  H    0.004687
    26  H   -0.000018
    27  H    0.000011
    28  H   -0.000008
    29  H   -0.000041
    30  H   -0.000021
    31  H    0.002522
    32  H    0.000068
    33  H   -0.000000
    34  H    0.000000
    35  H   -0.000001
    36  H   -0.036102
    37  H    0.609997
 Mulliken charges:
               1
     1  O   -0.463651
     2  C    0.454653
     3  C   -0.166750
     4  C   -0.308145
     5  C   -0.278564
     6  C   -0.094477
     7  C   -0.278564
     8  C   -0.166750
     9  C   -0.308145
    10  C   -0.097640
    11  Si   0.760319
    12  C   -0.665599
    13  C   -0.665599
    14  C   -0.666321
    15  C   -0.291804
    16  H    0.139609
    17  H    0.139353
    18  H    0.146723
    19  H    0.142416
    20  H    0.134723
    21  H    0.122990
    22  H    0.142417
    23  H    0.134723
    24  H    0.139609
    25  H    0.139353
    26  H    0.146723
    27  H    0.158951
    28  H    0.162347
    29  H    0.158538
    30  H    0.162347
    31  H    0.158538
    32  H    0.158951
    33  H    0.162212
    34  H    0.160603
    35  H    0.160603
    36  H    0.132654
    37  H    0.132654
 Sum of Mulliken charges =  -0.00000
 Mulliken charges with hydrogens summed into heavy atoms:
               1
     1  O   -0.463651
     2  C    0.454653
     3  C   -0.027141
     4  C   -0.022069
     5  C   -0.001424
     6  C    0.028513
     7  C   -0.001424
     8  C   -0.027141
     9  C   -0.022069
    10  C   -0.097640
    11  Si   0.760319
    12  C   -0.185763
    13  C   -0.185763
    14  C   -0.182903
    15  C   -0.026496
 APT charges:
               1
     1  O   -0.647549
     2  C    0.689665
     3  C   -0.059608
     4  C    0.116769
     5  C    0.117568
     6  C    0.096408
     7  C    0.117567
     8  C   -0.059608
     9  C    0.116769
    10  C   -0.287278
    11  Si   1.357044
    12  C   -0.358144
    13  C   -0.358145
    14  C   -0.358953
    15  C    0.084191
    16  H   -0.059004
    17  H   -0.041528
    18  H   -0.034787
    19  H   -0.046229
    20  H   -0.046639
    21  H   -0.080428
    22  H   -0.046228
    23  H   -0.046638
    24  H   -0.059004
    25  H   -0.041528
    26  H   -0.034787
    27  H    0.011208
    28  H   -0.004387
    29  H    0.011146
    30  H   -0.004387
    31  H    0.011146
    32  H    0.011208
    33  H   -0.003727
    34  H    0.012375
    35  H    0.012374
    36  H   -0.043426
    37  H   -0.043426
 Sum of APT charges =   0.00000
 APT charges with hydrogens summed into heavy atoms:
               1
     1  O   -0.647549
     2  C    0.689665
     3  C   -0.118612
     4  C    0.040454
     5  C    0.024701
     6  C    0.015980
     7  C    0.024701
     8  C   -0.118612
     9  C    0.040454
    10  C   -0.287278
    11  Si   1.357044
    12  C   -0.340178
    13  C   -0.340177
    14  C   -0.337931
    15  C   -0.002661
 Electronic spatial extent (au):  <R**2>=           3463.4831
 Charge=             -0.0000 electrons
 Dipole moment (field-independent basis, Debye):
    X=              2.4665    Y=             -2.3716    Z=             -0.0000  Tot=              3.4217
 Quadrupole moment (field-independent basis, Debye-Ang):
   XX=           -108.2765   YY=           -104.4304   ZZ=            -97.6726
   XY=              9.5394   XZ=              0.0000   YZ=             -0.0000
 Traceless Quadrupole moment (field-independent basis, Debye-Ang):
   XX=             -4.8167   YY=             -0.9706   ZZ=              5.7873
   XY=              9.5394   XZ=              0.0000   YZ=             -0.0000
 Octapole moment (field-independent basis, Debye-Ang**2):
  XXX=             30.5068  YYY=             -7.8737  ZZZ=             -0.0000  XYY=             14.3584
  XXY=            -29.3348  XXZ=              0.0000  XZZ=             -8.6903  YZZ=              4.5203
  YYZ=              0.0000  XYZ=              0.0000
 Hexadecapole moment (field-independent basis, Debye-Ang**3):
 XXXX=          -2985.3450 YYYY=           -970.5413 ZZZZ=           -808.9197 XXXY=             99.7604
 XXXZ=              0.0002 YYYX=             14.4357 YYYZ=             -0.0000 ZZZX=             -0.0001
 ZZZY=             -0.0000 XXYY=           -720.7783 XXZZ=           -630.1479 YYZZ=           -291.0948
 XXYZ=             -0.0001 YYXZ=              0.0001 ZZXY=             -4.1525
 N-N= 1.223458350464D+03 E-N=-4.489282249452D+03  KE= 8.665893839532D+02
  Exact polarizability: 166.103  -2.339 140.421  -0.000   0.000 137.539
 Approx polarizability: 219.139 -11.760 215.203  -0.000   0.000 206.910
 Calling FoFJK, ICntrl=    100127 FMM=F ISym2X=0 I1Cent= 0 IOpClX= 0 NMat=1 NMatS=1 NMatT=0.
 Full mass-weighted force constant matrix:
 Low frequencies ---   -7.7254    0.0009    0.0017    0.0024    7.0129   14.0332
 Low frequencies ---   26.3450   79.5988  113.7217
 Diagonal vibrational polarizability:
       20.7689204      12.4928447      16.9709669
 Harmonic frequencies (cm**-1), IR intensities (KM/Mole), Raman scattering
 activities (A**4/AMU), depolarization ratios for plane and unpolarized
 incident light, reduced masses (AMU), force constants (mDyne/A),
 and normal coordinates:
                      1                      2                      3
                      A                      A                      A
 Frequencies --     26.2562                79.5987               113.7175
 Red. masses --      2.8760                 7.2374                 3.0556
 Frc consts  --      0.0012                 0.0270                 0.0233
 IR Inten    --      0.2004                 2.7612                 0.2905
  Atom  AN      X      Y      Z        X      Y      Z        X      Y      Z
     1   8     0.00   0.00  -0.10     0.43   0.31   0.00    -0.00  -0.00   0.07
     2   6     0.00   0.00  -0.05     0.10   0.03   0.00     0.00   0.00   0.03
     3   6     0.00  -0.06  -0.02    -0.03  -0.08  -0.00    -0.07  -0.02   0.00
     4   6     0.00  -0.06  -0.03    -0.02  -0.11  -0.01    -0.06  -0.03  -0.10
     5   6     0.00  -0.06   0.05    -0.05  -0.07   0.01    -0.09  -0.01   0.06
     6   6    -0.00  -0.00   0.08    -0.04  -0.08  -0.00    -0.00   0.00   0.02
     7   6    -0.00   0.06   0.05    -0.05  -0.07  -0.01     0.09   0.01   0.06
     8   6    -0.00   0.06  -0.02    -0.03  -0.08   0.00     0.07   0.02   0.00
     9   6    -0.00   0.06  -0.03    -0.02  -0.11   0.01     0.06   0.03  -0.10
    10   6     0.00  -0.00   0.01    -0.03  -0.10  -0.00     0.00  -0.00  -0.12
    11  14     0.00  -0.00  -0.00    -0.05   0.03  -0.00     0.00  -0.00  -0.02
    12   6    -0.03   0.17  -0.10     0.03   0.11  -0.00     0.19   0.02   0.06
    13   6     0.03  -0.17  -0.10     0.03   0.11   0.00    -0.19  -0.02   0.06
    14   6     0.00   0.00   0.19    -0.24   0.08   0.00     0.00   0.00   0.06
    15   6    -0.00  -0.00   0.08    -0.03  -0.09  -0.00    -0.00  -0.00  -0.09
    16   1     0.00  -0.10  -0.05    -0.01  -0.07  -0.00    -0.12  -0.03   0.02
    17   1     0.00  -0.11  -0.00    -0.03  -0.14  -0.00    -0.12  -0.06  -0.11
    18   1     0.01  -0.06  -0.08    -0.01  -0.11  -0.04    -0.06  -0.03  -0.15
    19   1     0.00  -0.06   0.06    -0.05  -0.06   0.03    -0.10   0.01   0.15
    20   1     0.00  -0.10   0.07    -0.07  -0.07   0.00    -0.18  -0.04   0.03
    21   1    -0.00  -0.00   0.13    -0.05  -0.08  -0.00    -0.00   0.00   0.05
    22   1    -0.00   0.06   0.06    -0.05  -0.06  -0.03     0.10  -0.01   0.15
    23   1    -0.00   0.10   0.07    -0.07  -0.07  -0.00     0.18   0.04   0.03
    24   1    -0.00   0.10  -0.05    -0.01  -0.07   0.00     0.12   0.03   0.02
    25   1    -0.00   0.11  -0.00    -0.03  -0.14   0.00     0.12   0.06  -0.11
    26   1    -0.01   0.06  -0.08    -0.01  -0.11   0.04     0.06   0.03  -0.15
    27   1     0.02   0.32  -0.04     0.00   0.10   0.00     0.31   0.03   0.02
    28   1    -0.02   0.09  -0.06     0.02   0.18   0.01     0.19   0.04   0.21
    29   1    -0.10   0.19  -0.26     0.10   0.09  -0.02     0.21   0.02   0.02
    30   1     0.02  -0.09  -0.06     0.02   0.18  -0.01    -0.19  -0.04   0.21
    31   1     0.10  -0.19  -0.26     0.10   0.09   0.02    -0.21  -0.02   0.02
    32   1    -0.02  -0.32  -0.04     0.00   0.10  -0.00    -0.31  -0.03   0.02
    33   1     0.00  -0.00   0.10    -0.25   0.19   0.00    -0.00   0.00   0.17
    34   1    -0.08   0.11   0.29    -0.29   0.04   0.00     0.08   0.02   0.04
    35   1     0.08  -0.11   0.29    -0.29   0.04  -0.00    -0.08  -0.02   0.04
    36   1     0.01  -0.04   0.11    -0.04  -0.10  -0.00    -0.06   0.01  -0.12
    37   1    -0.01   0.04   0.11    -0.04  -0.10   0.00     0.06  -0.01  -0.12
                      4                      5                      6
                      A                      A                      A
 Frequencies --    132.1147               140.3839               150.7685
 Red. masses --      3.2908                 1.0412                 1.0562
 Frc consts  --      0.0338                 0.0121                 0.0141
 IR Inten    --      0.3964                 0.0057                 0.0027
  Atom  AN      X      Y      Z        X      Y      Z        X      Y      Z
     1   8     0.12   0.09   0.00     0.00   0.00  -0.01    -0.00  -0.00   0.00
     2   6    -0.03  -0.04   0.00    -0.00  -0.00  -0.00     0.00   0.00   0.00
     3   6    -0.06  -0.06  -0.00     0.00  -0.01  -0.00     0.01   0.00   0.00
     4   6    -0.07   0.06  -0.00     0.00  -0.00  -0.00     0.01   0.01   0.01
     5   6     0.05  -0.09   0.00     0.00  -0.01   0.01     0.01   0.00  -0.00
     6   6     0.10  -0.04  -0.00     0.00  -0.00   0.01    -0.00   0.00   0.00
     7   6     0.05  -0.09  -0.00    -0.00   0.01   0.01    -0.01  -0.00  -0.00
     8   6    -0.06  -0.06   0.00    -0.00   0.01  -0.00    -0.01  -0.00   0.00
     9   6    -0.07   0.06   0.00    -0.00   0.00  -0.00    -0.01  -0.01   0.01
    10   6    -0.03   0.10  -0.00    -0.00   0.00   0.00     0.00  -0.00   0.01
    11  14    -0.03   0.05   0.00    -0.00   0.00  -0.00     0.00  -0.00  -0.00
    12   6    -0.14  -0.03  -0.01    -0.00   0.03  -0.02     0.00   0.01  -0.01
    13   6    -0.14  -0.03   0.01     0.00  -0.03  -0.02    -0.00  -0.01  -0.01
    14   6     0.21  -0.01  -0.00     0.00   0.00   0.02     0.00  -0.00  -0.05
    15   6     0.08   0.07  -0.00     0.00   0.00   0.01    -0.00  -0.00   0.02
    16   1    -0.09  -0.09  -0.00     0.00  -0.01  -0.00     0.01   0.00   0.00
    17   1    -0.03   0.09  -0.00    -0.00  -0.01   0.00     0.01   0.01   0.01
    18   1    -0.15   0.08   0.00     0.00  -0.00  -0.00     0.01   0.01   0.02
    19   1     0.06  -0.17  -0.00     0.00  -0.01   0.00     0.01  -0.00  -0.01
    20   1     0.09  -0.06   0.00     0.00  -0.01   0.01     0.02   0.00   0.00
    21   1     0.18  -0.06  -0.00     0.00  -0.00   0.01    -0.00   0.00   0.00
    22   1     0.06  -0.17   0.00    -0.00   0.01   0.00    -0.01   0.00  -0.01
    23   1     0.09  -0.06  -0.00    -0.00   0.01   0.01    -0.02  -0.00   0.00
    24   1    -0.09  -0.09   0.00    -0.00   0.01  -0.00    -0.01  -0.00   0.00
    25   1    -0.03   0.09   0.00     0.00   0.01   0.00    -0.01  -0.01   0.01
    26   1    -0.15   0.08  -0.00    -0.00   0.00  -0.00    -0.01  -0.01   0.02
    27   1    -0.09   0.04  -0.00    -0.22  -0.15  -0.01     0.21   0.22   0.01
    28   1    -0.12  -0.18  -0.03    -0.03   0.28  -0.16     0.03  -0.23   0.14
    29   1    -0.29  -0.00  -0.03     0.24  -0.03   0.11    -0.23   0.07  -0.17
    30   1    -0.12  -0.18   0.03     0.03  -0.28  -0.16    -0.03   0.23   0.14
    31   1    -0.29  -0.00   0.03    -0.24   0.03   0.11     0.22  -0.07  -0.17
    32   1    -0.09   0.04   0.00     0.22   0.15  -0.01    -0.21  -0.22   0.01
    33   1     0.23  -0.17  -0.00     0.00   0.00   0.44    -0.00  -0.00   0.33
    34   1     0.28   0.04  -0.00     0.35  -0.08  -0.17     0.32  -0.12  -0.26
    35   1     0.28   0.04   0.00    -0.35   0.08  -0.17    -0.32   0.12  -0.26
    36   1     0.11   0.10   0.00     0.00  -0.00   0.01     0.01  -0.01   0.02
    37   1     0.11   0.10  -0.00    -0.00   0.00   0.01    -0.01   0.01   0.02
                      7                      8                      9
                      A                      A                      A
 Frequencies --    152.4190               190.1322               192.9322
 Red. masses --      1.0722                 2.2293                 2.3279
 Frc consts  --      0.0147                 0.0475                 0.0511
 IR Inten    --      0.0032                 0.0701                 0.2888
  Atom  AN      X      Y      Z        X      Y      Z        X      Y      Z
     1   8    -0.01  -0.01  -0.00    -0.00  -0.00   0.01    -0.01  -0.01  -0.00
     2   6     0.01   0.00  -0.00    -0.00  -0.00  -0.01    -0.00   0.00   0.00
     3   6     0.01   0.00  -0.00    -0.02  -0.00  -0.02    -0.01  -0.01   0.00
     4   6     0.01  -0.02  -0.00    -0.01  -0.02  -0.05    -0.01  -0.06  -0.00
     5   6    -0.01   0.01  -0.00    -0.05   0.00   0.01    -0.06   0.00   0.00
     6   6    -0.02   0.00  -0.00    -0.00  -0.00  -0.02    -0.07  -0.01   0.00
     7   6    -0.01   0.01   0.00     0.05  -0.00   0.01    -0.06   0.00  -0.00
     8   6     0.01   0.00   0.00     0.02   0.00  -0.02    -0.01  -0.01  -0.00
     9   6     0.01  -0.02   0.00     0.01   0.02  -0.05    -0.01  -0.06   0.00
    10   6     0.00  -0.02  -0.00    -0.00  -0.00  -0.05    -0.01  -0.05   0.00
    11  14     0.00  -0.00   0.00     0.00  -0.00  -0.00     0.01  -0.01  -0.00
    12   6     0.00   0.03  -0.02    -0.12  -0.12   0.01     0.02   0.13  -0.07
    13   6     0.00   0.03   0.02     0.12   0.12   0.01     0.02   0.13   0.07
    14   6    -0.00  -0.00   0.00     0.00  -0.00   0.19     0.21  -0.05  -0.00
    15   6    -0.01  -0.02  -0.00    -0.00  -0.00  -0.06    -0.05  -0.05   0.00
    16   1     0.01   0.01  -0.00    -0.04  -0.00  -0.01     0.00   0.00   0.00
    17   1     0.01  -0.03   0.00    -0.04  -0.04  -0.05    -0.02  -0.09   0.00
    18   1     0.02  -0.02  -0.01    -0.01  -0.02  -0.08     0.03  -0.06  -0.03
    19   1    -0.01   0.02   0.00    -0.05   0.03   0.06    -0.07   0.04   0.02
    20   1    -0.02   0.00  -0.00    -0.10  -0.01  -0.01    -0.09  -0.01  -0.00
    21   1    -0.03   0.00  -0.00    -0.00  -0.00  -0.01    -0.09  -0.01   0.00
    22   1    -0.01   0.02  -0.00     0.05  -0.03   0.06    -0.07   0.04  -0.02
    23   1    -0.02   0.00   0.00     0.10   0.01  -0.01    -0.09  -0.01   0.00
    24   1     0.01   0.01   0.00     0.04   0.00  -0.01     0.00   0.00  -0.00
    25   1     0.01  -0.03  -0.00     0.04   0.04  -0.05    -0.02  -0.09  -0.00
    26   1     0.02  -0.02   0.01     0.01   0.02  -0.08     0.03  -0.06   0.03
    27   1     0.28   0.33   0.01    -0.09  -0.12  -0.00    -0.14   0.15  -0.00
    28   1     0.04  -0.30   0.17    -0.10  -0.31  -0.05    -0.00   0.32  -0.16
    29   1    -0.32   0.11  -0.27    -0.30  -0.09   0.08     0.19   0.10  -0.15
    30   1     0.04  -0.30  -0.17     0.10   0.31  -0.05    -0.00   0.32   0.16
    31   1    -0.32   0.11   0.27     0.30   0.09   0.08     0.19   0.10   0.15
    32   1     0.28   0.33  -0.01     0.09   0.12  -0.00    -0.14   0.15   0.00
    33   1    -0.00  -0.00  -0.00     0.00  -0.00   0.43     0.23  -0.27  -0.00
    34   1     0.00  -0.00  -0.00     0.17   0.12   0.19     0.31   0.02  -0.00
    35   1     0.00  -0.00   0.00    -0.17  -0.12   0.19     0.31   0.02   0.00
    36   1    -0.02  -0.02   0.00    -0.03   0.02  -0.09    -0.07  -0.06  -0.00
    37   1    -0.02  -0.02  -0.00     0.03  -0.02  -0.09    -0.07  -0.06   0.00
                     10                     11                     12
                      A                      A                      A
 Frequencies --    197.7039               243.8031               261.3103
 Red. masses --      2.6634                 2.6176                 3.0300
 Frc consts  --      0.0613                 0.0917                 0.1219
 IR Inten    --      1.1132                 1.4613                 2.6366
  Atom  AN      X      Y      Z        X      Y      Z        X      Y      Z
     1   8    -0.00   0.05  -0.00    -0.00   0.00  -0.02     0.01  -0.06   0.00
     2   6    -0.07  -0.01  -0.00    -0.00   0.00  -0.02     0.07  -0.00   0.00
     3   6    -0.08  -0.02   0.00     0.00   0.01  -0.02     0.05  -0.00  -0.01
     4   6    -0.07   0.02   0.00     0.02  -0.04  -0.05     0.05  -0.10  -0.03
     5   6    -0.05  -0.03   0.01    -0.10   0.03   0.03    -0.06   0.02   0.01
     6   6    -0.03  -0.01   0.00     0.00   0.00  -0.03    -0.06   0.00  -0.00
     7   6    -0.05  -0.03  -0.01     0.10  -0.03   0.03    -0.06   0.02  -0.01
     8   6    -0.08  -0.02  -0.00    -0.00  -0.01  -0.02     0.05  -0.00   0.01
     9   6    -0.07   0.02  -0.00    -0.02   0.04  -0.05     0.05  -0.10   0.03
    10   6    -0.04   0.03   0.00    -0.00   0.00  -0.01     0.02  -0.05  -0.00
    11  14     0.01   0.02   0.00    -0.00  -0.00   0.14    -0.00   0.16   0.00
    12   6     0.18  -0.03   0.11    -0.10   0.09   0.06    -0.06  -0.04   0.09
    13   6     0.18  -0.03  -0.11     0.10  -0.09   0.06    -0.06  -0.04  -0.09
    14   6     0.10   0.00  -0.00    -0.00  -0.00  -0.11     0.09   0.16  -0.00
    15   6    -0.03   0.03   0.00     0.00   0.00  -0.11    -0.03  -0.05   0.00
    16   1    -0.08  -0.03  -0.00     0.01   0.02  -0.02     0.06   0.02   0.00
    17   1    -0.06   0.03  -0.00    -0.01  -0.12  -0.02     0.02  -0.21   0.01
    18   1    -0.11   0.02   0.00     0.04  -0.05  -0.12     0.11  -0.12  -0.13
    19   1    -0.05  -0.05   0.02    -0.12   0.12   0.17    -0.07   0.10   0.06
    20   1    -0.05  -0.02   0.00    -0.25  -0.01  -0.02    -0.14  -0.02  -0.00
    21   1     0.01  -0.02   0.00     0.00   0.00  -0.04    -0.09   0.01  -0.00
    22   1    -0.05  -0.05  -0.02     0.12  -0.12   0.17    -0.07   0.10  -0.06
    23   1    -0.05  -0.02  -0.00     0.25   0.01  -0.02    -0.14  -0.02   0.00
    24   1    -0.08  -0.03   0.00    -0.01  -0.02  -0.02     0.06   0.02  -0.00
    25   1    -0.06   0.03   0.00     0.01   0.12  -0.02     0.02  -0.21  -0.01
    26   1    -0.11   0.02  -0.00    -0.04   0.05  -0.12     0.11  -0.12   0.13
    27   1     0.39  -0.08   0.01    -0.20   0.18   0.15    -0.03  -0.19   0.00
    28   1     0.19  -0.05   0.34    -0.10   0.09  -0.05    -0.05  -0.18   0.05
    29   1     0.18  -0.03   0.13    -0.10   0.09  -0.03    -0.19  -0.03   0.31
    30   1     0.19  -0.05  -0.34     0.10  -0.09  -0.05    -0.05  -0.18  -0.05
    31   1     0.18  -0.03  -0.13     0.10  -0.09  -0.03    -0.19  -0.03  -0.31
    32   1     0.39  -0.08  -0.01     0.20  -0.18   0.15    -0.03  -0.19  -0.00
    33   1     0.11  -0.09   0.00    -0.00  -0.00  -0.22     0.11   0.04  -0.00
    34   1     0.14   0.03  -0.00    -0.06  -0.21  -0.21     0.15   0.20  -0.00
    35   1     0.14   0.03   0.00     0.06   0.21  -0.21     0.15   0.20   0.00
    36   1    -0.02   0.03   0.00    -0.04   0.09  -0.18    -0.06  -0.08  -0.00
    37   1    -0.02   0.03  -0.00     0.04  -0.09  -0.18    -0.06  -0.08   0.00
                     13                     14                     15
                      A                      A                      A
 Frequencies --    272.9675               313.7926               329.8802
 Red. masses --      2.3118                 2.7093                 3.7450
 Frc consts  --      0.1015                 0.1572                 0.2401
 IR Inten    --      0.5201                 0.1066                 8.1935
  Atom  AN      X      Y      Z        X      Y      Z        X      Y      Z
     1   8    -0.00   0.00   0.15    -0.00   0.00  -0.09    -0.04   0.06  -0.00
     2   6    -0.00   0.00   0.05    -0.00   0.00  -0.02    -0.08   0.02  -0.00
     3   6     0.00   0.05   0.00     0.11   0.07   0.02    -0.07  -0.02   0.02
     4   6     0.02  -0.12  -0.09     0.10  -0.05   0.04    -0.04  -0.02   0.01
     5   6     0.04   0.04  -0.06    -0.07   0.12   0.07    -0.10  -0.02   0.04
     6   6     0.00   0.00  -0.05    -0.00   0.00  -0.02     0.00  -0.00  -0.00
     7   6    -0.04  -0.04  -0.06     0.07  -0.12   0.07    -0.10  -0.02  -0.04
     8   6    -0.00  -0.05   0.00    -0.11  -0.07   0.02    -0.07  -0.02  -0.02
     9   6    -0.02   0.12  -0.09    -0.10   0.05   0.04    -0.04  -0.02  -0.01
    10   6    -0.00   0.00  -0.01    -0.00  -0.00   0.09     0.07   0.03   0.00
    11  14     0.00  -0.00   0.01    -0.00  -0.00  -0.07     0.24   0.01  -0.00
    12   6    -0.01   0.00   0.01     0.05  -0.03  -0.05     0.03  -0.06  -0.11
    13   6     0.01  -0.00   0.01    -0.05   0.03  -0.05     0.03  -0.06   0.11
    14   6    -0.00  -0.00  -0.01     0.00  -0.00   0.02    -0.01   0.09  -0.00
    15   6     0.00   0.00   0.14    -0.00  -0.00   0.02     0.02   0.04  -0.00
    16   1    -0.00   0.08   0.02     0.16   0.09   0.00    -0.05  -0.04   0.00
    17   1    -0.09  -0.34  -0.03     0.10  -0.17   0.10    -0.08  -0.04  -0.00
    18   1     0.18  -0.16  -0.29     0.19  -0.07  -0.05    -0.07  -0.02  -0.06
    19   1     0.04  -0.02  -0.11    -0.10   0.28   0.24    -0.10  -0.01   0.16
    20   1     0.09   0.10  -0.07    -0.29   0.06   0.00    -0.20  -0.02  -0.00
    21   1     0.00  -0.00  -0.10    -0.00   0.00  -0.12     0.06  -0.02  -0.00
    22   1    -0.04   0.02  -0.11     0.10  -0.28   0.24    -0.10  -0.01  -0.16
    23   1    -0.09  -0.10  -0.07     0.29  -0.06   0.00    -0.20  -0.02   0.00
    24   1     0.00  -0.08   0.02    -0.16  -0.09   0.00    -0.05  -0.04  -0.00
    25   1     0.09   0.34  -0.03    -0.10   0.17   0.10    -0.08  -0.04   0.00
    26   1    -0.18   0.16  -0.29    -0.19   0.07  -0.05    -0.07  -0.02   0.06
    27   1    -0.02   0.01   0.01     0.12  -0.08  -0.10    -0.14  -0.02  -0.02
    28   1    -0.01   0.01  -0.01     0.05  -0.01   0.04     0.04  -0.19  -0.35
    29   1    -0.01   0.00   0.00     0.09  -0.04  -0.02    -0.12  -0.03  -0.06
    30   1     0.01  -0.01  -0.01    -0.05   0.01   0.04     0.04  -0.19   0.35
    31   1     0.01  -0.00   0.00    -0.09   0.04  -0.02    -0.12  -0.03   0.06
    32   1     0.02  -0.01   0.01    -0.12   0.08  -0.10    -0.14  -0.02   0.02
    33   1    -0.00  -0.00  -0.01     0.00  -0.00   0.06    -0.05   0.41  -0.00
    34   1     0.00  -0.01  -0.02     0.02   0.09   0.06    -0.17  -0.02   0.00
    35   1    -0.00   0.01  -0.02    -0.02  -0.09   0.06    -0.17  -0.02  -0.00
    36   1     0.15  -0.14   0.29     0.03   0.06  -0.00     0.01   0.02   0.00
    37   1    -0.15   0.14   0.29    -0.03  -0.06  -0.00     0.01   0.02  -0.00
                     16                     17                     18
                      A                      A                      A
 Frequencies --    372.8304               386.1619               400.3216
 Red. masses --      4.5774                 2.2422                 4.7948
 Frc consts  --      0.3749                 0.1970                 0.4527
 IR Inten    --      0.3419                 0.9311                 0.0706
  Atom  AN      X      Y      Z        X      Y      Z        X      Y      Z
     1   8    -0.16   0.17   0.00     0.02  -0.05  -0.00     0.00  -0.00   0.02
     2   6    -0.13   0.19   0.00     0.07  -0.00   0.00     0.00  -0.00  -0.00
     3   6    -0.06   0.08   0.06     0.01  -0.01  -0.02     0.12   0.10  -0.01
     4   6    -0.03  -0.13   0.00     0.01  -0.04  -0.10     0.10   0.13  -0.17
     5   6     0.09   0.03   0.07    -0.06   0.00   0.06     0.15   0.08   0.15
     6   6     0.19  -0.03   0.00     0.08   0.04   0.00     0.00  -0.00   0.19
     7   6     0.09   0.03  -0.07    -0.06   0.00  -0.06    -0.15  -0.08   0.15
     8   6    -0.06   0.08  -0.06     0.01  -0.01   0.02    -0.12  -0.10  -0.01
     9   6    -0.03  -0.13  -0.00     0.01  -0.04   0.10    -0.10  -0.13  -0.17
    10   6     0.01  -0.11  -0.00    -0.01   0.13   0.00     0.00   0.00  -0.19
    11  14    -0.04   0.00   0.00    -0.04  -0.03  -0.00    -0.00   0.00   0.02
    12   6    -0.01   0.00   0.02     0.00   0.00   0.00    -0.01   0.01   0.01
    13   6    -0.01   0.00  -0.02     0.00   0.00  -0.00     0.01  -0.01   0.01
    14   6     0.00  -0.02  -0.00    -0.03  -0.07   0.00    -0.00  -0.00  -0.01
    15   6     0.18  -0.13  -0.00     0.07   0.15  -0.00     0.00  -0.00  -0.02
    16   1    -0.00  -0.01  -0.02    -0.04  -0.02   0.00    -0.00  -0.01  -0.01
    17   1    -0.18  -0.31   0.02    -0.01  -0.27   0.00     0.04   0.19  -0.23
    18   1     0.17  -0.18  -0.14     0.04  -0.05  -0.36     0.14   0.12  -0.08
    19   1     0.11  -0.12   0.14    -0.07   0.07   0.27     0.15   0.12   0.04
    20   1     0.09   0.16   0.00    -0.26  -0.04  -0.01     0.22   0.00   0.23
    21   1     0.10  -0.01   0.00     0.18   0.01   0.00     0.00  -0.00   0.07
    22   1     0.11  -0.12  -0.14    -0.07   0.07  -0.27    -0.15  -0.12   0.04
    23   1     0.09   0.16  -0.00    -0.26  -0.04   0.01    -0.22  -0.00   0.23
    24   1    -0.00  -0.01   0.02    -0.04  -0.02  -0.00     0.00   0.01  -0.01
    25   1    -0.18  -0.31  -0.02    -0.01  -0.27  -0.00    -0.04  -0.19  -0.23
    26   1     0.17  -0.18   0.14     0.04  -0.05   0.36    -0.14  -0.12  -0.08
    27   1     0.02   0.00   0.01     0.03   0.03   0.00    -0.06   0.02   0.04
    28   1    -0.01   0.01   0.05    -0.01   0.07   0.07    -0.01  -0.00  -0.04
    29   1    -0.00   0.00   0.01     0.07  -0.01  -0.06    -0.03   0.01   0.01
    30   1    -0.01   0.01  -0.05    -0.01   0.07  -0.07     0.01   0.00  -0.04
    31   1    -0.00   0.00  -0.01     0.07  -0.01   0.06     0.03  -0.01   0.01
    32   1     0.02   0.00  -0.01     0.03   0.03  -0.00     0.06  -0.02   0.04
    33   1     0.01  -0.08  -0.00    -0.03  -0.03   0.00    -0.00   0.00  -0.04
    34   1     0.03   0.01  -0.00    -0.04  -0.07   0.00    -0.02  -0.03  -0.01
    35   1     0.03   0.01   0.00    -0.04  -0.07  -0.00     0.02   0.03  -0.01
    36   1     0.19  -0.12  -0.00     0.09   0.17   0.00    -0.18  -0.12  -0.04
    37   1     0.19  -0.12   0.00     0.09   0.17  -0.00     0.18   0.12  -0.04
                     19                     20                     21
                      A                      A                      A
 Frequencies --    432.4762               441.9516               469.5620
 Red. masses --      1.7618                 1.8095                 4.2892
 Frc consts  --      0.1941                 0.2082                 0.5572
 IR Inten    --      0.2467                 0.0602                11.5285
  Atom  AN      X      Y      Z        X      Y      Z        X      Y      Z
     1   8    -0.00  -0.00  -0.02    -0.01  -0.00  -0.00     0.00  -0.00   0.32
     2   6     0.00   0.00  -0.05     0.02   0.02  -0.00     0.00   0.00  -0.18
     3   6    -0.04   0.03  -0.06     0.03  -0.01   0.04     0.04  -0.03  -0.21
     4   6    -0.04   0.08  -0.01     0.02   0.06   0.08     0.08  -0.00   0.04
     5   6    -0.07   0.04   0.01    -0.06  -0.00   0.10    -0.02  -0.07   0.01
     6   6     0.00   0.00  -0.03     0.06  -0.06  -0.00     0.00  -0.00   0.06
     7   6     0.07  -0.04   0.01    -0.06  -0.00  -0.10     0.02   0.07   0.01
     8   6     0.04  -0.03  -0.06     0.03  -0.01  -0.04    -0.04   0.03  -0.21
     9   6     0.04  -0.08  -0.01     0.02   0.06  -0.08    -0.08   0.00   0.04
    10   6    -0.00   0.00  -0.05     0.03  -0.04   0.00     0.00   0.00   0.09
    11  14     0.00  -0.00   0.01    -0.03   0.00   0.00    -0.00  -0.00  -0.01
    12   6    -0.01   0.00   0.01    -0.01   0.01   0.02     0.01  -0.01  -0.02
    13   6     0.01  -0.00   0.01    -0.01   0.01  -0.02    -0.01   0.01  -0.02
    14   6    -0.00  -0.00   0.00    -0.01  -0.01   0.00    -0.00  -0.00  -0.00
    15   6     0.00   0.00   0.15     0.06  -0.05   0.00     0.00   0.00  -0.01
    16   1    -0.04   0.02  -0.06     0.05  -0.05   0.01     0.17  -0.15  -0.35
    17   1     0.01   0.23  -0.07     0.08   0.28  -0.00     0.24   0.05   0.08
    18   1    -0.10   0.10   0.14    -0.07   0.09   0.29     0.03   0.01   0.10
    19   1    -0.08   0.09   0.15    -0.09   0.13   0.36    -0.03   0.01   0.10
    20   1    -0.21   0.00  -0.04    -0.34  -0.03  -0.01    -0.12  -0.22   0.05
    21   1     0.00   0.00  -0.07     0.05  -0.06  -0.00     0.00  -0.00   0.10
    22   1     0.08  -0.09   0.15    -0.09   0.13  -0.36     0.03  -0.01   0.10
    23   1     0.21  -0.00  -0.04    -0.34  -0.03   0.01     0.12   0.22   0.05
    24   1     0.04  -0.02  -0.06     0.05  -0.05  -0.01    -0.17   0.15  -0.35
    25   1    -0.01  -0.23  -0.07     0.08   0.28   0.00    -0.24  -0.05   0.08
[...]
 55,-0.00014725,-0.00007103,0.00005742,0.00002218,-0.00037918,0.,-0.000
 26922,-0.00007103,-0.00005742,0.00002218,0.00013419,0.00005620,0.00007
 879,-0.00049076,-0.00033355,-0.00014725,-0.00244833,0.00000001,-0.0022
 5288,0.00824774,-0.00000002,-0.01114741,0.00034905,0.00017572,0.001205
 01,0.00034905,-0.00017573,0.00120501,-0.12081594,0.00000026,0.11836505
 ,0.00112048,0.,-0.00073630,0.00003388,-0.00000805,-0.00003286,0.000033
 18,-0.00004047,0.00002184,0.00016595,-0.00005382,0.00015857,0.00002634
 ,-0.00001919,0.00001687,-0.00000428,-0.00000876,0.00000077,0.00009290,
 0.,-0.00014960,0.00002634,0.00001919,0.00001687,-0.00000428,0.00000876
 ,0.00000077,0.00003388,0.00000805,-0.00003286,0.00003318,0.00004047,0.
 00002184,0.00016595,0.00005382,0.00015857,0.00001780,0.00007891,0.0000
 1148,-0.00033187,-0.00037004,-0.00003177,0.00014656,0.00037437,0.00012
 893,-0.00033186,0.00037004,-0.00003176,0.00014656,-0.00037437,0.000128
 92,0.00001780,-0.00007891,0.00001148,0.13745835,0.,0.00007033,0.,0.,-0
 .00018590,0.,-0.00018034,0.00008153,-0.00008654,0.00030271,0.00007001,
 0.00016370,0.00006632,0.00001184,-0.00005762,0.,-0.00005535,0.,-0.0000
 6632,0.00001184,0.00005762,0.00018033,0.00008153,0.00008653,-0.0003027
 0,0.00007001,-0.00016370,0.00000002,0.00002756,0.00000002,-0.00000007,
 -0.00139027,0.00000007,0.00016003,-0.00014868,0.00016815,-0.00016004,-
 0.00014868,-0.00016817,0.00000025,-0.04470458,-0.00000034,0.,0.0001414
 0,0.,-0.00000244,0.00000753,0.00001296,-0.00002495,0.00001214,0.000005
 17,-0.00033240,0.00000982,-0.00009190,-0.00001885,0.00000381,-0.000029
 43,-0.00000009,0.00000467,0.00000551,0.,0.00001080,0.,0.00001885,0.000
 00381,0.00002943,0.00000009,0.00000467,-0.00000551,0.00000244,0.000007
 53,-0.00001296,0.00002495,0.00001213,-0.00000517,0.00033240,0.00000982
 ,0.00009190,0.00000606,-0.00000750,-0.00009799,-0.00027505,-0.00003657
 ,-0.00004769,0.00000431,0.00003964,0.00013012,0.00027505,-0.00003658,0
 .00004769,-0.00000431,0.00003964,-0.00013012,-0.00000606,-0.00000750,0
 .00009799,-0.00000026,0.04538814,0.00018473,0.,0.00001009,-0.00024173,
 0.,0.00000384,-0.00000078,-0.00001205,0.00003363,-0.00031295,0.0004494
 0,0.00026506,-0.00000973,0.00009701,0.00001738,-0.00049012,0.,-0.00028
 632,-0.00000973,-0.00009701,0.00001738,-0.00000078,0.00001205,0.000033
 63,-0.00031294,-0.00044940,0.00026505,-0.00329543,0.00000001,-0.002098
 43,0.01363506,-0.00000003,-0.01378928,-0.00003315,0.00013690,0.0013284
 0,-0.00003315,-0.00013690,0.00132840,0.13500539,-0.00000041,-0.2301860
 9,0.00144353,0.,-0.00073919,0.00005071,-0.00001523,-0.00004019,0.00000
 028,-0.00010686,-0.00006487,-0.00007958,0.00004396,0.00004247,0.000021
 28,-0.00001470,-0.00002617,-0.00001667,-0.00001859,0.00000698,0.000105
 55,0.,-0.00020214,0.00002128,0.00001470,-0.00002617,-0.00001667,0.0000
 1859,0.00000698,0.00005071,0.00001523,-0.00004019,0.00000028,0.0001068
 6,-0.00006487,-0.00007957,-0.00004396,0.00004247,0.00007473,0.00018559
 ,0.00000225,-0.00078967,-0.00064147,0.00008918,-0.00003679,0.00033487,
 0.00025074,-0.00078967,0.00064148,0.00008918,-0.00003679,-0.00033488,0
 .00025073,0.00007473,-0.00018559,0.00000225,-0.13944501,0.00000041,0.2
 4032804,-0.00005405,-0.00006127,-0.00003030,0.00006300,0.00015783,0.00
 004752,0.00018080,-0.00017383,0.00006062,-0.00023697,0.00008684,0.0000
 1978,-0.00004651,0.00000753,0.00004177,-0.00000073,-0.00000419,0.00001
 828,-0.00000518,0.00000876,-0.00001172,-0.00000603,-0.00005223,-0.0000
 2106,-0.00004963,0.00001534,0.00013422,0.00015271,-0.00034546,-0.00001
 597,-0.00695947,0.01040589,0.00278447,0.00064931,-0.00056982,0.0005234
 0,-0.00137835,-0.00067785,-0.00300877,-0.13988906,0.13316433,-0.003185
 13,-0.00003159,0.00004275,0.00003749,0.00001891,0.00000235,-0.00001649
 ,-0.00006125,-0.00007973,-0.00012442,0.00040918,0.00005365,0.00038712,
 0.00002375,-0.00001116,0.00002911,-0.00000476,-0.00000919,-0.00000893,
 0.00000398,-0.00000441,-0.00000092,0.00000341,-0.00000142,-0.00000422,
 0.00000417,-0.00001620,0.00000529,-0.00000212,-0.00000959,0.00000633,-
 0.00002493,-0.00005888,-0.00000157,0.00002522,-0.00001612,-0.00003753,
 -0.00029846,-0.00067778,-0.00022826,0.00004929,0.00015138,-0.00006244,
 0.00033957,-0.00003896,-0.00003480,0.00037822,-0.00039541,0.00009515,-
 0.00043176,0.00103869,0.00000078,0.00012442,0.00006009,-0.00000375,-0.
 01162173,0.01478834,-0.00227315,0.14553299,-0.00007197,0.00006415,-0.0
 0005172,0.00008579,-0.00016828,0.00006424,-0.00025967,0.00006304,-0.00
 011846,0.00074001,-0.00010576,0.00022128,0.00010414,-0.00000597,-0.000
 04959,0.00006362,-0.00002719,0.00003073,-0.00000246,0.00001031,0.00002
 766,-0.00001055,0.00004798,0.00002179,-0.00002838,0.00006587,0.0001805
 1,0.00031042,-0.00011231,0.00032785,-0.00162757,-0.00020276,-0.0006451
 7,0.00022289,0.00008861,0.00046910,-0.00017818,0.00045156,-0.00013870,
 0.12523974,-0.21769851,0.00864986,-0.00016495,0.00004037,0.00012165,-0
 .00001006,0.00001112,0.00002029,-0.00007879,-0.00004640,-0.00008682,-0
 .00036210,0.00015324,-0.00043075,-0.00003173,0.00001088,-0.00004300,-0
 .00000244,0.00000162,0.00000206,-0.00002252,0.00000978,0.00001919,-0.0
 0000099,-0.00000633,0.00000655,-0.00000626,0.00001007,-0.00000811,-0.0
 0000581,0.00000163,0.00000668,-0.00006251,0.00006753,-0.00011005,0.000
 08185,-0.00011616,-0.00003335,-0.00001517,0.00005303,-0.00005369,-0.00
 005636,-0.00001152,-0.00001603,0.00013406,0.00013096,0.00002647,0.0000
 1893,-0.00007388,-0.00004485,0.00001260,0.00018592,-0.00012034,-0.0001
 3077,0.00021969,-0.00011767,-0.00091903,0.00030369,-0.00024616,-0.1398
 2298,0.23762114,-0.00011115,-0.00012389,0.00000539,0.00013223,0.000317
 58,-0.00000424,0.00037188,-0.00025669,0.00015343,-0.00037059,-0.000039
 05,-0.00092524,-0.00014727,-0.00001290,0.00006789,0.00008022,0.0000134
 2,0.00006139,-0.00001209,0.00003057,-0.00003457,0.00002042,-0.00009048
 ,-0.00004161,-0.00003736,0.00005636,-0.00002491,0.00070285,-0.00046322
 ,0.00044464,-0.00925205,0.01661597,0.00157228,0.00111939,-0.00061388,0
 .00062388,-0.00251053,-0.00089168,-0.00413574,-0.01140094,0.02016112,-
 0.04033533,-0.00022821,-0.00010603,0.00007091,0.00000433,-0.00000112,-
 0.00002032,0.00000038,-0.00005692,0.00000362,0.00087331,-0.00022329,-0
 .00034357,0.00004411,-0.00001908,0.00008047,0.00000575,-0.00000638,-0.
 00001745,-0.00000475,-0.00001343,0.00004464,-0.00000404,0.00000151,0.0
 0000773,0.00001464,-0.00002885,0.00000747,-0.00001545,-0.00002105,0.00
 001648,0.00000604,-0.00019298,0.00014761,0.00000890,0.00013686,0.00000
 787,-0.00033486,-0.00059339,0.00000550,0.00013969,0.00007968,-0.000016
 04,0.00036155,0.00015374,-0.00008551,-0.00002873,-0.00017738,0.0001242
 4,-0.00107737,0.00133385,0.00023281,0.00037183,-0.00028146,0.00003932,
 0.01636931,-0.02390511,0.00160169,0.00390421,-0.00926036,0.04206678,-0
 .00005405,0.00006127,-0.00003030,0.00006300,-0.00015784,0.00004752,-0.
 00000603,0.00005222,-0.00002106,-0.00004963,-0.00001534,0.00013422,-0.
 00000518,-0.00000876,-0.00001172,-0.00000073,0.00000419,0.00001828,-0.
 00004652,-0.00000753,0.00004177,0.00018080,0.00017383,0.00006063,-0.00
 023698,-0.00008684,0.00001977,0.00015272,0.00034545,-0.00001597,-0.006
 95955,-0.01040586,0.00278444,-0.00137835,0.00067788,-0.00300877,0.0006
 4931,0.00056981,0.00052339,-0.13989096,-0.13316462,-0.00318564,-0.0000
 3159,-0.00004275,0.00003749,-0.00000212,0.00000959,0.00000633,-0.00002
 493,0.00005888,-0.00000157,0.00002522,0.00001611,-0.00003753,0.0000034
 1,0.00000142,-0.00000422,0.00000417,0.00001620,0.00000529,0.00000398,0
 .00000441,-0.00000092,0.00002375,0.00001116,0.00002911,-0.00000476,0.0
 0000919,-0.00000893,0.00001891,-0.00000235,-0.00001649,-0.00006125,0.0
 0007973,-0.00012442,0.00040919,-0.00005365,0.00038712,0.00012442,-0.00
 006009,-0.00000375,0.00037822,0.00039541,0.00009515,-0.00043177,-0.001
 03869,0.00000078,0.00004929,-0.00015138,-0.00006244,0.00033957,0.00003
 896,-0.00003480,-0.00029846,0.00067778,-0.00022826,-0.01162187,-0.0147
 8827,-0.00227316,0.01312506,0.01688392,0.00092714,0.14553510,0.0000719
 8,0.00006415,0.00005172,-0.00008580,-0.00016827,-0.00006425,0.00001055
 ,0.00004798,-0.00002178,0.00002838,0.00006587,-0.00018052,0.00000246,0
 .00001031,-0.00002766,-0.00006362,-0.00002719,-0.00003073,-0.00010414,
 -0.00000597,0.00004959,0.00025966,0.00006304,0.00011846,-0.00073999,-0
 .00010576,-0.00022127,-0.00031043,-0.00011231,-0.00032785,0.00162764,-
 0.00020264,0.00064514,0.00017820,0.00045155,0.00013873,-0.00022290,0.0
 0008861,-0.00046911,-0.12524002,-0.21769607,-0.00865040,0.00016495,0.0
 0004037,-0.00012165,0.00000581,0.00000163,-0.00000668,0.00006251,0.000
 06753,0.00011006,-0.00008184,-0.00011616,0.00003335,0.00000100,-0.0000
 0633,-0.00000655,0.00000626,0.00001007,0.00000811,0.00002252,0.0000097
 8,-0.00001919,0.00003173,0.00001088,0.00004300,0.00000244,0.00000162,-
 0.00000206,0.00001006,0.00001112,-0.00002029,0.00007879,-0.00004640,0.
 00008682,0.00036209,0.00015324,0.00043075,0.00013077,0.00021969,0.0001
 1767,-0.00001893,-0.00007389,0.00004485,-0.00001259,0.00018593,0.00012
 034,0.00005636,-0.00001152,0.00001603,-0.00013406,0.00013096,-0.000026
 47,0.00001518,0.00005303,0.00005369,0.00091905,0.00030372,0.00024618,-
 0.01688421,-0.02105026,-0.00142725,0.13982344,0.23761857,-0.00011115,0
 .00012389,0.00000539,0.00013223,-0.00031757,-0.00000424,0.00002042,0.0
 0009048,-0.00004161,-0.00003736,-0.00005636,-0.00002491,-0.00001209,-0
 .00003057,-0.00003457,0.00008022,-0.00001342,0.00006139,-0.00014727,0.
 00001290,0.00006789,0.00037188,0.00025668,0.00015343,-0.00037059,0.000
 03905,-0.00092524,0.00070286,0.00046322,0.00044465,-0.00925220,-0.0166
 1590,0.00157221,-0.00251053,0.00089171,-0.00413574,0.00111939,0.000613
 87,0.00062387,-0.01140153,-0.02016160,-0.04033546,-0.00022822,0.000106
 03,0.00007091,-0.00001545,0.00002105,0.00001648,0.00000604,0.00019298,
 0.00014761,0.00000891,-0.00013686,0.00000787,-0.00000404,-0.00000151,0
 .00000773,0.00001464,0.00002885,0.00000747,-0.00000475,0.00001343,0.00
 004464,0.00004411,0.00001908,0.00008047,0.00000575,0.00000638,-0.00001
 745,0.00000433,0.00000112,-0.00002032,0.00000038,0.00005692,0.00000363
 ,0.00087330,0.00022329,-0.00034356,0.00037184,0.00028146,0.00003932,-0
 .00002873,0.00017738,0.00012424,-0.00107738,-0.00133384,0.00023280,0.0
 0013969,-0.00007968,-0.00001604,0.00036155,-0.00015374,-0.00008551,-0.
 00033485,0.00059339,0.00000550,0.01636955,0.02390497,0.00160175,0.0009
 2710,0.00142718,-0.00153940,0.00390474,0.00926096,0.04206691,-0.000028
 44,0.00036897,0.00000328,0.00022689,-0.00095464,0.00000231,-0.00011511
 ,0.00046385,-0.00000392,0.00024104,-0.00141779,0.00067327,0.00029009,-
 0.00146113,-0.00078946,-0.01229214,-0.01586665,0.00044153,-0.00110784,
 0.00164240,0.00398325,0.00049074,0.00047830,-0.00000782,-0.00140123,0.
 00144905,-0.00387275,-0.01068437,-0.01409414,-0.00121344,-0.00062365,-
 0.00069573,0.00029187,-0.00019444,0.00005668,0.00035863,0.00009809,0.0
 0002725,-0.00008527,0.00010769,0.00007848,-0.00009062,-0.13687839,-0.1
 1767525,-0.00073164,-0.00005926,0.00004026,0.00000395,-0.00005164,0.00
 090878,-0.00019066,0.00037260,0.00020299,-0.00001689,0.00042457,0.0002
 1468,0.00001312,-0.00005875,0.00097763,0.00019999,0.00087304,0.0003398
 7,-0.00003408,-0.00062124,-0.00111173,-0.00004800,0.00013757,-0.000234
 46,-0.00003850,0.00002039,0.00001567,-0.00000582,0.00012605,-0.0002395
 5,0.00004529,-0.00061547,-0.00109761,0.00008453,-0.00000168,0.00007732
 ,-0.00013126,0.00006561,0.00006771,0.00015657,0.00026422,-0.00007171,0
 .00044563,0.00003002,-0.00005025,0.00001515,0.00004445,0.00001833,-0.0
 0002287,-0.00004558,0.00003395,-0.00002517,-0.00000599,0.00002405,-0.0
 0004553,-0.00001710,0.00000142,-0.00001332,0.00003569,0.00002812,0.000
 09052,0.14813486,-0.00019798,0.00015244,-0.00000390,0.00027360,-0.0003
 8695,0.00000795,-0.00012085,-0.00000133,-0.00002752,0.00056057,0.00064
 754,0.00029920,0.00069526,0.00062286,-0.00036191,0.00058059,-0.0009282
 9,0.00016608,0.00036004,0.00104027,0.00078125,0.00014407,0.00013594,-0
 .00001095,0.00027320,0.00099989,-0.00068371,0.00108376,-0.00008762,-0.
 00115835,-0.00167168,-0.00106514,0.00001744,-0.00043215,0.00003840,0.0
 0017554,0.00034319,0.00025150,-0.00027053,0.00028553,0.00017208,-0.000
 19166,-0.11819014,-0.21511302,-0.00118916,-0.00000700,0.00002543,-0.00
 000584,-0.00024720,0.00048009,0.00003601,-0.00000461,0.00022553,-0.000
 10313,0.00003415,0.00019620,0.00011785,-0.00021489,0.00055528,-0.00004
 532,0.00002885,0.00009579,0.00053456,-0.00039310,0.00010037,-0.0000940
 6,0.00011430,0.00044282,-0.00012141,-0.00003709,-0.00004240,-0.0000015
 4,0.00012343,0.00040091,0.00012220,-0.00035633,0.00010976,0.00011794,0
 .00003108,-0.00006954,0.00007859,0.00019642,-0.00001901,0.00027644,0.0
 0053252,0.00030748,0.00034231,0.00005432,-0.00004110,-0.00006077,-0.00
 007033,-0.00016832,0.00001627,-0.00002939,0.00016243,0.00014697,-0.000
 04604,-0.00000300,-0.00009333,-0.00001236,-0.00000680,0.00001274,0.000
 06074,0.00001991,0.00010753,0.13185522,0.23206052,-0.00001575,-0.00001
 569,-0.00002206,0.00001200,0.00003198,-0.00005152,-0.00002073,0.000003
 57,-0.00026763,0.00069954,-0.00095786,0.00100845,-0.00061067,0.0010677
 3,0.00103319,0.01748107,0.02344186,-0.00035550,0.00319533,-0.00135323,
 -0.00505243,-0.00001075,0.00000386,-0.00047905,-0.00337119,0.00127916,
 -0.00527997,-0.01535861,-0.02268805,-0.00050160,-0.00152969,-0.0019389
 0,-0.00042192,-0.00015806,0.00021684,0.00003175,0.00028078,0.00018072,
 -0.00021772,0.00014767,0.00018844,-0.00002244,-0.00122740,-0.00114660,
 -0.04743437,-0.00000338,0.00000253,0.00008713,0.00009908,0.00064326,0.
 00012647,0.00037715,-0.00001498,-0.00008666,-0.00042892,0.00002221,-0.
 00006487,-0.00010134,-0.00069236,0.00011228,-0.00082090,0.00020231,0.0
 0095739,0.00141843,0.00144054,0.00005346,-0.00025223,-0.00029997,-0.00
 001667,0.00001927,0.00000462,0.00031343,0.00025773,0.00024997,-0.00000
 382,-0.00151625,-0.00151306,0.00017351,0.00005081,0.00004746,-0.000002
 84,0.00006585,-0.00009636,0.00017655,0.00070061,0.00041038,-0.00044204
 ,0.00008016,-0.00004838,-0.00000605,0.00001249,-0.00006459,0.00000934,
 -0.00008351,0.00014395,0.00008037,0.00000648,0.00001677,-0.00002682,-0
 .00001599,-0.00001268,-0.00000468,0.00006276,0.00003557,0.00014257,0.0
 0035096,0.00113761,0.05688064,-0.00002845,-0.00036897,0.00000328,0.000
 22689,0.00095464,0.00000231,0.00049074,-0.00047830,-0.00000782,-0.0014
 0123,-0.00144905,-0.00387275,-0.00110784,-0.00164240,0.00398326,-0.012
 29214,0.01586668,0.00044154,0.00029009,0.00146113,-0.00078946,-0.00011
 511,-0.00046384,-0.00000392,0.00024103,0.00141779,0.00067327,-0.010684
 37,0.01409416,-0.00121345,-0.00062365,0.00069574,0.00029187,0.00009809
 ,-0.00002725,-0.00008527,-0.00019444,-0.00005668,0.00035862,0.00010769
 ,-0.00007848,-0.00009062,-0.13687795,0.11767488,-0.00073163,0.00002039
 ,-0.00001567,-0.00000582,0.00012605,0.00023955,0.00004529,-0.00061547,
 0.00109761,0.00008453,-0.00062124,0.00111173,-0.00004800,0.00013757,0.
 00023446,-0.00003850,0.00087304,-0.00033987,-0.00003408,0.00042457,-0.
 00021468,0.00001312,-0.00005875,-0.00097763,0.00019999,-0.00005926,-0.
 00004026,0.00000395,-0.00005164,-0.00090878,-0.00019066,0.00037260,-0.
 00020299,-0.00001689,-0.00004558,-0.00003395,-0.00002517,0.00003002,0.
 00005025,0.00001515,0.00004445,-0.00001833,-0.00002287,0.00006561,-0.0
 0006771,0.00015657,0.00026423,0.00007171,0.00044562,-0.00000168,-0.000
 07732,-0.00013126,-0.00000599,-0.00002405,-0.00004553,0.00003569,-0.00
 002813,0.00009052,-0.00001710,-0.00000141,-0.00001332,0.01281872,-0.01
 559973,0.00020717,0.14813442,0.00019798,0.00015244,0.00000390,-0.00027
 360,-0.00038695,-0.00000795,-0.00014407,0.00013594,0.00001094,-0.00027
 319,0.00099989,0.00068371,-0.00036003,0.00104028,-0.00078126,-0.000580
 56,-0.00092831,-0.00016609,-0.00069526,0.00062286,0.00036191,0.0001208
 5,-0.00000133,0.00002752,-0.00056057,0.00064754,-0.00029920,-0.0010837
 4,-0.00008763,0.00115835,0.00167168,-0.00106514,-0.00001744,-0.0003431
 8,0.00025150,0.00027053,0.00043214,0.00003839,-0.00017553,-0.00028553,
 0.00017208,0.00019166,0.11818978,-0.21511303,0.00118915,0.00003709,-0.
 00004240,0.00000154,-0.00012343,0.00040091,-0.00012220,0.00035633,0.00
 010976,-0.00011794,0.00039310,0.00010037,0.00009406,-0.00011430,0.0004
 4282,0.00012141,-0.00002885,0.00009579,-0.00053456,-0.00003415,0.00019
 620,-0.00011785,0.00021489,0.00055528,0.00004532,0.00000700,0.00002543
 ,0.00000584,0.00024720,0.00048009,-0.00003601,0.00000461,0.00022553,0.
 00010313,0.00002939,0.00016243,-0.00014697,-0.00005432,-0.00004110,0.0
 0006077,0.00007032,-0.00016832,-0.00001627,-0.00019642,-0.00001900,-0.
 00027643,-0.00053252,0.00030749,-0.00034230,-0.00003108,-0.00006954,-0
 .00007859,0.00004604,-0.00000300,0.00009333,-0.00006074,0.00001991,-0.
 00010753,0.00001236,-0.00000680,-0.00001274,0.01559970,-0.02131092,0.0
 0007137,-0.13185489,0.23206056,-0.00001575,0.00001569,-0.00002206,0.00
 001200,-0.00003198,-0.00005152,-0.00001075,-0.00000386,-0.00047905,-0.
 00337120,-0.00127915,-0.00527997,0.00319534,0.00135322,-0.00505243,0.0
 1748107,-0.02344188,-0.00035551,-0.00061067,-0.00106773,0.00103319,-0.
 00002073,-0.00000357,-0.00026763,0.00069954,0.00095786,0.00100845,-0.0
 1535861,0.02268807,-0.00050160,-0.00152968,0.00193890,-0.00042192,0.00
 028078,-0.00018072,-0.00021772,-0.00015807,-0.00021684,0.00003175,0.00
 014767,-0.00018844,-0.00002244,-0.00122740,0.00114661,-0.04743440,0.00
 001927,-0.00000462,0.00031343,0.00025773,-0.00024998,-0.00000382,-0.00
 151625,0.00151306,0.00017351,0.00141843,-0.00144054,0.00005346,-0.0002
 5222,0.00029997,-0.00001667,-0.00082090,-0.00020231,0.00095739,-0.0004
 2892,-0.00002221,-0.00006487,-0.00010134,0.00069236,0.00011228,-0.0000
 0338,-0.00000253,0.00008713,0.00009908,-0.00064326,0.00012647,0.000377
 15,0.00001498,-0.00008666,-0.00008351,-0.00014395,0.00008037,0.0000801
 6,0.00004838,-0.00000605,0.00001250,0.00006459,0.00000934,0.00006586,0
 .00009636,0.00017655,0.00070060,-0.00041039,-0.00044205,0.00005081,-0.
 00004746,-0.00000283,0.00000648,-0.00001677,-0.00002682,0.00006276,-0.
 00003557,0.00014257,-0.00001599,0.00001268,-0.00000468,0.00020717,-0.0
 0007137,-0.00042586,0.00035096,-0.00113761,0.05688069\\0.00006755,0.,0
 .00002966,-0.00006366,0.00000005,0.00001083,0.00002541,0.00000213,-0.0
 0002819,-0.00000538,-0.00004723,0.00003338,-0.00001419,-0.00000737,0.0
 0000510,0.00005426,0.00000019,0.00002463,-0.00001423,0.00000773,0.0000
 0449,0.00002478,-0.00000264,-0.00002786,-0.00000539,0.00004704,0.00003
 322,0.00009264,0.00000008,-0.00005970,-0.00002075,0.00000019,0.0001062
 9,-0.00002777,-0.00000845,0.00003329,-0.00002815,0.00000829,0.00003402
 ,-0.00003894,-0.00000030,-0.00004922,-0.00008299,-0.00000029,-0.000091
 51,-0.00002452,-0.00000946,0.00003024,-0.00001791,0.00000052,-0.000009
 41,0.00001278,-0.00000674,-0.00001968,-0.00000640,0.00000516,0.0000077
 0,0.00001247,0.00001483,0.00001273,-0.00002195,0.00000003,0.00001330,-
 0.00000642,-0.00000516,0.00000786,0.00001263,-0.00001514,0.00001279,-0
 .00002431,0.00000975,0.00003013,-0.00001800,-0.00000035,-0.00000948,0.
 00001302,0.00000671,-0.00001942,-0.00001483,0.00001333,0.00000565,0.00
 001561,0.00000486,-0.00002130,0.00001291,-0.00000926,-0.00003278,0.000
 01588,-0.00000496,-0.00002169,0.00001275,0.00000931,-0.00003304,-0.000
 01463,-0.00001315,0.00000554,0.00001552,0.00000009,-0.00002016,0.00002
 103,-0.00001157,-0.00001957,0.00002100,0.00001168,-0.00001953,0.000010
 10,0.00000394,0.00002084,0.00001010,-0.00000384,0.00002083\\\@


 ADVERTISING--  HE WHO HAS SOMETHING TO SELL AND GOES AND WHISPERS
                IN A WELL, IS NOT SO APT TO GET THE DOLLARS AS HE
                WHO CLIMBS A TREE AND HOLLERS.

                   -- FROM THE BACK OF A SUGAR PACKET
 Job cpu time:       0 days  0 hours  5 minutes 31.7 seconds.
 Elapsed time:       0 days  0 hours  5 minutes 57.2 seconds.
 File lengths (MBytes):  RWF=    332 Int=      0 D2E=      0 Chk=     16 Scr=      1
 Normal termination of Gaussian 16 at Fri Feb 23 23:56:01 2024.
