 Entering Gaussian System, Link 0=g16
 Input=/Volumes/SSD-PMU3/b3lyp_6-31gd_freq/DOCLMTQMWGMALI-RQJHMYQMSA-N_calculating/gaussianinput0.gjf
 Output=/Volumes/SSD-PMU3/b3lyp_6-31gd_freq/DOCLMTQMWGMALI-RQJHMYQMSA-N_calculating/gaussianinput0.log
 Initial command:
 /Applications/g16/l1.exe "/Users/macmini_m1_2022/PycharmProjects/sphere_model/sphere_model_lib/Gau-53650.inp" -scrdir="/Users/macmini_m1_2022/PycharmProjects/sphere_model/sphere_model_lib/"
 Entering Link 1 = /Applications/g16/l1.exe PID=     53651.
  
 Copyright (c) 1988,1990,1992,1993,1995,1998,2003,2009,2016,
            Gaussian, Inc.  All Rights Reserved.
  
 This is part of the Gaussian(R) 16 program.  It is based on
 the Gaussian(R) 09 system (copyright 2009, Gaussian, Inc.),
 the Gaussian(R) 03 system (copyright 2003, Gaussian, Inc.),
 the Gaussian(R) 98 system (copyright 1998, Gaussian, Inc.),
 the Gaussian(R) 94 system (copyright 1995, Gaussian, Inc.),
 the Gaussian 92(TM) system (copyright 1992, Gaussian, Inc.),
 the Gaussian 90(TM) system (copyright 1990, Gaussian, Inc.),
 the Gaussian 88(TM) system (copyright 1988, Gaussian, Inc.),
 the Gaussian 86(TM) system (copyright 1986, Carnegie Mellon
 University), and the Gaussian 82(TM) system (copyright 1983,
 Carnegie Mellon University). Gaussian is a federally registered
 trademark of Gaussian, Inc.
  
 This software contains proprietary and confidential information,
 including trade secrets, belonging to Gaussian, Inc.
  
 This software is provided under written license and may be
 used, copied, transmitted, or stored only in accord with that
 written license.
  
 The following legend is applicable only to US Government
 contracts under FAR:
  
                    RESTRICTED RIGHTS LEGEND
  
 Use, reproduction and disclosure by the US Government is
 subject to restrictions as set forth in subparagraphs (a)
 and (c) of the Commercial Computer Software - Restricted
 Rights clause in FAR 52.227-19.
  
 Gaussian, Inc.
 340 Quinnipiac St., Bldg. 40, Wallingford CT 06492
  
  
 ---------------------------------------------------------------
 Warning -- This program may not be used in any manner that
 competes with the business of Gaussian, Inc. or will provide
 assistance to any competitor of Gaussian, Inc.  The licensee
 of this program is prohibited from giving any competitor of
 Gaussian, Inc. access to this program.  By using this program,
 the user acknowledges that Gaussian, Inc. is engaged in the
 business of creating and licensing software in the field of
 computational chemistry and represents and warrants to the
 licensee that it is not a competitor of Gaussian, Inc. and that
 it will not use this program in any manner prohibited above.
 ---------------------------------------------------------------
  

 Cite this work as:
 Gaussian 16, Revision A.03,
 M. J. Frisch, G. W. Trucks, H. B. Schlegel, G. E. Scuseria, 
 M. A. Robb, J. R. Cheeseman, G. Scalmani, V. Barone, 
 G. A. Petersson, H. Nakatsuji, X. Li, M. Caricato, A. V. Marenich, 
 J. Bloino, B. G. Janesko, R. Gomperts, B. Mennucci, H. P. Hratchian, 
 J. V. Ortiz, A. F. Izmaylov, J. L. Sonnenberg, D. Williams-Young, 
 F. Ding, F. Lipparini, F. Egidi, J. Goings, B. Peng, A. Petrone, 
 T. Henderson, D. Ranasinghe, V. G. Zakrzewski, J. Gao, N. Rega, 
 G. Zheng, W. Liang, M. Hada, M. Ehara, K. Toyota, R. Fukuda, 
 J. Hasegawa, M. Ishida, T. Nakajima, Y. Honda, O. Kitao, H. Nakai, 
 T. Vreven, K. Throssell, J. A. Montgomery, Jr., J. E. Peralta, 
 F. Ogliaro, M. J. Bearpark, J. J. Heyd, E. N. Brothers, K. N. Kudin, 
 V. N. Staroverov, T. A. Keith, R. Kobayashi, J. Normand, 
 K. Raghavachari, A. P. Rendell, J. C. Burant, S. S. Iyengar, 
 J. Tomasi, M. Cossi, J. M. Millam, M. Klene, C. Adamo, R. Cammi, 
 J. W. Ochterski, R. L. Martin, K. Morokuma, O. Farkas, 
 J. B. Foresman, and D. J. Fox, Gaussian, Inc., Wallingford CT, 2016.
 
 ******************************************
 Gaussian 16:  EM64M-G16RevA.03 25-Dec-2016
                21-Feb-2024 
 ******************************************
 %nprocshared=8
 Will use up to    8 processors via shared memory.
 %mem=4GB
 %chk= 0.chk
 ---------------------
 # freq b3lyp/6-31g(d)
 ---------------------
 1/10=4,30=1,38=1/1,3;
 2/12=2,17=6,18=5,40=1/2;
 3/5=1,6=6,7=1,11=2,25=1,30=1,71=2,74=-5,140=1/1,2,3;
 4//1;
 5/5=2,38=5,98=1/2;
 8/6=4,10=90,11=11/1;
 11/6=1,8=1,9=11,15=111,16=1/1,2,10;
 10/6=1/2;
 6/7=2,8=2,9=2,10=2,28=1/1;
 7/8=1,10=1,25=1/1,2,3,16;
 1/10=4,30=1/3;
 99//99;
 ---------
 good luck
 ---------
 Symbolic Z-matrix:
 Charge =  0 Multiplicity = 1
 O                     1.21105   0.        0. 
 C                     0.        0.        0. 
 C                    -0.93628  -1.20922  -0.01277 
 C                    -2.12703  -0.68711   0.85164 
 C                    -1.73477  -0.39304   2.31194 
 C                    -3.34815  -1.62086   0.88224 
 C                    -1.53207  -1.22384  -1.4541 
 C                    -2.51197  -0.00527  -1.45416 
 C                    -2.32343   0.59143  -0.03708 
 C                    -0.9209    1.23821  -0.01277 
 H                    -0.44975  -2.1376    0.29446 
 H                    -0.82375   0.20436   2.41077 
 H                    -2.54192   0.14109   2.82829 
 H                    -1.56282  -1.33072   2.85352 
 H                    -3.11443  -2.53772   1.4365 
 H                    -4.18409  -1.13137   1.39769 
 H                    -3.70195  -1.91718  -0.10799 
 H                    -0.75013  -1.14011  -2.21556 
 H                    -2.0546   -2.16749  -1.63807 
 H                    -3.54536  -0.32041  -1.62707 
 H                    -2.26766   0.7251   -2.23264 
 H                    -3.13152   1.25704   0.28263 
 H                    -0.70879   1.86976  -0.8829 
 H                    -0.73481   1.84839   0.87773 
 

 GradGradGradGradGradGradGradGradGradGradGradGradGradGradGradGradGradGrad
 Berny optimization.
 Initialization pass.
 Trust Radius=3.00D-01 FncErr=1.00D-07 GrdErr=1.00D-07 EigMax=2.50D+02 EigMin=1.00D-04
 Number of steps in this run=      2 maximum allowed number of steps=      2.
 GradGradGradGradGradGradGradGradGradGradGradGradGradGradGradGradGradGrad

                          Input orientation:                          
 ---------------------------------------------------------------------
 Center     Atomic      Atomic             Coordinates (Angstroms)
 Number     Number       Type             X           Y           Z
 ---------------------------------------------------------------------
      1          8           0        1.211055    0.000000    0.000000
      2          6           0        0.000000    0.000000    0.000000
      3          6           0       -0.936279   -1.209221   -0.012769
      4          6           0       -2.127028   -0.687111    0.851640
      5          6           0       -1.734767   -0.393043    2.311944
      6          6           0       -3.348146   -1.620864    0.882242
      7          6           0       -1.532066   -1.223837   -1.454098
      8          6           0       -2.511970   -0.005274   -1.454162
      9          6           0       -2.323426    0.591434   -0.037075
     10          6           0       -0.920904    1.238211   -0.012769
     11          1           0       -0.449749   -2.137601    0.294459
     12          1           0       -0.823747    0.204356    2.410773
     13          1           0       -2.541920    0.141093    2.828290
     14          1           0       -1.562819   -1.330723    2.853518
     15          1           0       -3.114433   -2.537722    1.436502
     16          1           0       -4.184090   -1.131369    1.397685
     17          1           0       -3.701953   -1.917182   -0.107988
     18          1           0       -0.750125   -1.140111   -2.215562
     19          1           0       -2.054597   -2.167490   -1.638067
     20          1           0       -3.545357   -0.320411   -1.627066
     21          1           0       -2.267656    0.725097   -2.232635
     22          1           0       -3.131522    1.257035    0.282625
     23          1           0       -0.708789    1.869762   -0.882901
     24          1           0       -0.734811    1.848386    0.877727
 ---------------------------------------------------------------------
                    Distance matrix (angstroms):
                    1          2          3          4          5
     1  O    0.000000
     2  C    1.211055   0.000000
     3  C    2.464431   1.529378   0.000000
     4  C    3.512864   2.391999   1.561309   0.000000
     5  C    3.765293   2.917016   2.589985   1.540400   0.000000
     6  C    4.918523   3.823040   2.605302   1.537518   2.480843
     7  C    3.337198   2.441189   1.559681   2.441000   3.861914
     8  C    3.996940   2.902518   2.451511   2.435119   3.864966
     9  C    3.583814   2.397807   2.273131   1.569415   2.614116
    10  C    2.465477   1.543176   2.447480   2.430803   2.954260
    11  H    2.722924   2.204159   1.092241   2.286403   2.960574
    12  H    3.161330   2.555807   2.807921   2.219043   1.093897
    13  H    4.701484   3.805324   3.531720   2.182934   1.097001
    14  H    4.196161   3.515081   2.936480   2.177173   1.096409
    15  H    5.216648   4.266528   2.934222   2.177566   2.696206
    16  H    5.686924   4.554133   3.541711   2.174174   2.716648
    17  H    5.274931   4.170336   2.856436   2.216833   3.471151
    18  H    3.170930   2.602164   2.211725   3.392462   4.693180
    19  H    4.248030   3.406266   2.193287   2.897483   4.342066
    20  H    5.037208   3.914021   3.194249   2.879255   4.335817
    21  H    4.196648   3.263846   3.231402   3.395123   4.710351
    22  H    4.529679   3.386214   3.314931   2.261082   2.965100
    23  H    2.821582   2.185842   3.207650   3.399652   4.047215
    24  H    2.823709   2.174140   3.191008   2.892697   2.842691
                    6          7          8          9         10
     6  C    0.000000
     7  C    2.985676   0.000000
     8  C    2.961099   1.563684   0.000000
     9  C    2.605659   2.435039   1.549111   0.000000
    10  C    3.855757   2.917641   2.481000   1.544662   0.000000
    11  H    3.002201   2.250295   3.443436   3.326892   3.422350
    12  H    3.469932   4.180751   4.222767   2.896692   2.636636
    13  H    2.746197   4.606700   4.285057   2.908756   3.450069
    14  H    2.675351   4.309052   4.605845   3.553694   3.902189
    15  H    1.096565   3.547640   3.890012   3.548061   4.601046
    16  H    1.097310   3.895439   3.492436   2.913530   4.272315
    17  H    1.092492   2.645968   2.623668   2.863306   4.207114
    18  H    4.071514   1.094655   2.229727   3.196769   3.246210
    19  H    2.885139   1.094241   2.217699   3.201110   3.940260
    20  H    2.833143   2.213467   1.094119   2.202873   3.452971
    21  H    4.046412   2.223861   1.095058   2.200332   2.646664
    22  H    2.947672   3.424791   2.234658   1.094647   2.230346
    23  H    4.718729   3.251831   2.663374   2.226342   1.095892
    24  H    4.343413   3.938474   3.468725   2.222721   1.095412
                   11         12         13         14         15
    11  H    0.000000
    12  H    3.178588   0.000000
    13  H    3.998740   1.769305   0.000000
    14  H    2.904954   1.760318   1.767913   0.000000
    15  H    2.926585   3.703436   3.072604   2.423280   0.000000
    16  H    4.021805   3.755318   2.522402   3.005038   1.767343
    17  H    3.284415   4.373688   3.768806   3.700047   1.765134
    18  H    2.717612   4.818297   5.503858   5.137351   4.569556
    19  H    2.512188   4.851160   5.051275   4.595254   3.273118
    20  H    4.071514   4.897620   4.590214   5.002681   3.806260
    21  H    4.229188   4.890530   5.101886   5.531016   4.982528
    22  H    4.326153   3.311038   2.841367   3.970744   3.966347
    23  H    4.184762   3.692571   4.485711   4.993325   5.531064
    24  H    4.038509   2.249661   3.159935   3.833547   5.021232
                   16         17         18         19         20
    16  H    0.000000
    17  H    1.765505   0.000000
    18  H    4.984751   3.709312   0.000000
    19  H    3.850205   2.262206   1.758026   0.000000
    20  H    3.196052   2.209479   2.971794   2.373644   0.000000
    21  H    4.505376   3.681436   2.404619   2.960737   1.758500
    22  H    2.838262   3.248634   4.202178   4.071388   2.511278
    23  H    5.126946   4.888810   3.291964   4.322138   3.660158
    24  H    4.587682   4.894391   4.301138   4.919178   4.344748
                   21         22         23         24
    21  H    0.000000
    22  H    2.712150   0.000000
    23  H    2.358412   2.757448   0.000000
    24  H    3.644961   2.539304   1.760950   0.000000
 Stoichiometry    C9H14O
 Framework group  C1[X(C9H14O)]
 Deg. of freedom    66
 Full point group                 C1      NOp   1
 Largest Abelian subgroup         C1      NOp   1
 Largest concise Abelian subgroup C1      NOp   1
                         Standard orientation:                         
 ---------------------------------------------------------------------
 Center     Atomic      Atomic             Coordinates (Angstroms)
 Number     Number       Type             X           Y           Z
 ---------------------------------------------------------------------
      1          8           0        2.566241   -0.618142   -0.643528
      2          6           0        1.483741   -0.290157   -0.210777
      3          6           0        0.217797    0.036024   -1.004494
      4          6           0       -0.893526   -0.498528   -0.046944
      5          6           0       -0.832559   -2.023276    0.163435
      6          6           0       -2.327273   -0.150645   -0.479735
      7          6           0        0.069730    1.583707   -0.880562
      8          6           0       -0.370292    1.788349    0.605914
      9          6           0       -0.371486    0.345218    1.169045
     10          6           0        1.106919   -0.090260    1.272274
     11          1           0        0.237557   -0.344767   -2.028016
     12          1           0        0.168707   -2.394820    0.400144
     13          1           0       -1.502595   -2.327711    0.976935
     14          1           0       -1.160676   -2.543690   -0.744100
     15          1           0       -2.596164   -0.701021   -1.389261
     16          1           0       -3.038766   -0.444187    0.302378
     17          1           0       -2.481771    0.911902   -0.681384
     18          1           0        1.004497    2.099780   -1.121700
     19          1           0       -0.685111    1.949163   -1.583428
     20          1           0       -1.359950    2.250160    0.672271
     21          1           0        0.319804    2.434112    1.159004
     22          1           0       -0.942174    0.223522    2.095196
     23          1           0        1.757672    0.657269    1.739929
     24          1           0        1.250730   -1.027169    1.821316
 ---------------------------------------------------------------------
 Rotational constants (GHZ):           1.8998661           1.3860099           1.1542683
 Standard basis: 6-31G(d) (6D, 7F)
 There are   178 symmetry adapted cartesian basis functions of A   symmetry.
 There are   178 symmetry adapted basis functions of A   symmetry.
   178 basis functions,   336 primitive gaussians,   178 cartesian basis functions
    38 alpha electrons       38 beta electrons
       nuclear repulsion energy       575.0085266791 Hartrees.
 NAtoms=   24 NActive=   24 NUniq=   24 SFac= 1.00D+00 NAtFMM=   60 NAOKFM=F Big=F
 Integral buffers will be    131072 words long.
 Raffenetti 2 integral format.
 Two-electron integral symmetry is turned on.
 One-electron integrals computed using PRISM.
 NBasis=   178 RedAO= T EigKep=  1.64D-03  NBF=   178
 NBsUse=   178 1.00D-06 EigRej= -1.00D+00 NBFU=   178
 ExpMin= 1.61D-01 ExpMax= 5.48D+03 ExpMxC= 8.25D+02 IAcc=3 IRadAn=         5 AccDes= 0.00D+00
 Harris functional with IExCor=  402 and IRadAn=       5 diagonalized for initial guess.
 HarFok:  IExCor=  402 AccDes= 0.00D+00 IRadAn=         5 IDoV= 1 UseB2=F ITyADJ=14
 ICtDFT=  3500011 ScaDFX=  1.000000  1.000000  1.000000  1.000000
 FoFCou: FMM=F IPFlag=           0 FMFlag=      100000 FMFlg1=           0
         NFxFlg=           0 DoJE=T BraDBF=F KetDBF=T FulRan=T
         wScrn=  0.000000 ICntrl=       500 IOpCl=  0 I1Cent=   200000004 NGrid=           0
         NMat0=    1 NMatS0=      1 NMatT0=    0 NMatD0=    1 NMtDS0=    0 NMtDT0=    0
 Petite list used in FoFCou.
 Requested convergence on RMS density matrix=1.00D-08 within 128 cycles.
 Requested convergence on MAX density matrix=1.00D-06.
 Requested convergence on             energy=1.00D-06.
 No special actions if energy rises.
 Integral accuracy reduced to 1.0D-05 until final iterations.
 Initial convergence to 1.0D-05 achieved.  Increase integral accuracy.
 SCF Done:  E(RB3LYP) =  -426.605901892     A.U. after   13 cycles
            NFock= 13  Conv=0.85D-08     -V/T= 2.0096
 DoSCS=F DFT=T ScalE2(SS,OS)=  1.000000  1.000000
 Range of M.O.s used for correlation:     1   178
 NBasis=   178 NAE=    38 NBE=    38 NFC=     0 NFV=     0
 NROrb=    178 NOA=    38 NOB=    38 NVA=   140 NVB=   140
 Symmetrizing basis deriv contribution to polar:
 IMax=3 JMax=2 DiffMx= 0.00D+00
 G2DrvN: will do    25 centers at a time, making    1 passes.
 Calling FoFCou, ICntrl=  3107 FMM=F I1Cent=   0 AccDes= 0.00D+00.
 End of G2Drv F.D. properties file   721 does not exist.
 End of G2Drv F.D. properties file   722 does not exist.
 End of G2Drv F.D. properties file   788 does not exist.
          IDoAtm=111111111111111111111111
          Differentiating once with respect to electric field.
                with respect to dipole field.
          Differentiating once with respect to nuclear coordinates.
 Keep R1 ints in memory in canonical form, NReq=134943929.
          There are    75 degrees of freedom in the 1st order CPHF.  IDoFFX=6 NUNeed=     3.
     72 vectors produced by pass  0 Test12= 7.09D-15 1.33D-09 XBig12= 6.68D+01 1.75D+00.
 AX will form    72 AO Fock derivatives at one time.
     72 vectors produced by pass  1 Test12= 7.09D-15 1.33D-09 XBig12= 9.85D+00 7.17D-01.
     72 vectors produced by pass  2 Test12= 7.09D-15 1.33D-09 XBig12= 1.19D-01 4.33D-02.
     72 vectors produced by pass  3 Test12= 7.09D-15 1.33D-09 XBig12= 4.28D-04 4.01D-03.
     72 vectors produced by pass  4 Test12= 7.09D-15 1.33D-09 XBig12= 5.45D-07 7.14D-05.
     34 vectors produced by pass  5 Test12= 7.09D-15 1.33D-09 XBig12= 2.85D-10 1.79D-06.
      3 vectors produced by pass  6 Test12= 7.09D-15 1.33D-09 XBig12= 1.63D-13 3.84D-08.
      1 vectors produced by pass  7 Test12= 7.09D-15 1.33D-09 XBig12= 1.05D-16 1.54D-09.
 InvSVY:  IOpt=1 It=  1 EMax= 7.11D-15
 Solved reduced A of dimension   398 with    75 vectors.
 Isotropic polarizability for W=    0.000000       88.50 Bohr**3.
 End of Minotr F.D. properties file   721 does not exist.
 End of Minotr F.D. properties file   722 does not exist.
 End of Minotr F.D. properties file   788 does not exist.

 **********************************************************************

            Population analysis using the SCF density.

 **********************************************************************

 Orbital symmetries:
       Occupied  (A) (A) (A) (A) (A) (A) (A) (A) (A) (A) (A) (A)
                 (A) (A) (A) (A) (A) (A) (A) (A) (A) (A) (A) (A)
                 (A) (A) (A) (A) (A) (A) (A) (A) (A) (A) (A) (A)
                 (A) (A)
       Virtual   (A) (A) (A) (A) (A) (A) (A) (A) (A) (A) (A) (A)
                 (A) (A) (A) (A) (A) (A) (A) (A) (A) (A) (A) (A)
                 (A) (A) (A) (A) (A) (A) (A) (A) (A) (A) (A) (A)
                 (A) (A) (A) (A) (A) (A) (A) (A) (A) (A) (A) (A)
                 (A) (A) (A) (A) (A) (A) (A) (A) (A) (A) (A) (A)
                 (A) (A) (A) (A) (A) (A) (A) (A) (A) (A) (A) (A)
                 (A) (A) (A) (A) (A) (A) (A) (A) (A) (A) (A) (A)
                 (A) (A) (A) (A) (A) (A) (A) (A) (A) (A) (A) (A)
                 (A) (A) (A) (A) (A) (A) (A) (A) (A) (A) (A) (A)
                 (A) (A) (A) (A) (A) (A) (A) (A) (A) (A) (A) (A)
                 (A) (A) (A) (A) (A) (A) (A) (A) (A) (A) (A) (A)
                 (A) (A) (A) (A) (A) (A) (A) (A)
 The electronic state is 1-A.
 Alpha  occ. eigenvalues --  -19.13253 -10.26621 -10.20538 -10.19516 -10.19311
 Alpha  occ. eigenvalues --  -10.19069 -10.18794 -10.18735 -10.18015 -10.17952
 Alpha  occ. eigenvalues --   -1.03171  -0.88084  -0.76661  -0.74471  -0.71949
 Alpha  occ. eigenvalues --   -0.68163  -0.64163  -0.58299  -0.53708  -0.52555
 Alpha  occ. eigenvalues --   -0.48511  -0.48077  -0.45931  -0.43484  -0.41124
 Alpha  occ. eigenvalues --   -0.40524  -0.40037  -0.39554  -0.38878  -0.37851
 Alpha  occ. eigenvalues --   -0.35991  -0.35274  -0.34545  -0.33564  -0.32572
 Alpha  occ. eigenvalues --   -0.31303  -0.30081  -0.22964
 Alpha virt. eigenvalues --   -0.00916   0.06904   0.10764   0.11258   0.12503
 Alpha virt. eigenvalues --    0.12779   0.13931   0.14655   0.15344   0.16980
 Alpha virt. eigenvalues --    0.17366   0.17923   0.18645   0.20160   0.20337
 Alpha virt. eigenvalues --    0.21003   0.22391   0.23065   0.23245   0.24490
 Alpha virt. eigenvalues --    0.25205   0.27217   0.29505   0.29804   0.32790
 Alpha virt. eigenvalues --    0.36224   0.49349   0.50671   0.51657   0.52953
 Alpha virt. eigenvalues --    0.54745   0.55517   0.57006   0.59890   0.62391
 Alpha virt. eigenvalues --    0.63731   0.64530   0.65996   0.67525   0.68133
 Alpha virt. eigenvalues --    0.69861   0.72328   0.73614   0.73982   0.76195
 Alpha virt. eigenvalues --    0.78385   0.82978   0.83335   0.84064   0.84776
 Alpha virt. eigenvalues --    0.86117   0.87049   0.87886   0.88593   0.89564
 Alpha virt. eigenvalues --    0.90378   0.91148   0.92110   0.92710   0.93504
 Alpha virt. eigenvalues --    0.95356   0.96269   0.96569   0.97703   0.98361
 Alpha virt. eigenvalues --    1.00832   1.01736   1.04258   1.10291   1.16739
 Alpha virt. eigenvalues --    1.22465   1.27829   1.33118   1.37279   1.41683
 Alpha virt. eigenvalues --    1.44076   1.46566   1.48364   1.51325   1.62486
 Alpha virt. eigenvalues --    1.65267   1.67237   1.70337   1.72870   1.73553
 Alpha virt. eigenvalues --    1.74207   1.76277   1.79219   1.82207   1.82251
 Alpha virt. eigenvalues --    1.84950   1.87759   1.88935   1.92089   1.93458
 Alpha virt. eigenvalues --    1.96197   1.99850   2.01049   2.02233   2.06495
 Alpha virt. eigenvalues --    2.06809   2.10269   2.13703   2.15508   2.17078
 Alpha virt. eigenvalues --    2.20877   2.21682   2.23255   2.24165   2.29117
 Alpha virt. eigenvalues --    2.30824   2.32787   2.35853   2.39807   2.40335
 Alpha virt. eigenvalues --    2.43544   2.47144   2.49652   2.53187   2.62963
 Alpha virt. eigenvalues --    2.64578   2.70432   2.71802   2.74120   2.76043
 Alpha virt. eigenvalues --    2.80108   2.80875   2.85201   3.03201   3.05629
 Alpha virt. eigenvalues --    4.12232   4.16490   4.26902   4.29186   4.33860
 Alpha virt. eigenvalues --    4.43606   4.54579   4.65883   4.75076   4.80570
          Condensed to atoms (all electrons):
               1          2          3          4          5          6
     1  O    8.012979   0.575897  -0.061443   0.001721  -0.000372  -0.000062
     2  C    0.575897   4.513301   0.356523  -0.042326  -0.003942   0.002695
     3  C   -0.061443   0.356523   5.257862   0.332225  -0.056583  -0.041302
     4  C    0.001721  -0.042326   0.332225   4.900151   0.381906   0.376207
     5  C   -0.000372  -0.003942  -0.056583   0.381906   5.159865  -0.066974
     6  C   -0.000062   0.002695  -0.041302   0.376207  -0.066974   5.155597
     7  C   -0.001752  -0.027856   0.354932  -0.058418   0.005920  -0.009481
     8  C   -0.000024  -0.016858  -0.063496  -0.063383   0.005391  -0.005166
     9  C    0.003503  -0.050785  -0.019602   0.358909  -0.051191  -0.048924
    10  C   -0.074049   0.303356  -0.181628  -0.049022  -0.003215   0.004714
    11  H    0.001314  -0.029336   0.348915  -0.033459  -0.001367  -0.001237
    12  H    0.000091   0.005914  -0.005568  -0.027073   0.366849   0.005454
    13  H    0.000005   0.000205   0.005044  -0.029549   0.367532  -0.004076
    14  H    0.000013  -0.000432  -0.003704  -0.028314   0.367912  -0.005927
    15  H   -0.000000  -0.000022  -0.004026  -0.028363  -0.005305   0.367735
    16  H    0.000000  -0.000067   0.004686  -0.029966  -0.003905   0.367002
    17  H    0.000000   0.000166  -0.006318  -0.026884   0.005449   0.367151
    18  H    0.001641  -0.003611  -0.037347   0.005384  -0.000147   0.000209
    19  H   -0.000046   0.003460  -0.028940  -0.003475  -0.000045   0.002113
    20  H    0.000002   0.000298   0.001307  -0.002308  -0.000035   0.000768
    21  H   -0.000015   0.000185   0.002526   0.005101  -0.000154   0.000294
    22  H   -0.000058   0.003657   0.005313  -0.033811  -0.001620  -0.002748
    23  H    0.000227  -0.020601   0.004714   0.004518   0.000257  -0.000132
    24  H   -0.000357  -0.019561   0.004058  -0.002054   0.000851   0.000070
               7          8          9         10         11         12
     1  O   -0.001752  -0.000024   0.003503  -0.074049   0.001314   0.000091
     2  C   -0.027856  -0.016858  -0.050785   0.303356  -0.029336   0.005914
     3  C    0.354932  -0.063496  -0.019602  -0.181628   0.348915  -0.005568
     4  C   -0.058418  -0.063383   0.358909  -0.049022  -0.033459  -0.027073
     5  C    0.005920   0.005391  -0.051191  -0.003215  -0.001367   0.366849
     6  C   -0.009481  -0.005166  -0.048924   0.004714  -0.001237   0.005454
     7  C    5.106512   0.346968  -0.070149  -0.005054  -0.030669   0.000128
     8  C    0.346968   5.083435   0.380063  -0.035751   0.005654   0.000042
     9  C   -0.070149   0.380063   5.067650   0.310239   0.004846  -0.005792
    10  C   -0.005054  -0.035751   0.310239   5.410074   0.009019   0.002632
    11  H   -0.030669   0.005654   0.004846   0.009019   0.591905   0.000034
    12  H    0.000128   0.000042  -0.005792   0.002632   0.000034   0.559931
    13  H   -0.000176   0.000011  -0.004971  -0.000413  -0.000060  -0.029581
    14  H   -0.000055  -0.000168   0.005126   0.000027   0.001984  -0.029335
    15  H   -0.000438   0.000098   0.005024  -0.000171   0.001937  -0.000010
    16  H    0.000229  -0.000636  -0.004303   0.000070  -0.000055  -0.000045
    17  H    0.002720   0.002578  -0.005862  -0.000005  -0.000156  -0.000184
    18  H    0.369528  -0.029508   0.001499   0.002477   0.001234  -0.000003
    19  H    0.368731  -0.028114   0.002095  -0.000466  -0.003675  -0.000003
    20  H   -0.029438   0.368711  -0.031046   0.004519  -0.000148  -0.000001
    21  H   -0.031082   0.369213  -0.032721  -0.008044  -0.000098  -0.000001
    22  H    0.006487  -0.036649   0.359933  -0.030171  -0.000164  -0.000193
    23  H   -0.000547  -0.007430  -0.028305   0.351420  -0.000099   0.000061
    24  H    0.000099   0.004440  -0.028081   0.350626  -0.000208   0.001554
              13         14         15         16         17         18
     1  O    0.000005   0.000013  -0.000000   0.000000   0.000000   0.001641
     2  C    0.000205  -0.000432  -0.000022  -0.000067   0.000166  -0.003611
     3  C    0.005044  -0.003704  -0.004026   0.004686  -0.006318  -0.037347
     4  C   -0.029549  -0.028314  -0.028363  -0.029966  -0.026884   0.005384
     5  C    0.367532   0.367912  -0.005305  -0.003905   0.005449  -0.000147
     6  C   -0.004076  -0.005927   0.367735   0.367002   0.367151   0.000209
     7  C   -0.000176  -0.000055  -0.000438   0.000229   0.002720   0.369528
     8  C    0.000011  -0.000168   0.000098  -0.000636   0.002578  -0.029508
     9  C   -0.004971   0.005126   0.005024  -0.004303  -0.005862   0.001499
    10  C   -0.000413   0.000027  -0.000171   0.000070  -0.000005   0.002477
    11  H   -0.000060   0.001984   0.001937  -0.000055  -0.000156   0.001234
    12  H   -0.029581  -0.029335  -0.000010  -0.000045  -0.000184  -0.000003
    13  H    0.576198  -0.031495  -0.000285   0.004243  -0.000058   0.000003
    14  H   -0.031495   0.571003   0.005104  -0.000302   0.000007  -0.000001
    15  H   -0.000285   0.005104   0.574257  -0.031544  -0.029940  -0.000008
    16  H    0.004243  -0.000302  -0.031544   0.577236  -0.030235   0.000001
    17  H   -0.000058   0.000007  -0.029940  -0.030235   0.570194  -0.000048
    18  H    0.000003  -0.000001  -0.000008   0.000001  -0.000048   0.570386
    19  H   -0.000001  -0.000001   0.000243  -0.000133   0.002110  -0.034711
    20  H   -0.000006  -0.000001  -0.000061   0.000343   0.001925   0.003502
    21  H   -0.000002   0.000003  -0.000001  -0.000014  -0.000035  -0.006667
    22  H    0.002672  -0.000066  -0.000080   0.002949  -0.000154  -0.000086
    23  H   -0.000016  -0.000002   0.000003  -0.000001  -0.000002  -0.000193
    24  H    0.000204  -0.000037  -0.000001  -0.000020  -0.000001  -0.000018
              19         20         21         22         23         24
     1  O   -0.000046   0.000002  -0.000015  -0.000058   0.000227  -0.000357
     2  C    0.003460   0.000298   0.000185   0.003657  -0.020601  -0.019561
     3  C   -0.028940   0.001307   0.002526   0.005313   0.004714   0.004058
     4  C   -0.003475  -0.002308   0.005101  -0.033811   0.004518  -0.002054
     5  C   -0.000045  -0.000035  -0.000154  -0.001620   0.000257   0.000851
     6  C    0.002113   0.000768   0.000294  -0.002748  -0.000132   0.000070
     7  C    0.368731  -0.029438  -0.031082   0.006487  -0.000547   0.000099
     8  C   -0.028114   0.368711   0.369213  -0.036649  -0.007430   0.004440
     9  C    0.002095  -0.031046  -0.032721   0.359933  -0.028305  -0.028081
    10  C   -0.000466   0.004519  -0.008044  -0.030171   0.351420   0.350626
    11  H   -0.003675  -0.000148  -0.000098  -0.000164  -0.000099  -0.000208
    12  H   -0.000003  -0.000001  -0.000001  -0.000193   0.000061   0.001554
    13  H   -0.000001  -0.000006  -0.000002   0.002672  -0.000016   0.000204
    14  H   -0.000001  -0.000001   0.000003  -0.000066  -0.000002  -0.000037
    15  H    0.000243  -0.000061  -0.000001  -0.000080   0.000003  -0.000001
    16  H   -0.000133   0.000343  -0.000014   0.002949  -0.000001  -0.000020
    17  H    0.002110   0.001925  -0.000035  -0.000154  -0.000002  -0.000001
    18  H   -0.034711   0.003502  -0.006667  -0.000086  -0.000193  -0.000018
    19  H    0.575352  -0.010867   0.003513  -0.000197   0.000043   0.000009
    20  H   -0.010867   0.587206  -0.035804  -0.002846   0.000081  -0.000175
    21  H    0.003513  -0.035804   0.587074   0.000756   0.005708   0.000145
    22  H   -0.000197  -0.002846   0.000756   0.609059   0.000532  -0.003370
    23  H    0.000043   0.000081   0.005708   0.000532   0.549579  -0.024304
    24  H    0.000009  -0.000175   0.000145  -0.003370  -0.024304   0.543978
 Mulliken charges:
               1
     1  O   -0.459216
     2  C    0.449739
     3  C   -0.168149
     4  C    0.092284
     5  C   -0.467077
     6  C   -0.463982
     7  C   -0.297141
     8  C   -0.279423
     9  C   -0.117156
    10  C   -0.361182
    11  H    0.133889
    12  H    0.155098
    13  H    0.144572
    14  H    0.148663
    15  H    0.145853
    16  H    0.144466
    17  H    0.147582
    18  H    0.156482
    19  H    0.153005
    20  H    0.144075
    21  H    0.140121
    22  H    0.120856
    23  H    0.164489
    24  H    0.172151
 Sum of Mulliken charges =  -0.00000
 Mulliken charges with hydrogens summed into heavy atoms:
               1
     1  O   -0.459216
     2  C    0.449739
     3  C   -0.034260
     4  C    0.092284
     5  C   -0.018745
     6  C   -0.026082
     7  C    0.012347
     8  C    0.004774
     9  C    0.003700
    10  C   -0.024542
 APT charges:
               1
     1  O   -0.666654
     2  C    0.761383
     3  C   -0.109973
     4  C    0.112094
     5  C    0.050753
     6  C    0.054496
     7  C    0.083245
     8  C    0.074832
     9  C    0.078819
    10  C   -0.072157
    11  H   -0.030983
    12  H   -0.012133
    13  H   -0.028260
    14  H   -0.025634
    15  H   -0.026302
    16  H   -0.028509
    17  H   -0.012757
    18  H   -0.027707
    19  H   -0.030731
    20  H   -0.037640
    21  H   -0.040964
    22  H   -0.051387
    23  H   -0.010736
    24  H   -0.003095
 Sum of APT charges =  -0.00000
 APT charges with hydrogens summed into heavy atoms:
               1
     1  O   -0.666654
     2  C    0.761383
     3  C   -0.140956
     4  C    0.112094
     5  C   -0.015275
     6  C   -0.013072
     7  C    0.024807
     8  C   -0.003771
     9  C    0.027432
    10  C   -0.085988
 Electronic spatial extent (au):  <R**2>=           1272.7333
 Charge=             -0.0000 electrons
 Dipole moment (field-independent basis, Debye):
    X=             -2.8043    Y=              0.8678    Z=              1.0132  Tot=              3.1054
 Quadrupole moment (field-independent basis, Debye-Ang):
   XX=            -69.8900   YY=            -60.3115   ZZ=            -60.3719
   XY=              2.8570   XZ=              3.4310   YZ=             -0.9930
 Traceless Quadrupole moment (field-independent basis, Debye-Ang):
   XX=             -6.3656   YY=              3.2130   ZZ=              3.1526
   XY=              2.8570   XZ=              3.4310   YZ=             -0.9930
 Octapole moment (field-independent basis, Debye-Ang**2):
  XXX=            -18.2516  YYY=             -1.3628  ZZZ=             -2.3314  XYY=              2.8171
  XXY=              8.0149  XXZ=              8.7993  XZZ=              1.1130  YZZ=             -1.2839
  YYZ=             -0.5075  XYZ=             -1.8426
 Hexadecapole moment (field-independent basis, Debye-Ang**3):
 XXXX=           -841.6521 YYYY=           -574.7581 ZZZZ=           -345.4530 XXXY=             17.2036
 XXXZ=             12.5752 YYYX=             -6.7445 YYYZ=              0.9355 ZZZX=             -1.9995
 ZZZY=              1.0515 XXYY=           -218.8505 XXZZ=           -185.3904 YYZZ=           -149.6231
 XXYZ=             -5.6413 YYXZ=              2.4908 ZZXY=              1.7070
 N-N= 5.750085266791D+02 E-N=-2.139643875265D+03  KE= 4.225440988667D+02
  Exact polarizability:  94.728  -0.384  87.211   0.185   0.242  83.566
 Approx polarizability: 137.886  -4.491 121.825  -4.062   1.547 124.820
 Calling FoFJK, ICntrl=    100127 FMM=F ISym2X=0 I1Cent= 0 IOpClX= 0 NMat=1 NMatS=1 NMatT=0.
 Full mass-weighted force constant matrix:
 Low frequencies ---   -6.8027   -1.4152   -0.0007   -0.0006   -0.0006    6.7864
 Low frequencies ---  111.7265  170.5481  204.2554
 Diagonal vibrational polarizability:
        4.1313181       8.7864425       3.3048030
 Harmonic frequencies (cm**-1), IR intensities (KM/Mole), Raman scattering
 activities (A**4/AMU), depolarization ratios for plane and unpolarized
 incident light, reduced masses (AMU), force constants (mDyne/A),
 and normal coordinates:
                      1                      2                      3
                      A                      A                      A
 Frequencies --    111.7258               170.5469               204.2554
 Red. masses --      4.8906                 1.1215                 2.5467
 Frc consts  --      0.0360                 0.0192                 0.0626
 IR Inten    --      3.9281                 0.0334                 0.3114
  Atom  AN      X      Y      Z        X      Y      Z        X      Y      Z
     1   8     0.12   0.38   0.00     0.02   0.03  -0.02     0.00  -0.02   0.11
     2   6     0.02   0.01   0.02     0.01  -0.00  -0.01    -0.01   0.00   0.05
     3   6    -0.02  -0.13   0.00     0.00  -0.02   0.00     0.00   0.00  -0.02
     4   6    -0.05  -0.03   0.01    -0.00  -0.01   0.00     0.00   0.01  -0.01
     5   6    -0.18  -0.03   0.05    -0.04  -0.01   0.00     0.08  -0.02  -0.21
     6   6    -0.03   0.08   0.03    -0.00   0.02   0.01    -0.06   0.01   0.21
     7   6     0.03  -0.12  -0.08     0.04  -0.01   0.02    -0.03  -0.02  -0.10
     8   6     0.14  -0.04  -0.06    -0.04  -0.02   0.00     0.06   0.02  -0.07
     9   6     0.00  -0.03  -0.01     0.00  -0.02   0.00    -0.01   0.02  -0.02
    10   6    -0.04  -0.15   0.02     0.02   0.02  -0.01    -0.04  -0.01   0.04
    11   1    -0.00  -0.18   0.02    -0.00  -0.00  -0.00     0.04  -0.06   0.01
    12   1    -0.19  -0.12  -0.06    -0.11   0.01   0.33     0.09   0.01  -0.21
    13   1    -0.12   0.06   0.13    -0.30  -0.03  -0.22     0.05  -0.21  -0.30
    14   1    -0.33  -0.02   0.10     0.27  -0.01  -0.11     0.18   0.12  -0.32
    15   1    -0.05   0.16  -0.02    -0.17  -0.29   0.25    -0.29  -0.05   0.31
    16   1    -0.05   0.05  -0.00     0.04   0.43   0.20     0.10   0.10   0.39
    17   1     0.02   0.10   0.11     0.13  -0.04  -0.40    -0.07   0.01   0.17
    18   1     0.02  -0.16  -0.18     0.07  -0.04   0.09    -0.07   0.01  -0.18
    19   1    -0.02  -0.14  -0.04     0.10   0.04  -0.02    -0.10  -0.09  -0.06
    20   1     0.20   0.08  -0.00    -0.07  -0.08  -0.04     0.10   0.10  -0.03
    21   1     0.25  -0.11  -0.11    -0.10   0.02   0.03     0.13  -0.02  -0.12
    22   1    -0.02   0.05  -0.01     0.02  -0.03   0.01    -0.05   0.08  -0.04
    23   1     0.00  -0.27   0.15     0.00   0.05  -0.04    -0.03  -0.03   0.07
    24   1    -0.16  -0.24  -0.09     0.05   0.04   0.01    -0.09  -0.02   0.03
                      4                      5                      6
                      A                      A                      A
 Frequencies --    222.2259               277.1028               287.3487
 Red. masses --      1.1204                 2.7992                 1.7634
 Frc consts  --      0.0326                 0.1266                 0.0858
 IR Inten    --      0.0505                 0.3864                 0.0319
  Atom  AN      X      Y      Z        X      Y      Z        X      Y      Z
     1   8    -0.00  -0.00  -0.01    -0.09   0.06  -0.06     0.01   0.03  -0.02
     2   6     0.00   0.00   0.01    -0.09  -0.04  -0.00    -0.00  -0.03  -0.01
     3   6    -0.01  -0.02   0.02    -0.06   0.02   0.01    -0.01  -0.05   0.01
     4   6    -0.00  -0.00   0.03    -0.04   0.03   0.01    -0.02  -0.01   0.02
     5   6    -0.03  -0.01  -0.02     0.14   0.03   0.05    -0.02  -0.02  -0.05
     6   6     0.02   0.01  -0.02    -0.07  -0.16  -0.03    -0.04   0.01   0.08
     7   6    -0.05  -0.02  -0.02     0.16   0.04   0.02     0.17  -0.03   0.04
     8   6     0.03   0.01   0.00     0.14   0.07   0.00    -0.09  -0.01  -0.04
     9   6     0.02   0.01   0.02    -0.05   0.06  -0.00    -0.01   0.01  -0.00
    10   6     0.03   0.02   0.01    -0.09  -0.09   0.02     0.02   0.08  -0.02
    11   1    -0.02  -0.04   0.03    -0.08   0.03   0.00    -0.04  -0.04   0.01
    12   1    -0.12   0.02   0.40     0.14   0.17   0.24    -0.01  -0.03  -0.11
    13   1    -0.38  -0.08  -0.33     0.03  -0.06  -0.08     0.01  -0.07  -0.04
    14   1     0.39   0.04  -0.20     0.40  -0.02  -0.02    -0.06   0.03  -0.07
    15   1     0.16   0.23  -0.20     0.02  -0.23  -0.01     0.00   0.25  -0.07
    16   1    -0.05  -0.27  -0.18    -0.06  -0.19  -0.04    -0.03  -0.25  -0.00
    17   1    -0.06   0.05   0.26    -0.15  -0.17  -0.09    -0.11   0.06   0.37
    18   1    -0.08   0.01  -0.09     0.26  -0.12   0.07     0.31  -0.17   0.26
    19   1    -0.11  -0.08   0.02     0.25   0.19   0.01     0.38   0.12  -0.11
    20   1     0.05   0.04   0.05     0.18   0.17  -0.04    -0.16  -0.14  -0.22
    21   1     0.08  -0.01  -0.04     0.18  -0.02   0.04    -0.27   0.10   0.05
    22   1     0.04   0.03   0.04    -0.08   0.13  -0.01     0.02   0.00   0.02
    23   1     0.02   0.05  -0.02    -0.02  -0.18   0.06    -0.01   0.17  -0.12
    24   1     0.06   0.04   0.03    -0.20  -0.12  -0.01     0.08   0.15   0.07
                      7                      8                      9
                      A                      A                      A
 Frequencies --    348.9188               394.0828               416.5105
 Red. masses --      2.5136                 2.3886                 2.0953
 Frc consts  --      0.1803                 0.2186                 0.2142
 IR Inten    --      0.9777                 0.0917                 1.1974
  Atom  AN      X      Y      Z        X      Y      Z        X      Y      Z
     1   8     0.10  -0.03   0.09    -0.02   0.01  -0.02     0.01   0.01   0.08
     2   6     0.06   0.01  -0.05    -0.03  -0.04  -0.01    -0.04   0.00  -0.03
     3   6     0.06   0.08  -0.10     0.00  -0.01  -0.03    -0.05  -0.04  -0.06
     4   6     0.02   0.01  -0.10     0.02  -0.00  -0.02    -0.05  -0.04  -0.07
     5   6    -0.08   0.04   0.11     0.18   0.03   0.10     0.05  -0.03   0.03
     6   6    -0.07  -0.08   0.11     0.06   0.19   0.04    -0.05   0.06  -0.02
     7   6     0.01   0.09   0.01    -0.03  -0.02  -0.03     0.01  -0.03   0.04
     8   6    -0.02  -0.00   0.01    -0.10  -0.05  -0.04     0.12  -0.05   0.08
     9   6    -0.01  -0.03  -0.09    -0.04  -0.04  -0.03    -0.05  -0.08  -0.04
    10   6    -0.03  -0.06  -0.08    -0.07  -0.11   0.01    -0.01   0.13  -0.07
    11   1     0.09   0.17  -0.13     0.00  -0.03  -0.02    -0.05   0.02  -0.08
    12   1    -0.16   0.00   0.38     0.21   0.22   0.25     0.10   0.12   0.06
    13   1    -0.26   0.27   0.04     0.14   0.00   0.06     0.11  -0.02   0.08
    14   1     0.05  -0.11   0.15     0.38  -0.13   0.11     0.10  -0.16   0.09
    15   1    -0.17   0.02   0.07    -0.04   0.40  -0.05    -0.15   0.12  -0.03
    16   1     0.11  -0.31   0.19     0.03   0.18   0.01    -0.05   0.12  -0.00
    17   1    -0.26  -0.07   0.31     0.21   0.25   0.22     0.06   0.09   0.03
    18   1    -0.01   0.15   0.05    -0.02  -0.00   0.04     0.01  -0.06  -0.02
    19   1    -0.00   0.10   0.02     0.01  -0.02  -0.07    -0.03   0.03   0.12
    20   1    -0.03  -0.03   0.02    -0.13  -0.12  -0.06     0.23   0.18   0.16
    21   1    -0.05  -0.03   0.07    -0.17   0.01  -0.02     0.30  -0.26   0.09
    22   1    -0.04  -0.10  -0.12    -0.09  -0.07  -0.06    -0.06  -0.14  -0.05
    23   1    -0.03  -0.11   0.00    -0.04  -0.17   0.07    -0.14   0.38  -0.28
    24   1    -0.07  -0.10  -0.13    -0.15  -0.14  -0.03     0.29   0.28   0.10
                     10                     11                     12
                      A                      A                      A
 Frequencies --    457.3263               498.6100               553.1049
 Red. masses --      3.5427                 3.1828                 4.1950
 Frc consts  --      0.4366                 0.4662                 0.7561
 IR Inten    --      3.1495                 3.6909                 1.4302
  Atom  AN      X      Y      Z        X      Y      Z        X      Y      Z
     1   8     0.17   0.00   0.13    -0.01   0.00   0.16     0.17  -0.03  -0.14
     2   6     0.03  -0.15  -0.08    -0.09   0.06  -0.11     0.13  -0.15  -0.06
     3   6    -0.09  -0.06  -0.00    -0.12   0.02  -0.07     0.08  -0.08   0.07
     4   6    -0.10   0.11   0.08     0.04  -0.09   0.10    -0.01  -0.05   0.01
     5   6     0.07   0.14  -0.03    -0.01  -0.18   0.01     0.01  -0.11  -0.00
     6   6    -0.14   0.01  -0.07     0.16   0.00   0.03     0.02   0.01   0.02
     7   6    -0.06  -0.04   0.03     0.00   0.07   0.00    -0.04  -0.02   0.13
     8   6    -0.05   0.02   0.03    -0.00   0.07  -0.01    -0.05   0.20   0.08
     9   6     0.07   0.05   0.06     0.03   0.06   0.02    -0.17   0.15  -0.05
    10   6     0.07  -0.08  -0.13    -0.04  -0.01  -0.15    -0.15   0.05  -0.05
    11   1    -0.32  -0.04  -0.01    -0.29   0.05  -0.08    -0.04   0.09   0.00
    12   1     0.14   0.29  -0.13    -0.05  -0.30  -0.01     0.02  -0.13  -0.06
    13   1     0.17  -0.08  -0.04    -0.07  -0.21  -0.04     0.02  -0.19  -0.03
    14   1     0.14   0.19  -0.08    -0.05  -0.04  -0.05     0.00  -0.02  -0.05
    15   1     0.05  -0.11  -0.06     0.19   0.07  -0.02    -0.11   0.06   0.03
    16   1    -0.22  -0.00  -0.15     0.01   0.10  -0.07     0.06   0.08   0.07
    17   1    -0.22  -0.03  -0.20     0.35   0.03   0.02     0.12   0.03   0.08
    18   1    -0.08  -0.02   0.01     0.12  -0.08   0.10    -0.13   0.08   0.01
    19   1    -0.08  -0.07   0.04     0.13   0.26  -0.04    -0.11  -0.24   0.10
    20   1    -0.13  -0.14   0.01     0.00   0.08   0.01     0.08   0.49   0.09
    21   1    -0.14   0.15  -0.02     0.01   0.06  -0.01     0.16  -0.02   0.08
    22   1     0.22   0.05   0.14     0.11   0.10   0.07    -0.14   0.08  -0.04
    23   1     0.20  -0.11  -0.26     0.12  -0.21  -0.06    -0.11  -0.00  -0.01
    24   1     0.04  -0.04  -0.05    -0.15  -0.14  -0.35    -0.39   0.10   0.11
                     13                     14                     15
                      A                      A                      A
 Frequencies --    587.4020               620.1093               696.8462
 Red. masses --      3.0840                 2.9686                 3.1295
 Frc consts  --      0.6269                 0.6726                 0.8954
 IR Inten    --      0.8577                 1.8280                 0.3059
  Atom  AN      X      Y      Z        X      Y      Z        X      Y      Z
     1   8    -0.05   0.08   0.03     0.01  -0.06  -0.00     0.12  -0.03  -0.05
     2   6    -0.14  -0.20  -0.01     0.05   0.21  -0.08     0.09  -0.03  -0.05
     3   6    -0.01  -0.04  -0.05     0.00  -0.09  -0.01    -0.07   0.11   0.01
     4   6     0.13   0.07  -0.04     0.03   0.07   0.05    -0.03   0.03   0.18
     5   6    -0.02   0.15  -0.04     0.00   0.17  -0.02    -0.02   0.04   0.02
     6   6     0.22  -0.06   0.06     0.07  -0.02   0.03     0.06  -0.02   0.05
     7   6    -0.02  -0.04   0.02     0.03  -0.17   0.04     0.00   0.13  -0.13
     8   6    -0.02  -0.01   0.04    -0.00  -0.08   0.05     0.01  -0.11  -0.08
     9   6    -0.01   0.00  -0.01    -0.09  -0.02   0.03    -0.13  -0.12   0.02
    10   6    -0.06  -0.02  -0.02    -0.09   0.08  -0.08    -0.08  -0.03   0.06
    11   1    -0.09  -0.01  -0.06    -0.11  -0.16   0.01    -0.31  -0.02   0.05
    12   1    -0.10  -0.04  -0.03    -0.01   0.12  -0.06    -0.01   0.01  -0.07
    13   1    -0.09   0.30  -0.04    -0.02   0.11  -0.05    -0.00  -0.10  -0.02
    14   1    -0.14   0.21  -0.03     0.00   0.26  -0.07    -0.04   0.19  -0.06
    15   1     0.21  -0.13   0.10     0.13  -0.10   0.06     0.28  -0.07   0.01
    16   1     0.32  -0.14   0.12     0.10  -0.08   0.04    -0.13   0.02  -0.10
    17   1     0.07  -0.09   0.05    -0.05  -0.05  -0.01     0.11  -0.03  -0.07
    18   1    -0.07   0.02  -0.03     0.04  -0.17   0.06     0.07   0.08   0.00
    19   1    -0.08  -0.10   0.06     0.05  -0.13   0.04     0.07   0.28  -0.13
    20   1    -0.01   0.01   0.04     0.06   0.06  -0.01     0.09   0.03  -0.00
    21   1     0.00  -0.01   0.03     0.08  -0.15   0.04     0.10  -0.26  -0.02
    22   1    -0.10  -0.10  -0.08    -0.08  -0.11   0.03    -0.17   0.03   0.02
    23   1     0.02   0.17  -0.42    -0.15  -0.16   0.38    -0.31   0.26  -0.08
    24   1     0.04   0.20   0.31    -0.17  -0.18  -0.51     0.19   0.14   0.28
                     16                     17                     18
                      A                      A                      A
 Frequencies --    766.1773               816.1042               861.5002
 Red. masses --      2.4058                 2.0413                 3.2593
 Frc consts  --      0.8321                 0.8010                 1.4252
 IR Inten    --      5.4949                 3.9068                 3.5441
  Atom  AN      X      Y      Z        X      Y      Z        X      Y      Z
     1   8    -0.06   0.02   0.02    -0.04   0.01   0.02     0.02  -0.01   0.01
     2   6    -0.07   0.01  -0.01    -0.00   0.02   0.08    -0.02   0.04  -0.11
     3   6     0.20   0.07   0.06     0.03  -0.01   0.14     0.05   0.06  -0.11
     4   6    -0.03   0.02   0.11    -0.02  -0.01   0.01     0.04   0.01  -0.05
     5   6    -0.00  -0.04   0.03    -0.00   0.05  -0.00     0.01  -0.04  -0.02
     6   6    -0.03   0.02   0.01     0.01  -0.02   0.01    -0.02   0.01  -0.04
     7   6     0.10   0.00  -0.00    -0.04   0.01  -0.02     0.02  -0.09  -0.09
     8   6     0.02  -0.05  -0.03    -0.09   0.09  -0.04    -0.06   0.11   0.03
     9   6    -0.05  -0.02   0.04    -0.05  -0.07  -0.07    -0.11  -0.01   0.33
    10   6    -0.06  -0.03  -0.17     0.09  -0.07  -0.12     0.03  -0.08   0.07
    11   1     0.29   0.10   0.05     0.17  -0.07   0.17     0.01   0.08  -0.12
    12   1     0.01  -0.05  -0.05     0.01   0.07  -0.02    -0.02  -0.05   0.08
    13   1     0.02  -0.18  -0.01     0.01   0.03  -0.00    -0.01   0.15   0.04
    14   1     0.01   0.09  -0.04     0.01   0.06  -0.01    -0.04  -0.19   0.08
    15   1     0.07  -0.02   0.01    -0.00  -0.01   0.01    -0.19   0.02   0.00
    16   1    -0.10   0.03  -0.05     0.02   0.00   0.02     0.12  -0.02   0.08
    17   1    -0.05   0.00  -0.04     0.06  -0.01   0.02    -0.08   0.02   0.05
    18   1    -0.16   0.32  -0.29     0.10  -0.10   0.28     0.06  -0.11   0.01
    19   1    -0.22  -0.42   0.12     0.25   0.04  -0.32     0.13  -0.08  -0.20
    20   1    -0.02  -0.11  -0.23     0.09   0.44   0.24     0.03   0.32  -0.06
    21   1    -0.13   0.00   0.10     0.29  -0.21  -0.16     0.10   0.16  -0.22
    22   1     0.07   0.06   0.12     0.05  -0.18  -0.03    -0.22  -0.13   0.25
    23   1    -0.03   0.05  -0.33     0.09  -0.03  -0.17     0.12   0.02  -0.20
    24   1     0.11   0.04  -0.11     0.22  -0.05  -0.13     0.41  -0.05   0.02
                     19                     20                     21
                      A                      A                      A
 Frequencies --    869.7625               889.8780               939.5073
 Red. masses --      1.7892                 2.8501                 2.0947
 Frc consts  --      0.7974                 1.3297                 1.0894
 IR Inten    --      0.0116                 0.3130                 2.3616
  Atom  AN      X      Y      Z        X      Y      Z        X      Y      Z
     1   8    -0.01   0.02  -0.01    -0.02   0.01  -0.01     0.02   0.01  -0.01
     2   6    -0.03  -0.05  -0.01    -0.02  -0.02   0.02    -0.00  -0.07   0.02
     3   6     0.11   0.01  -0.11     0.06  -0.18  -0.10    -0.04   0.02   0.15
     4   6     0.01   0.01   0.04     0.01   0.03   0.03     0.02  -0.00  -0.06
     5   6     0.00  -0.01   0.02     0.00  -0.01   0.03     0.03  -0.01  -0.06
     6   6    -0.05   0.01   0.00    -0.03   0.01   0.01     0.01  -0.00  -0.05
     7   6    -0.06  -0.01   0.01     0.06   0.15  -0.20     0.04   0.09  -0.08
     8   6    -0.04  -0.13  -0.01    -0.05   0.08   0.20    -0.01  -0.12  -0.00
     9   6     0.05   0.08   0.04     0.01  -0.04   0.00    -0.03   0.03   0.10
    10   6    -0.04   0.05   0.01    -0.00   0.03   0.01    -0.01   0.10  -0.07
    11   1     0.25   0.02  -0.12     0.14  -0.57   0.04    -0.25  -0.18   0.22
    12   1    -0.00  -0.06  -0.04     0.01  -0.03  -0.06    -0.04  -0.06   0.15
    13   1    -0.01  -0.10  -0.02     0.01  -0.16  -0.02    -0.02   0.36   0.04
    14   1     0.00   0.10  -0.04     0.02   0.12  -0.05    -0.05  -0.28   0.13
    15   1     0.05  -0.02  -0.01     0.08  -0.03   0.00    -0.26   0.04   0.00
    16   1    -0.11   0.01  -0.06    -0.08  -0.01  -0.05     0.21  -0.02   0.13
    17   1    -0.05   0.00  -0.05    -0.06  -0.00  -0.05    -0.04   0.02   0.09
    18   1     0.02   0.06   0.46     0.03   0.19  -0.21     0.00   0.14  -0.10
    19   1     0.19   0.15  -0.18    -0.02   0.13  -0.13    -0.04  -0.02  -0.05
    20   1     0.08   0.08   0.34    -0.08   0.02   0.23     0.05  -0.01   0.05
    21   1     0.28  -0.28  -0.23    -0.09   0.01   0.33     0.04  -0.24   0.06
    22   1     0.12   0.18   0.10     0.01  -0.31  -0.02     0.15   0.12   0.23
    23   1     0.11  -0.06  -0.00    -0.00  -0.04   0.12     0.18  -0.15   0.06
    24   1    -0.27   0.05   0.06    -0.06  -0.03  -0.08    -0.27  -0.01  -0.19
                     22                     23                     24
                      A                      A                      A
 Frequencies --    948.4026               956.9120               966.8935
 Red. masses --      1.8679                 2.0605                 1.4411
 Frc consts  --      0.9899                 1.1117                 0.7938
 IR Inten    --      4.0620                 1.7250                 0.0727
  Atom  AN      X      Y      Z        X      Y      Z        X      Y      Z
     1   8    -0.01   0.02   0.02     0.00  -0.00  -0.00     0.00   0.00  -0.00
     2   6    -0.05  -0.07  -0.03    -0.01  -0.00  -0.01     0.01  -0.00   0.01
     3   6    -0.01   0.01  -0.05     0.03  -0.07  -0.06    -0.01   0.04   0.00
     4   6     0.03   0.01   0.04    -0.12  -0.13  -0.02     0.06  -0.07   0.03
     5   6     0.02  -0.00   0.01    -0.07   0.12  -0.03     0.08   0.07   0.00
     6   6    -0.03   0.02   0.02     0.07  -0.11   0.02    -0.09  -0.07  -0.00
     7   6     0.06   0.02   0.05     0.00   0.08   0.03     0.01  -0.03  -0.03
     8   6    -0.06  -0.02  -0.06     0.01  -0.01  -0.04     0.00   0.02   0.03
     9   6    -0.08  -0.03  -0.04    -0.04   0.03   0.06     0.02  -0.01  -0.01
    10   6     0.17   0.07   0.08     0.04   0.00   0.02    -0.03   0.00  -0.01
    11   1    -0.18   0.13  -0.10     0.24  -0.03  -0.08     0.02   0.06  -0.00
    12   1    -0.02  -0.13   0.00     0.06   0.46  -0.05    -0.10  -0.41   0.03
    13   1    -0.04   0.02  -0.03     0.09  -0.03   0.04    -0.16   0.32  -0.10
    14   1    -0.03   0.09  -0.02     0.09  -0.04   0.00    -0.18   0.31  -0.04
    15   1     0.14  -0.02  -0.01    -0.15   0.16  -0.08    -0.21   0.22  -0.14
    16   1    -0.17   0.03  -0.09    -0.06   0.15   0.01    -0.32   0.23  -0.10
    17   1    -0.02  -0.00  -0.08     0.54  -0.02   0.17     0.42   0.02   0.08
    18   1    -0.09   0.22  -0.11    -0.06   0.19  -0.00     0.02  -0.09  -0.08
    19   1    -0.12  -0.21   0.13    -0.08   0.08   0.13     0.01  -0.02  -0.02
    20   1     0.08   0.29  -0.16     0.02   0.01  -0.09    -0.02  -0.02  -0.00
    21   1     0.07  -0.26   0.07    -0.05  -0.00   0.03    -0.04   0.05   0.04
    22   1    -0.29  -0.13  -0.18     0.01   0.27   0.13     0.07  -0.09   0.02
    23   1     0.37  -0.21   0.23     0.11  -0.06   0.03    -0.04   0.02  -0.02
    24   1    -0.03  -0.14  -0.21     0.09  -0.05  -0.08    -0.07   0.03   0.05
                     25                     26                     27
                      A                      A                      A
 Frequencies --    979.0415              1007.9140              1041.5381
 Red. masses --      1.8113                 2.2764                 1.3955
 Frc consts  --      1.0229                 1.3625                 0.8919
 IR Inten    --      2.8920                 2.2278                 2.2121
  Atom  AN      X      Y      Z        X      Y      Z        X      Y      Z
     1   8     0.01   0.01  -0.01     0.01  -0.01  -0.00     0.00  -0.01  -0.01
     2   6     0.00  -0.05   0.03     0.03   0.03   0.04     0.03   0.04   0.04
     3   6    -0.02   0.13  -0.01    -0.03   0.10  -0.00    -0.00  -0.03  -0.02
     4   6    -0.08  -0.02  -0.01    -0.03   0.02  -0.01     0.00   0.02  -0.01
     5   6    -0.05   0.01  -0.04    -0.02  -0.02   0.05     0.03  -0.02  -0.09
     6   6     0.04  -0.02   0.07     0.04  -0.02  -0.03    -0.02   0.02   0.10
     7   6     0.05  -0.09  -0.08     0.00  -0.09  -0.11    -0.02  -0.01   0.01
     8   6    -0.04   0.03   0.07    -0.02  -0.09   0.13     0.01  -0.01   0.01
     9   6     0.06  -0.04  -0.01    -0.10   0.15  -0.07    -0.05   0.06  -0.01
    10   6    -0.02   0.07  -0.01     0.09  -0.04  -0.01     0.00  -0.04  -0.03
    11   1     0.06   0.34  -0.09     0.10   0.07   0.01     0.15  -0.21   0.05
    12   1     0.04   0.31   0.05     0.02  -0.02  -0.10    -0.04  -0.05   0.18
    13   1     0.08   0.02   0.08    -0.00  -0.27  -0.03    -0.01   0.41   0.04
    14   1     0.08  -0.28   0.08     0.03   0.19  -0.08    -0.07  -0.35   0.14
    15   1     0.31  -0.05   0.01    -0.16   0.05  -0.01     0.42  -0.07   0.01
    16   1    -0.19   0.02  -0.13     0.16   0.00   0.10    -0.34   0.02  -0.20
    17   1     0.14  -0.03  -0.08     0.07   0.01   0.10     0.02  -0.03  -0.19
    18   1     0.05  -0.15  -0.20     0.10  -0.29  -0.17    -0.01  -0.02   0.04
    19   1     0.04  -0.20  -0.14     0.01   0.12  -0.01    -0.03   0.15   0.11
    20   1    -0.01   0.11   0.05    -0.03  -0.11   0.07    -0.00  -0.03  -0.04
    21   1     0.03  -0.03   0.06    -0.11  -0.19   0.36    -0.04  -0.03   0.09
    22   1     0.26  -0.26   0.09    -0.23   0.29  -0.13    -0.14   0.20  -0.04
    23   1    -0.00  -0.06   0.16     0.33  -0.09  -0.25     0.09  -0.01  -0.19
    24   1    -0.31   0.04   0.03     0.03   0.01   0.09     0.10   0.01   0.03
                     28                     29                     30
                      A                      A                      A
 Frequencies --   1061.6388              1096.8043              1133.2813
 Red. masses --      1.7675                 1.3770                 1.6402
 Frc consts  --      1.1737                 0.9760                 1.2412
 IR Inten    --      9.9700                10.3978                13.1395
  Atom  AN      X      Y      Z        X      Y      Z        X      Y      Z
     1   8     0.01   0.01  -0.03    -0.01  -0.01  -0.00    -0.01   0.01  -0.02
     2   6     0.03  -0.08   0.12     0.04   0.07   0.06     0.03  -0.07   0.13
     3   6    -0.01   0.03  -0.03    -0.04  -0.01  -0.07    -0.02   0.02  -0.09
     4   6     0.01   0.01  -0.02     0.01  -0.00   0.01    -0.07   0.09  -0.02
     5   6     0.00   0.00   0.04     0.00   0.00   0.01     0.04  -0.04   0.01
     6   6     0.00   0.02   0.01     0.01   0.01  -0.03     0.04  -0.02   0.00
     7   6    -0.09   0.00   0.00     0.04  -0.01   0.03     0.02  -0.04   0.00
     8   6     0.08   0.00  -0.03    -0.08  -0.00  -0.04    -0.02   0.01   0.01
     9   6    -0.07  -0.05   0.08     0.02   0.00   0.01    -0.04   0.01  -0.01
    10   6     0.00   0.08  -0.08     0.00  -0.06  -0.01     0.04  -0.01  -0.04
    11   1     0.33  -0.00  -0.01    -0.03  -0.16  -0.02    -0.15   0.02  -0.10
    12   1     0.00  -0.07  -0.07    -0.00  -0.02  -0.01    -0.03  -0.23   0.03
    13   1    -0.02  -0.14  -0.03    -0.01  -0.01  -0.01    -0.05   0.05  -0.04
    14   1     0.02   0.15  -0.05    -0.01   0.04  -0.01    -0.07   0.03   0.01
    15   1     0.07  -0.02   0.01    -0.06  -0.02   0.01    -0.00   0.01  -0.00
    16   1     0.00  -0.03  -0.01     0.10  -0.02   0.05     0.07   0.02   0.04
    17   1    -0.06  -0.00  -0.04    -0.09   0.01   0.02     0.08  -0.00   0.04
    18   1     0.06  -0.26   0.02    -0.03   0.04  -0.13    -0.06   0.15   0.06
    19   1    -0.04   0.47   0.19    -0.14   0.14   0.32    -0.02  -0.05   0.04
    20   1     0.04  -0.05  -0.36     0.09   0.38  -0.27    -0.02   0.00   0.11
    21   1    -0.09   0.23  -0.08     0.04  -0.25   0.10     0.02   0.01  -0.05
    22   1    -0.04  -0.34   0.06     0.42  -0.13   0.23     0.27   0.30   0.22
    23   1     0.16  -0.13   0.03     0.04   0.01  -0.15    -0.43   0.15   0.34
    24   1    -0.12  -0.02  -0.21    -0.23   0.12   0.35     0.39  -0.11  -0.29
                     31                     32                     33
                      A                      A                      A
 Frequencies --   1156.7448              1179.9966              1204.8247
 Red. masses --      1.3331                 2.0205                 1.8022
 Frc consts  --      1.0510                 1.6575                 1.5414
 IR Inten    --      1.9543                 0.0760                12.2272
  Atom  AN      X      Y      Z        X      Y      Z        X      Y      Z
     1   8     0.01   0.00   0.01    -0.02   0.02   0.01     0.03  -0.00   0.02
     2   6    -0.03  -0.03  -0.05    -0.03  -0.04  -0.04    -0.06  -0.01  -0.14
     3   6     0.01  -0.03   0.01     0.12   0.09  -0.04    -0.05   0.02   0.05
     4   6     0.02  -0.09   0.05     0.02   0.02   0.14    -0.14   0.10   0.01
     5   6     0.03   0.04  -0.02    -0.03  -0.01  -0.07     0.06  -0.04  -0.01
     6   6    -0.00   0.06  -0.02    -0.01  -0.03  -0.05     0.05  -0.02  -0.01
     7   6    -0.04   0.02  -0.00    -0.07  -0.08  -0.01     0.01  -0.01   0.00
     8   6    -0.01   0.03  -0.01     0.06   0.05   0.03    -0.01  -0.03   0.01
     9   6    -0.01  -0.04  -0.01    -0.04  -0.05  -0.08     0.01   0.02  -0.01
    10   6     0.01   0.01   0.02     0.06   0.01   0.01     0.06  -0.01   0.02
    11   1     0.31   0.27  -0.10    -0.32  -0.45   0.15     0.71  -0.23   0.15
    12   1    -0.02  -0.04   0.04    -0.00   0.18   0.12    -0.04  -0.23   0.07
    13   1    -0.02   0.17  -0.01     0.09   0.12   0.09    -0.07   0.11  -0.05
    14   1    -0.05   0.05   0.01     0.02  -0.28   0.08    -0.12   0.00   0.03
    15   1     0.03  -0.11   0.07    -0.26   0.06  -0.03    -0.01   0.01  -0.00
    16   1     0.12  -0.12   0.03     0.09   0.07   0.08     0.12   0.01   0.07
    17   1    -0.28   0.02  -0.05     0.04   0.02   0.14     0.10  -0.00   0.08
    18   1     0.11  -0.33  -0.20    -0.03  -0.03   0.27    -0.01   0.04   0.03
    19   1     0.02   0.09  -0.04     0.04   0.21   0.02    -0.04   0.03   0.08
    20   1     0.00   0.06  -0.04     0.01  -0.00  -0.27     0.02   0.06  -0.10
    21   1    -0.09  -0.20   0.36    -0.11   0.08   0.19     0.03   0.05  -0.13
    22   1     0.16   0.40   0.16     0.10   0.04   0.01    -0.01  -0.18  -0.05
    23   1    -0.13   0.04   0.16    -0.04   0.01   0.16    -0.19   0.08   0.22
    24   1     0.08  -0.04  -0.07    -0.13   0.01   0.06    -0.15   0.04   0.16
                     34                     35                     36
                      A                      A                      A
 Frequencies --   1226.3886              1250.3577              1257.3371
 Red. masses --      1.5424                 1.7118                 1.7591
 Frc consts  --      1.3668                 1.5768                 1.6385
 IR Inten    --      3.0424                 5.3343                 3.7177
  Atom  AN      X      Y      Z        X      Y      Z        X      Y      Z
     1   8     0.01   0.01   0.00     0.00  -0.00  -0.02    -0.02   0.00   0.00
     2   6    -0.02  -0.06  -0.02     0.03   0.00   0.07     0.01   0.01   0.02
     3   6    -0.01   0.06   0.03    -0.04  -0.01  -0.05     0.03  -0.12   0.01
     4   6     0.12   0.01   0.00    -0.04  -0.05   0.17     0.03   0.16   0.07
     5   6    -0.06  -0.00  -0.00     0.02   0.01  -0.06    -0.01  -0.04  -0.04
     6   6    -0.04  -0.02   0.00     0.02   0.02  -0.07    -0.01  -0.06  -0.02
     7   6     0.03  -0.02   0.01     0.07  -0.02  -0.01    -0.06   0.05  -0.01
     8   6    -0.09  -0.02  -0.02    -0.02   0.02  -0.02     0.01  -0.04  -0.04
     9   6     0.08   0.05   0.01     0.01  -0.01  -0.02     0.02   0.06   0.03
    10   6    -0.04  -0.01  -0.01    -0.02   0.02  -0.02     0.01  -0.03  -0.02
    11   1     0.15  -0.26   0.15     0.17   0.19  -0.13    -0.02   0.55  -0.23
    12   1     0.03   0.19  -0.04    -0.03   0.03   0.15    -0.01   0.03   0.09
    13   1     0.09  -0.15   0.06     0.02   0.24   0.03     0.07   0.02   0.06
    14   1     0.12  -0.09  -0.01    -0.07  -0.13   0.06     0.02  -0.22   0.05
    15   1    -0.07   0.08  -0.05    -0.19  -0.06   0.05    -0.15   0.12  -0.08
    16   1    -0.12   0.08  -0.04     0.22  -0.04   0.10    -0.03   0.14   0.04
    17   1     0.06  -0.01  -0.01    -0.15   0.03   0.13     0.19  -0.00   0.12
    18   1     0.07  -0.21  -0.26    -0.01   0.09  -0.11     0.06  -0.19  -0.06
    19   1    -0.15   0.25   0.35    -0.10   0.12   0.25     0.04   0.05  -0.11
    20   1     0.00   0.15   0.08    -0.10  -0.19   0.43     0.05   0.04  -0.13
    21   1     0.09  -0.15  -0.09     0.09   0.13  -0.29    -0.07  -0.22   0.28
    22   1    -0.18   0.02  -0.15    -0.25  -0.14  -0.19    -0.05  -0.37  -0.08
    23   1    -0.27   0.10   0.14     0.13  -0.06  -0.11    -0.15   0.07   0.05
    24   1     0.30  -0.09  -0.24    -0.02   0.00  -0.04     0.03   0.01   0.03
                     37                     38                     39
                      A                      A                      A
 Frequencies --   1275.0274              1284.1123              1304.5428
 Red. masses --      2.0205                 1.3821                 1.8129
 Frc consts  --      1.9353                 1.3427                 1.8178
 IR Inten    --      0.5673                 1.1339                10.5280
  Atom  AN      X      Y      Z        X      Y      Z        X      Y      Z
     1   8     0.02  -0.01  -0.02     0.02  -0.00  -0.01    -0.00   0.00   0.00
     2   6     0.01   0.01   0.01     0.01  -0.02   0.02    -0.02  -0.00  -0.05
     3   6     0.01   0.02  -0.03    -0.08   0.03   0.00     0.13  -0.03   0.07
     4   6    -0.08   0.14  -0.01     0.00  -0.06   0.03    -0.12  -0.04  -0.02
     5   6     0.02  -0.03   0.01    -0.00   0.01  -0.00     0.04   0.01  -0.00
     6   6     0.02  -0.05  -0.01     0.01   0.02  -0.02     0.02   0.02   0.01
     7   6    -0.02  -0.02   0.05    -0.01  -0.05  -0.04    -0.01  -0.01  -0.05
     8   6    -0.02   0.07  -0.08     0.03   0.01   0.00    -0.03  -0.04   0.03
     9   6     0.07  -0.13  -0.00     0.08   0.06   0.00     0.02   0.07  -0.06
    10   6    -0.11   0.06   0.08    -0.07   0.01   0.02    -0.06   0.01   0.10
    11   1     0.08  -0.22   0.07     0.21  -0.00   0.02    -0.36   0.17  -0.01
    12   1    -0.02  -0.13   0.01     0.00   0.02   0.01    -0.02  -0.12   0.02
    13   1    -0.02  -0.04  -0.02    -0.00   0.03   0.00    -0.07   0.08  -0.06
    14   1    -0.03  -0.02   0.02    -0.00   0.01  -0.00    -0.09   0.05   0.02
    15   1    -0.04   0.06  -0.05    -0.04  -0.03   0.02     0.09  -0.06   0.04
    16   1     0.04   0.08   0.06     0.05  -0.03   0.01     0.04  -0.07   0.00
    17   1     0.18  -0.00   0.09    -0.09   0.01   0.01    -0.02  -0.00  -0.02
    18   1     0.03  -0.19  -0.13    -0.15   0.43   0.42     0.04  -0.08  -0.04
    19   1     0.02  -0.04   0.00     0.04  -0.10  -0.12    -0.11   0.41   0.28
    20   1    -0.05  -0.04   0.21     0.07   0.14  -0.31     0.03   0.09  -0.11
    21   1    -0.04  -0.23   0.30    -0.09  -0.17   0.37     0.05   0.05  -0.18
    22   1     0.02   0.24   0.01    -0.06  -0.20  -0.12     0.26  -0.32   0.03
    23   1     0.47  -0.16  -0.37     0.02  -0.00  -0.08     0.14  -0.02  -0.14
    24   1     0.11  -0.08  -0.22     0.29  -0.08  -0.22     0.32  -0.12  -0.22
                     40                     41                     42
                      A                      A                      A
 Frequencies --   1339.3494              1341.5965              1359.0271
 Red. masses --      1.5147                 1.6113                 1.6700
 Frc consts  --      1.6009                 1.7087                 1.8173
 IR Inten    --      0.4618                 1.2933                 2.3361
  Atom  AN      X      Y      Z        X      Y      Z        X      Y      Z
     1   8    -0.01   0.00   0.01     0.02  -0.00   0.00     0.00  -0.00   0.00
     2   6    -0.01   0.00  -0.04    -0.01  -0.00  -0.03    -0.00   0.01  -0.02
     3   6     0.01  -0.01   0.05    -0.06   0.01  -0.01    -0.05  -0.06   0.06
     4   6     0.02   0.00  -0.05     0.10   0.01   0.03     0.09   0.08   0.01
     5   6    -0.01   0.00   0.02    -0.03  -0.01  -0.01    -0.03  -0.02  -0.00
     6   6    -0.01  -0.00   0.02    -0.02  -0.01   0.00    -0.03  -0.02  -0.00
     7   6     0.03  -0.09  -0.06     0.01   0.02   0.03     0.03  -0.04  -0.08
     8   6     0.02   0.08  -0.11     0.04  -0.01  -0.02    -0.02  -0.00   0.08
     9   6    -0.04  -0.00   0.04    -0.13   0.07  -0.07    -0.02  -0.10  -0.06
    10   6     0.04  -0.01  -0.02    -0.02  -0.00   0.08    -0.02   0.02   0.03
    11   1    -0.04   0.12   0.01     0.26  -0.09   0.03     0.18   0.37  -0.09
    12   1     0.01  -0.00  -0.05     0.01   0.12   0.01     0.01   0.07  -0.01
    13   1    -0.01  -0.06  -0.01     0.06   0.00   0.06     0.06  -0.01   0.07
    14   1     0.02   0.04  -0.02     0.06  -0.03  -0.03     0.09  -0.02  -0.04
    15   1     0.06   0.01  -0.01    -0.02   0.05  -0.03     0.02   0.06  -0.07
    16   1    -0.05  -0.01  -0.02    -0.04   0.05  -0.00    -0.01   0.08   0.04
    17   1     0.03  -0.01  -0.05    -0.02  -0.00  -0.01     0.09  -0.00   0.02
    18   1    -0.10   0.27   0.24     0.03  -0.05  -0.04    -0.08   0.28   0.20
    19   1    -0.11   0.34   0.32     0.02  -0.20  -0.09    -0.09   0.24   0.19
    20   1    -0.11  -0.27   0.47    -0.06  -0.26   0.21     0.03   0.16  -0.22
    21   1    -0.08  -0.20   0.35     0.02   0.04  -0.07     0.05   0.22  -0.27
    22   1     0.04  -0.11   0.08     0.58  -0.34   0.31     0.13   0.46   0.11
    23   1    -0.07   0.01   0.12     0.15  -0.05  -0.08     0.14  -0.03  -0.12
    24   1    -0.11   0.05   0.13     0.24  -0.08  -0.11    -0.05  -0.04  -0.05
                     43                     44                     45
                      A                      A                      A
 Frequencies --   1434.6756              1454.8338              1490.4855
 Red. masses --      1.2372                 1.2090                 1.0855
 Frc consts  --      1.5004                 1.5077                 1.4208
 IR Inten    --      4.0169                 4.9919                 9.1060
  Atom  AN      X      Y      Z        X      Y      Z        X      Y      Z
     1   8    -0.00   0.00   0.00    -0.00   0.00  -0.00     0.00  -0.00  -0.00
     2   6     0.00  -0.00   0.00    -0.00  -0.00   0.00     0.00  -0.00   0.01
     3   6    -0.01   0.00  -0.00     0.01   0.01  -0.01     0.00   0.00  -0.00
     4   6     0.02  -0.02   0.01    -0.00   0.00   0.00    -0.00  -0.00   0.00
     5   6    -0.00   0.09  -0.01    -0.01  -0.10   0.01    -0.01  -0.01   0.01
     6   6    -0.10   0.02  -0.03    -0.08   0.01  -0.02    -0.00   0.01  -0.01
     7   6     0.00  -0.00   0.01    -0.00  -0.00   0.01    -0.00  -0.00   0.00
     8   6     0.00  -0.01  -0.00    -0.00  -0.01  -0.01     0.01  -0.01  -0.01
     9   6    -0.01   0.01  -0.00     0.01   0.01   0.01    -0.00   0.01   0.01
    10   6     0.00  -0.00   0.00    -0.01   0.00  -0.01     0.05  -0.01   0.05
    11   1     0.01  -0.01   0.00    -0.03  -0.03   0.00    -0.00  -0.02   0.00
    12   1    -0.14  -0.31   0.02     0.16   0.36  -0.02     0.04   0.01  -0.16
    13   1     0.09  -0.35  -0.09    -0.07   0.42   0.13    -0.05   0.17   0.04
    14   1     0.03  -0.32   0.19     0.00   0.37  -0.25     0.17   0.01  -0.06
    15   1     0.41  -0.16  -0.05     0.35  -0.11  -0.07     0.01  -0.07   0.04
    16   1     0.33  -0.12   0.28     0.28  -0.08   0.26    -0.02   0.00  -0.02
    17   1     0.39   0.10   0.08     0.32   0.07   0.06     0.01   0.02   0.07
    18   1    -0.02   0.03  -0.03    -0.01  -0.01  -0.05     0.00  -0.01   0.00
    19   1     0.02  -0.00  -0.02     0.03   0.01  -0.02     0.00  -0.01  -0.00
    20   1     0.01   0.01   0.03     0.01   0.02   0.01     0.05   0.08   0.09
    21   1    -0.04   0.03   0.01    -0.03  -0.00   0.03    -0.10   0.07   0.05
    22   1     0.01  -0.02   0.01    -0.03  -0.03  -0.02    -0.01  -0.03   0.01
    23   1    -0.03   0.05  -0.03     0.01  -0.08   0.08    -0.21   0.47  -0.41
    24   1    -0.03  -0.02  -0.03     0.08   0.05   0.06    -0.43  -0.31  -0.37
                     46                     47                     48
                      A                      A                      A
 Frequencies --   1514.1417              1521.1390              1529.0375
 Red. masses --      1.0532                 1.0543                 1.0596
 Frc consts  --      1.4226                 1.4373                 1.4596
 IR Inten    --      2.0924                 5.5201                 3.2173
  Atom  AN      X      Y      Z        X      Y      Z        X      Y      Z
     1   8     0.00  -0.00  -0.00    -0.00   0.00  -0.00     0.00  -0.00  -0.00
     2   6    -0.00   0.00   0.00     0.00  -0.00   0.00     0.00   0.00   0.00
     3   6     0.00   0.00  -0.00    -0.00   0.00  -0.00     0.00   0.01  -0.00
     4   6     0.01  -0.01  -0.00     0.00  -0.02   0.01    -0.00  -0.01  -0.02
     5   6     0.01   0.00   0.03     0.03  -0.00   0.01     0.01  -0.00  -0.04
     6   6     0.00  -0.02  -0.03    -0.01  -0.04   0.02    -0.00  -0.01   0.01
     7   6     0.00   0.02  -0.03    -0.00  -0.00   0.01     0.01   0.03  -0.03
     8   6     0.01  -0.01  -0.01    -0.01   0.02   0.01     0.01  -0.02  -0.02
     9   6    -0.00  -0.00  -0.00    -0.00   0.00   0.00     0.00  -0.00   0.00
    10   6    -0.01   0.00  -0.01     0.01  -0.00   0.01     0.00  -0.00   0.01
    11   1    -0.01  -0.00  -0.00    -0.00   0.00  -0.00    -0.02  -0.01   0.00
    12   1     0.11   0.06  -0.31     0.10   0.21   0.00    -0.10   0.04   0.48
    13   1    -0.28   0.06  -0.20    -0.22  -0.09  -0.23     0.27  -0.18   0.14
    14   1     0.02  -0.17   0.11    -0.30  -0.04   0.14    -0.24   0.23  -0.06
    15   1     0.22  -0.15   0.00     0.18   0.40  -0.30     0.08   0.13  -0.10
    16   1    -0.08   0.42   0.07     0.17   0.23   0.27     0.05   0.08   0.08
    17   1    -0.21   0.04   0.40    -0.22  -0.10  -0.26    -0.08  -0.03  -0.09
    18   1     0.15  -0.15   0.22    -0.04   0.05  -0.06     0.19  -0.18   0.28
    19   1    -0.20  -0.16   0.12     0.06   0.05  -0.04    -0.26  -0.22   0.15
    20   1     0.07   0.12   0.09    -0.09  -0.15  -0.11     0.11   0.20   0.16
    21   1    -0.13   0.11   0.03     0.17  -0.13  -0.04    -0.21   0.16   0.06
    22   1     0.00   0.01  -0.00    -0.02  -0.00  -0.00    -0.00   0.01   0.00
    23   1     0.03  -0.08   0.07    -0.05   0.10  -0.08    -0.02   0.05  -0.05
    24   1     0.08   0.05   0.07    -0.10  -0.07  -0.09    -0.06  -0.04  -0.04
                     49                     50                     51
                      A                      A                      A
 Frequencies --   1538.5411              1546.9719              1554.6106
 Red. masses --      1.0650                 1.0622                 1.0799
 Frc consts  --      1.4854                 1.4977                 1.5378
 IR Inten    --      0.9947                 3.9451                 4.1491
  Atom  AN      X      Y      Z        X      Y      Z        X      Y      Z
     1   8     0.00  -0.00  -0.00    -0.00   0.00   0.00     0.00  -0.00  -0.00
     2   6    -0.00   0.00   0.00     0.00  -0.00  -0.01     0.00   0.00   0.00
     3   6     0.01   0.00  -0.00    -0.00  -0.00   0.01    -0.00  -0.00  -0.00
     4   6    -0.03  -0.02  -0.01     0.01  -0.01  -0.03     0.01   0.00  -0.02
     5   6    -0.04   0.02  -0.00     0.01  -0.00  -0.02     0.01  -0.01  -0.01
     6   6     0.01  -0.03  -0.00     0.01  -0.01  -0.03    -0.01   0.02  -0.02
     7   6     0.00   0.01  -0.00    -0.00  -0.03   0.03     0.00   0.02  -0.02
     8   6    -0.01   0.03   0.01     0.00  -0.01  -0.00    -0.01   0.05   0.02
     9   6     0.00   0.00   0.01    -0.00   0.00   0.00    -0.00  -0.00   0.01
    10   6     0.00  -0.00  -0.00     0.00  -0.00   0.00     0.01  -0.00   0.01
    11   1    -0.02  -0.01  -0.00    -0.01  -0.01   0.01    -0.01   0.01  -0.00
    12   1    -0.14  -0.35  -0.05    -0.06   0.05   0.31     0.01   0.11   0.17
    13   1     0.29   0.17   0.31     0.16  -0.14   0.06     0.02  -0.09  -0.03
    14   1     0.46   0.05  -0.20    -0.19   0.15  -0.03    -0.19   0.08   0.02
    15   1     0.20   0.15  -0.15     0.16  -0.21   0.06     0.01  -0.28   0.16
    16   1     0.06   0.30   0.17    -0.14   0.35  -0.01    -0.09  -0.03  -0.10
    17   1    -0.24  -0.04   0.03    -0.20   0.04   0.41     0.13   0.08   0.26
    18   1     0.03  -0.03   0.05    -0.21   0.21  -0.30     0.13  -0.12   0.19
    19   1    -0.04  -0.04   0.02     0.29   0.24  -0.17    -0.18  -0.14   0.11
    20   1    -0.10  -0.17  -0.13     0.02   0.03   0.03    -0.21  -0.37  -0.29
    21   1     0.18  -0.15  -0.04    -0.04   0.03   0.01     0.39  -0.31  -0.09
    22   1    -0.02  -0.01  -0.01     0.01  -0.00   0.01    -0.01   0.02   0.01
    23   1     0.00  -0.01   0.01    -0.02   0.03  -0.02    -0.05   0.09  -0.06
    24   1     0.01   0.02   0.03    -0.02  -0.02  -0.02    -0.08  -0.05  -0.06
                     52                     53                     54
                      A                      A                      A
 Frequencies --   1849.3517              3044.9034              3050.6364
 Red. masses --     12.2653                 1.0390                 1.0393
 Frc consts  --     24.7154                 5.6756                 5.6988
 IR Inten    --    238.9715                13.6021                41.0721
  Atom  AN      X      Y      Z        X      Y      Z        X      Y      Z
     1   8    -0.47   0.14   0.19    -0.00  -0.00  -0.00     0.00  -0.00   0.00
     2   6     0.72  -0.22  -0.28    -0.00  -0.00   0.00    -0.00   0.00  -0.00
     3   6    -0.04   0.01   0.01    -0.00   0.00  -0.00    -0.00  -0.00  -0.00
     4   6    -0.03   0.00   0.01     0.00  -0.00   0.00     0.00   0.00  -0.00
     5   6     0.00  -0.00   0.00     0.01   0.03  -0.01     0.01   0.03  -0.01
     6   6     0.00   0.00  -0.00    -0.04  -0.01  -0.00     0.04   0.01   0.00
     7   6    -0.00   0.02   0.00     0.00  -0.00   0.00    -0.00   0.00  -0.00
     8   6     0.00  -0.00  -0.00     0.00  -0.00  -0.00    -0.00   0.00   0.00
     9   6    -0.02   0.00   0.01    -0.00   0.00  -0.00    -0.00  -0.00   0.00
    10   6    -0.04   0.01   0.01     0.00  -0.00   0.00     0.00  -0.00   0.00
    11   1     0.19  -0.07   0.02    -0.00   0.00   0.00     0.00   0.01   0.02
    12   1     0.01  -0.01  -0.03     0.27  -0.08   0.06     0.28  -0.09   0.07
    13   1    -0.02   0.03  -0.00    -0.29  -0.12   0.36    -0.29  -0.12   0.36
    14   1     0.02  -0.00  -0.01    -0.13  -0.19  -0.36    -0.12  -0.19  -0.35
    15   1    -0.00  -0.00   0.00     0.10   0.22   0.37    -0.09  -0.22  -0.36
    16   1     0.01  -0.01   0.00     0.31   0.13  -0.36    -0.31  -0.13   0.36
    17   1    -0.00  -0.00  -0.00     0.02  -0.24   0.04    -0.03   0.25  -0.04
    18   1     0.04  -0.04   0.00     0.01   0.01  -0.00    -0.01  -0.01   0.00
    19   1    -0.03  -0.06  -0.01    -0.01   0.01  -0.01     0.02  -0.01   0.02
    20   1    -0.01  -0.01  -0.00    -0.02   0.01   0.00     0.03  -0.01  -0.00
    21   1     0.01   0.00  -0.01     0.01   0.01   0.01    -0.01  -0.01  -0.01
    22   1    -0.03   0.01   0.02    -0.00  -0.00   0.00     0.02   0.01  -0.03
    23   1     0.06  -0.01  -0.08    -0.01  -0.02  -0.01    -0.02  -0.03  -0.01
    24   1     0.04  -0.04  -0.08    -0.01   0.04  -0.02    -0.01   0.05  -0.03
                     55                     56                     57
                      A                      A                      A
 Frequencies --   3070.0428              3071.0144              3078.3003
 Red. masses --      1.0608                 1.0616                 1.0618
 Frc consts  --      5.8906                 5.8990                 5.9282
 IR Inten    --     19.0915                11.6231                36.2268
  Atom  AN      X      Y      Z        X      Y      Z        X      Y      Z
     1   8     0.00  -0.00  -0.00     0.00  -0.00   0.00     0.00  -0.00   0.00
     2   6    -0.00   0.00   0.00     0.00  -0.00  -0.00    -0.00   0.00  -0.00
     3   6     0.00  -0.00  -0.00    -0.00  -0.00  -0.00     0.00  -0.00  -0.01
     4   6     0.00   0.00  -0.00    -0.00  -0.00  -0.00     0.00   0.00  -0.00
     5   6     0.00   0.00   0.00    -0.01  -0.00   0.00     0.00   0.00  -0.00
     6   6    -0.00  -0.00   0.00    -0.00  -0.00   0.00     0.00   0.01  -0.00
     7   6    -0.01  -0.02   0.02    -0.00  -0.01   0.01    -0.01  -0.04   0.04
     8   6    -0.00   0.05   0.03    -0.01   0.02   0.01     0.00  -0.03  -0.02
[...]
 8,0.00141317,-0.00299767,-0.00528935,-0.00098643,-0.02153177,0.0119408
 5,0.01308672,0.00053017,0.00115037,0.00107696,-0.19562870,0.09012560,0
 .09166424,0.00016591,-0.00008558,-0.00100827,-0.00004166,-0.00005520,0
 .00004199,0.00105547,0.00108208,-0.00039355,-0.00001262,-0.00022691,-0
 .00044826,0.00007744,0.00008635,-0.00007995,0.00057814,-0.00023239,-0.
 00009221,0.00015638,-0.00072958,-0.00097911,-0.00008737,-0.00001812,-0
 .00006420,-0.00555872,0.00330262,0.00311317,0.21429124,-0.00025065,-0.
 00055547,-0.00033740,-0.00096536,0.00131387,0.00094439,-0.00304057,-0.
 00267493,-0.00001198,-0.01662408,0.00926336,0.01020510,-0.00007408,0.0
 0057040,0.00060212,0.09019968,-0.10284559,-0.05612657,0.00003377,-0.00
 015101,-0.00052031,0.00008654,0.00010065,-0.00002429,-0.00002162,0.001
 65259,0.00006764,0.00017893,0.00003515,-0.00027972,-0.00028942,0.00005
 427,0.00004653,0.00015188,0.00004489,0.00029321,0.00004922,0.00006826,
 -0.00017665,0.00012227,-0.00011660,-0.00017521,0.02043264,-0.01238509,
 -0.01442531,-0.09639557,0.10993281,0.00010287,0.00024495,0.00000007,-0
 .00001973,-0.00054883,0.00005103,-0.00028508,0.00044292,0.00044686,0.0
 0100077,0.00018537,-0.00194574,-0.00104514,0.00004455,0.00033624,0.092
 03300,-0.05650609,-0.10705814,0.00014272,-0.00025750,-0.00005343,0.000
 13636,-0.00015620,-0.00007759,0.00038284,-0.00072258,0.00014710,-0.000
 08522,0.00027028,-0.00003538,0.00016435,-0.00006646,-0.00009334,0.0000
 5288,0.00021139,-0.00000083,-0.00019980,-0.00025170,0.00029603,-0.0000
 6366,0.00010364,0.00002522,-0.01421389,0.00762573,0.00888216,-0.101991
 46,0.06264472,0.11225685,0.00024785,0.00015740,0.00004394,0.00004406,-
 0.00038833,-0.00017703,0.00082628,0.00061636,-0.00069344,-0.00632863,-
 0.00405487,-0.02479707,-0.00467581,-0.00344673,0.00114830,-0.07600880,
 -0.02272164,-0.07574002,-0.00097033,-0.00055114,0.00038649,0.00018637,
 -0.00053028,0.00018592,0.00050759,0.00059735,-0.00044802,0.00005812,0.
 00023602,-0.00007672,-0.00016291,0.00000475,0.00008234,-0.00019145,-0.
 00076613,-0.00181631,0.00026067,-0.00025973,-0.00014182,0.00004966,0.0
 0003799,0.00048709,-0.00297730,-0.00202377,-0.00704174,0.00927575,0.00
 564518,0.02386306,0.07961974,0.00007525,-0.00007641,0.00003656,0.00005
 596,0.00016355,-0.00019218,0.00057687,0.00030305,-0.00011949,-0.003272
 24,-0.00492534,-0.01870295,-0.00354221,-0.00260844,0.00111492,-0.02269
 985,-0.06816437,-0.06369342,-0.00020647,0.00060937,0.00008469,-0.00114
 839,-0.00078933,0.00042570,0.00040792,0.00037105,-0.00090154,0.0000161
 6,0.00017156,0.00010571,0.00000986,0.00001698,0.00014388,-0.00062744,0
 .00019892,-0.00139767,0.00005840,0.00014277,0.00046462,-0.00010533,0.0
 0038303,-0.00022561,0.00821780,0.00906150,0.02614100,-0.00535328,-0.00
 435400,-0.01431880,0.02621594,0.07014323,-0.00015072,-0.00006781,0.000
 01973,-0.00005943,0.00011271,-0.00001069,-0.00003214,-0.00062166,-0.00
 006709,0.00023045,0.00041426,0.00279681,-0.00072952,-0.00039833,0.0007
 3426,-0.07766706,-0.06536016,-0.27285882,0.00105140,0.00050007,-0.0013
 0930,0.00070796,0.00117586,-0.00165173,-0.00063647,0.00003499,-0.00020
 418,0.00004204,-0.00015801,0.00011895,-0.00002029,-0.00000794,-0.00000
 675,0.00005570,-0.00006286,0.00007974,0.00010659,0.00024541,0.00018131
 ,0.00031519,-0.00006895,0.00028418,-0.00390027,-0.00443693,-0.01439225
 ,-0.00456696,-0.00280031,-0.01341038,0.08268078,0.06929096,0.30057103,
 0.00060942,0.00047798,0.00015222,0.00101763,-0.00062510,-0.00069048,0.
 01217649,0.00072137,-0.01028219,-0.00173874,0.00012670,-0.00306891,0.0
 0093314,-0.00053732,-0.00028858,-0.00042248,-0.00010296,-0.00028502,-0
 .18685300,-0.01787231,0.13323490,-0.01253372,-0.00297139,0.01056240,-0
 .00136072,0.00086381,-0.00052221,-0.00024261,-0.00000447,0.00013537,-0
 .00000335,0.00020859,0.00053850,0.00001048,0.00002411,0.00004221,0.000
 01651,-0.00011814,-0.00040683,-0.00000108,0.00000742,0.00007654,0.0000
 2419,-0.00001924,0.00010022,0.00013324,0.00006761,0.00012041,0.0002959
 6,0.00024624,0.00015138,0.19907768,0.00025156,-0.00006079,0.00016561,-
 0.00020269,0.00023470,-0.00171780,-0.00056886,-0.00065061,-0.00071393,
 0.00026830,-0.00081705,-0.00029839,0.00014738,0.00016159,-0.00017235,-
 0.00039858,0.00013273,-0.00010778,-0.01882918,-0.05203894,0.01672035,0
 .01747230,0.00227305,-0.01670318,0.00232557,-0.00169438,-0.00026785,0.
 00018700,0.00008203,-0.00013066,-0.00006391,-0.00004639,0.00006634,0.0
 0001943,0.00000605,0.00002830,-0.00000668,0.00003996,-0.00001830,-0.00
 004608,-0.00000303,-0.00006292,0.00003869,0.00003498,-0.00000254,0.000
 06555,0.00006769,0.00022269,0.00033892,-0.00005431,0.00029439,0.018956
 61,0.05555769,-0.00176008,0.00012133,0.00073088,0.00392626,0.00106245,
 -0.00080667,0.01899496,0.00003843,-0.01875808,-0.00364471,0.00023123,-
 0.00502559,0.00197390,-0.00094843,-0.00041641,-0.00071847,-0.00022284,
 0.00006847,0.13210762,0.01594347,-0.17349379,-0.00355654,0.00013312,0.
 00254191,-0.00030492,0.00043425,-0.00030327,0.00012857,-0.00001530,-0.
 00023835,-0.00027135,0.00031799,-0.00019551,-0.00006820,-0.00002752,0.
 00001579,-0.00014241,-0.00014098,-0.00076455,-0.00001445,0.00004552,0.
 00007126,0.00002138,-0.00000639,-0.00000331,0.00011186,0.00001846,0.00
 003957,0.00004999,0.00009725,0.00014864,-0.14180436,-0.01681285,0.1902
 3696,-0.00052647,-0.00086263,0.00028495,-0.00046328,0.00288712,-0.0029
 6564,-0.00782434,-0.01208635,-0.00440097,0.00008077,0.00066425,0.00028
 548,-0.00006968,-0.00017420,0.00003788,-0.00021861,0.00006897,0.000708
 67,-0.10962432,-0.11395908,-0.01822449,0.00967997,0.01973333,0.0041324
 8,-0.00188248,0.00222108,-0.00061581,0.00002042,-0.00053212,0.00075779
 ,0.00031101,0.00024657,0.00030368,0.00001248,0.00004020,0.00003217,0.0
 0005003,0.00002936,-0.00007662,0.00001692,0.00000308,0.00002812,-0.000
 02580,-0.00002106,-0.00008695,0.00015293,0.00005548,-0.00003968,-0.000
 73017,0.00019198,0.00115279,-0.01158564,-0.02092893,-0.00377927,0.1217
 5151,0.00060414,0.00004426,-0.00032026,-0.00077463,0.00027725,0.000747
 95,0.00191345,0.00287313,0.00082737,-0.00075172,-0.00040472,0.00011949
 ,0.00020462,0.00019248,-0.00010678,-0.00113141,0.00015746,-0.00046775,
 -0.11298028,-0.24479472,-0.03703045,-0.00989231,-0.01854328,-0.0023997
 9,0.00228553,-0.00187028,0.00093473,0.00027303,0.00077798,0.00019537,-
 0.00007680,0.00065391,-0.00059388,0.00005925,0.00001548,0.00004316,-0.
 00001299,-0.00005128,-0.00003627,-0.00004019,0.00001491,-0.00010361,0.
 00009858,0.00003212,0.00008086,0.00018633,0.00009549,0.00043791,0.0006
 0459,0.00028732,0.00043527,-0.00194184,-0.00221445,0.00001410,0.120015
 74,0.26318742,-0.00241002,-0.00138149,0.00147474,0.00138869,0.00430600
 ,-0.00639768,-0.01822266,-0.02848201,-0.00852894,-0.00049148,-0.000105
 00,0.00156324,0.00010128,0.00029742,-0.00008197,0.00021660,-0.00015507
 ,-0.00063722,-0.01778655,-0.03754385,-0.05311119,0.00086019,0.00210664
 ,-0.00028081,0.00053393,-0.00037239,-0.00083469,0.00026353,0.00002975,
 0.00154104,0.00048275,0.00066103,0.00161719,0.00010798,0.00011449,0.00
 020208,0.00009901,0.00006819,-0.00003333,-0.00001802,0.00001215,-0.000
 07024,0.00005133,0.00006796,-0.00013923,0.00010250,0.00023783,0.000313
 79,0.00150348,-0.00017217,-0.00047722,0.01162920,0.02095240,0.00482921
 ,0.02154252,0.03893144,0.05813075,-0.00023856,-0.00004467,-0.00004560,
 0.00094638,0.00012501,0.00043159,-0.00086302,0.00163785,0.00070098,-0.
 00055778,-0.00055500,0.00003811,0.00024728,0.00017382,-0.00006041,-0.0
 0012700,-0.00158487,-0.00020179,-0.01553645,-0.00437552,-0.00117926,-0
 .28524353,-0.07528767,-0.03774300,-0.00078377,-0.00028130,0.00010163,0
 .00090099,-0.00067441,-0.00086792,-0.00023282,-0.00009966,-0.00056557,
 0.00004503,0.00003740,0.00010515,0.00000661,-0.00004337,-0.00008487,-0
 .00004382,0.00003605,-0.00007691,0.00018701,0.00018629,0.00054188,0.00
 004301,0.00010748,0.00002413,0.00052125,0.00034650,0.00094428,-0.00138
 695,0.00192266,-0.00103494,0.00164780,-0.00021976,0.00024289,0.3069556
 1,-0.00023366,0.00059986,0.00005173,0.00015441,-0.00176762,-0.00012261
 ,0.00208922,-0.00196028,-0.00036876,0.00031503,-0.00012374,-0.00005204
 ,-0.00021093,0.00000862,0.00003132,0.00004848,-0.00027155,0.00099246,0
 .02528011,0.00633930,0.00389127,-0.07580485,-0.07034304,-0.01034939,-0
 .01345107,-0.00515033,-0.00066010,-0.00038221,-0.00098837,-0.00377633,
 0.00030187,0.00016811,0.00076236,0.00003079,-0.00005202,0.00002127,0.0
 0000519,0.00001274,0.00005258,0.00005207,0.00003879,-0.00005677,0.0000
 3599,0.00006163,-0.00006340,-0.00005023,-0.00005424,-0.00011346,-0.000
 07769,-0.00096956,0.00135792,0.00246475,-0.00208201,0.00043743,-0.0001
 9806,0.00172129,-0.00002939,0.08130593,0.08064073,-0.00031911,0.000407
 47,0.00009965,0.00070677,-0.00091997,-0.00006921,-0.00010645,0.0006779
 6,-0.00070557,-0.00049607,-0.00050635,0.00118244,0.00026107,-0.0000026
 2,-0.00002593,-0.00006200,0.00039281,-0.00077383,0.00239570,0.00025016
 ,-0.00047925,-0.03652806,-0.00936718,-0.05619483,-0.02922077,-0.009078
 86,-0.00224966,0.00029121,-0.00132984,-0.00579082,-0.00012238,0.000060
 10,-0.00008953,0.00010019,0.00001531,0.00016513,-0.00000479,-0.0000246
 6,-0.00003050,0.00003462,0.00004989,-0.00003126,0.00024319,0.00002701,
 0.00024070,0.00009992,0.00001322,-0.00012770,0.00014459,0.00164720,-0.
 00073677,0.00058279,-0.00071099,0.00009028,-0.00000234,0.00025618,0.00
 104856,0.03986631,0.01181314,0.05819573,-0.00006783,-0.00030281,0.0001
 2126,0.00009796,0.00088301,-0.00029888,-0.00139309,0.00214914,-0.00071
 332,-0.00095543,0.00022998,-0.00082078,0.00017172,0.00029186,-0.000219
 69,0.00000172,-0.00064066,-0.00015816,0.00423463,0.01366221,-0.0141929
 3,-0.06493070,-0.04373005,0.04509601,-0.00035379,0.00128879,-0.0025697
 5,0.00042241,0.00042492,-0.00181868,-0.00037047,-0.00021862,-0.0007086
 2,0.00001613,0.00003709,0.00006773,-0.00000306,-0.00003145,-0.00003503
 ,0.00002300,0.00000698,-0.00010187,0.00009467,0.00006741,0.00027044,0.
 00004303,0.00004905,0.00001518,0.00012210,0.00041600,0.00039751,0.0015
 2149,-0.00040635,-0.00010873,-0.00106041,0.00174951,-0.00057744,-0.007
 16295,-0.02114478,0.02317063,0.06956955,0.00030711,0.00028281,-0.00011
 142,-0.00053113,-0.00092373,0.00020338,0.00107805,-0.00185657,0.000037
 63,-0.00038413,-0.00161937,-0.00275927,-0.00026147,0.00097183,-0.00026
 004,-0.00019964,-0.00030766,-0.00023640,-0.00649143,-0.01489243,0.0143
 3948,-0.04245374,-0.16619445,0.12596306,0.00272277,0.01029646,-0.01061
 312,0.00030066,0.00112727,-0.00080949,0.00023023,0.00023763,0.00077343
 ,0.00002885,-0.00000474,0.00005513,-0.00000378,0.00000644,0.00009532,-
 0.00007418,0.00006262,-0.00035940,0.00007516,0.00008002,0.00008534,-0.
 00003264,0.00002420,0.00009879,0.00029015,0.00017142,0.00012420,-0.000
 16159,0.00166682,-0.00034378,0.00230235,-0.00229877,0.00070056,-0.0028
 9446,-0.00633390,0.00704571,0.04552536,0.17901477,-0.00011079,-0.00028
 500,0.00003179,-0.00013420,0.00106868,-0.00007157,0.00026573,-0.000555
 03,-0.00035809,-0.00045968,-0.00386146,-0.00488965,-0.00023841,0.00208
 433,-0.00036084,-0.00046772,-0.00062009,0.00009263,-0.00052314,-0.0036
 7297,0.00233971,0.04279429,0.12500711,-0.17810566,0.00516509,0.0198049
 8,-0.02057960,0.00215198,0.00154684,0.00114524,-0.00013064,-0.00001119
 ,0.00010509,-0.00011381,-0.00007222,-0.00002293,0.00005258,-0.00001403
 ,0.00009085,-0.00025286,-0.00012446,-0.00074422,0.00006144,0.00011671,
 0.00005950,-0.00000405,0.00001401,-0.00001688,0.00010158,0.00003398,0.
 00015441,-0.00040077,0.00006625,0.00107888,0.00019121,-0.00102986,0.00
 001684,-0.00055489,-0.00359742,0.00458139,-0.04679893,-0.13440540,0.19
 461710,-0.00208619,0.00235280,-0.00009470,-0.00330399,-0.00530366,0.00
 030428,0.00061345,0.00049904,-0.00059191,-0.00162702,0.00024551,0.0005
 8834,-0.00017345,0.00003472,0.00017098,0.00056331,-0.00014621,-0.00036
 067,0.00088104,-0.00067807,-0.00189710,0.00512498,-0.00481943,-0.00189
 313,-0.19378719,0.11869744,0.05834122,-0.01703900,0.01792098,0.0063757
 3,0.00004106,-0.00000329,0.00018527,-0.00001557,0.00005807,0.00005225,
 0.00014276,0.00005627,-0.00050125,0.00010907,-0.00008679,-0.00017104,0
 .00005480,0.00008229,-0.00007345,0.00031469,0.00035948,-0.00007550,0.0
 0001354,-0.00002078,-0.00000358,0.00021999,-0.00033747,-0.00001534,0.0
 0015789,-0.00015186,0.00011470,0.00070065,0.00019228,0.00070778,-0.000
 02797,0.00021066,0.00024984,0.20803891,-0.00112256,0.00200223,-0.00007
 890,-0.00298936,-0.00411492,0.00015596,0.00091002,-0.00431908,0.001964
 85,0.01653128,-0.01163312,-0.00953756,-0.00026801,0.00043725,-0.000932
 94,0.00083198,0.00113566,-0.00094103,0.00072119,-0.00081682,-0.0009830
 1,0.00627122,-0.00528615,-0.00078212,0.11881927,-0.14622119,-0.0469368
 9,-0.01227860,0.01221578,0.00460523,0.00128797,-0.00006895,-0.00089548
 ,0.00002730,0.00001871,0.00011161,-0.00018267,0.00026023,0.00070753,-0
 .00022548,0.00008662,0.00014520,-0.00026549,0.00022515,0.00020026,-0.0
 0079290,-0.00009755,0.00042055,-0.00002890,-0.00015667,0.00000367,0.00
 009668,-0.00038912,-0.00014323,0.00027935,-0.00031277,-0.00014601,-0.0
 0016977,0.00017255,0.00016177,-0.00005369,-0.00000339,-0.00033440,-0.1
 2890235,0.15628961,0.00009740,-0.00009248,0.00007031,-0.00154654,0.001
 11594,0.00019983,-0.00107886,0.00341580,-0.00272694,-0.01478422,0.0099
 8121,0.00635162,-0.00025812,-0.00023936,0.00150358,-0.00043996,-0.0009
 8582,0.00051293,-0.00087685,-0.00162958,-0.00476038,0.02150045,-0.0170
 4290,-0.00466535,0.05828555,-0.04727256,-0.07240937,-0.00069710,0.0005
 0948,-0.00008622,-0.00085354,0.00023404,0.00110421,-0.00005603,0.00003
 549,-0.00011041,0.00034502,-0.00029589,-0.00021689,0.00024288,-0.00014
 779,0.00002388,-0.00002406,-0.00015922,-0.00008866,0.00032988,-0.00020
 046,0.00002859,0.00015423,0.00004413,-0.00001370,0.00047696,-0.0008348
 5,0.00008601,0.00078349,-0.00088926,-0.00012237,-0.00059829,0.00045351
 ,0.00152115,0.00015064,0.00055555,-0.00025276,-0.06127759,0.05303947,0
 .07363119,-0.00085250,-0.00077502,0.00309573,0.00553018,0.00851255,-0.
 02002069,-0.00089724,0.00165491,0.00202705,-0.00680006,-0.00163325,-0.
 00074190,-0.00042471,-0.00012021,-0.00079725,0.00110556,-0.00149912,0.
 00116885,0.00076486,0.00065718,-0.00009544,0.00137387,0.00050357,0.002
 32539,-0.00265135,-0.01766134,0.02281725,-0.05635064,-0.02639130,0.036
 11621,0.00031513,0.00027821,0.00004088,0.00031113,0.00025112,0.0001073
 1,0.00007330,0.00001700,-0.00003808,0.00016652,0.00004941,0.00010229,-
 0.00056992,-0.00057045,0.00006009,0.00006215,0.00009601,-0.00001887,-0
 .00002724,0.00001337,-0.00007910,-0.00002291,-0.00000261,-0.00007544,0
 .00011593,-0.00001018,0.00027862,0.00016851,0.00050433,0.00015006,0.00
 007497,0.00012965,-0.00116312,-0.00028900,0.00028670,0.00010539,0.0574
 9702,-0.00035941,0.00216058,-0.00260735,-0.00594271,-0.01506075,0.0207
 7199,0.00099782,-0.00244846,-0.00153674,-0.00173417,-0.00090568,-0.000
 65818,-0.00020089,0.00026443,-0.00048958,0.00057140,-0.00041177,0.0005
 0484,-0.00034430,-0.00085628,0.00024785,0.00001004,-0.00013997,0.00138
 897,-0.00058285,-0.00616039,0.00631606,-0.02822037,-0.13056160,0.12519
 746,-0.00035490,-0.00059651,-0.00032135,0.00032509,0.00008947,-0.00001
 295,-0.00002006,-0.00002774,0.00005915,0.00016375,0.00008155,0.0000294
 7,-0.00029089,-0.00015918,-0.00000094,-0.00003623,0.00002715,0.0000051
 7,-0.00001830,-0.00003271,-0.00005484,0.00009099,-0.00021469,-0.000187
 52,-0.00011369,0.00018382,-0.00033628,0.00026440,0.00034397,-0.0002938
 4,-0.00035059,0.00024148,-0.00100970,-0.00019667,-0.00001763,-0.000041
 93,0.03306961,0.14236041,-0.00080028,0.00010691,0.00075137,0.00055263,
 -0.00204603,0.00092956,-0.00012581,-0.00050083,-0.00094859,-0.00026722
 ,-0.00122163,-0.00000708,-0.00049009,0.00012525,-0.00018861,-0.0001150
 9,-0.00015319,0.00024729,-0.00002484,-0.00024358,0.00007816,-0.0013070
 2,-0.00136540,0.00094806,-0.00050697,-0.00161233,0.00076930,0.03964082
 ,0.12269073,-0.21569436,0.00001900,-0.00001659,-0.00005461,0.00052416,
 0.00017438,0.00014633,0.00006778,0.00001043,0.00001753,0.00018761,0.00
 013450,0.00002948,-0.00000281,-0.00005307,0.00010822,-0.00001819,-0.00
 001673,-0.00001211,0.00009403,0.00006448,0.00004653,-0.00005007,-0.000
 02897,0.00004290,-0.00006347,0.00002201,-0.00001242,0.00000863,-0.0002
 4105,0.00013585,-0.00021976,0.00001062,0.00052136,0.00034924,0.0002670
 5,-0.00009821,-0.04197748,-0.13183053,0.23387100,-0.00064733,-0.000798
 73,-0.00337807,0.00454333,0.00936011,0.02084740,-0.00093145,0.00195489
 ,-0.00172343,0.00046980,0.00121168,-0.00067270,0.00050702,0.00007099,0
 .00026837,0.00009128,-0.00011267,-0.00009021,-0.00085630,0.00027585,-0
 .00023939,-0.00625454,-0.00295496,0.00088323,-0.00199929,-0.01623367,-
 0.02650265,-0.05306110,-0.02377066,-0.03116159,0.00055376,0.00043817,-
 0.00014052,0.00037319,-0.00015997,0.00021793,-0.00019800,-0.00006285,0
 .00012064,0.00001319,0.00009864,0.00012125,-0.00002248,-0.00002635,0.0
 0009937,0.00005597,0.00002611,-0.00000053,0.00004371,0.00012775,0.0000
 0946,0.00011498,-0.00020260,-0.00001534,0.00001354,-0.00001081,-0.0000
 1303,-0.00019347,-0.00122697,-0.00189286,-0.00006767,0.00028718,0.0003
 1926,0.00137326,0.00121680,0.00001923,0.00132644,0.00327288,0.00452521
 ,0.05475216,0.00011843,0.00218328,0.00262458,-0.00593636,-0.01576687,-
 0.02177158,0.00277874,-0.00291595,0.00354113,-0.00022373,-0.00007655,-
 0.00117700,-0.00113670,-0.00031674,-0.00009152,-0.00004068,0.00011367,
 0.00040635,0.00055883,0.00146647,0.00054895,-0.00158472,-0.00004127,0.
 00096794,-0.00017580,-0.00517283,-0.00717619,-0.02472484,-0.12653689,-
 0.12570209,-0.00078654,-0.00086300,0.00006787,0.00056520,-0.00081110,0
 .00142073,0.00005125,-0.00000013,0.00011383,0.00040274,0.00039588,0.00
 006002,-0.00000248,-0.00005362,0.00000338,-0.00010579,-0.00001634,-0.0
 0001703,0.00012287,0.00010739,0.00004810,0.00000151,0.00000850,-0.0000
 4620,0.00013726,-0.00002405,0.00023782,0.00008706,-0.00001093,-0.00058
 362,0.00009770,0.00025125,-0.00014967,-0.00006299,0.00059356,0.0004474
 8,0.00263985,0.01184049,0.01572358,0.02721919,0.13564580,0.00045166,-0
 .00011577,0.00079562,0.00030723,0.00166767,0.00110264,-0.00003927,0.00
 037404,-0.00069984,-0.00034522,-0.00013845,-0.00005905,-0.00057343,0.0
 0098794,-0.00138682,0.00004560,-0.00005463,-0.00001104,-0.00000812,0.0
 0014697,-0.00001510,-0.00128321,0.00024503,0.00008992,-0.00011458,0.00
 152951,0.00083416,-0.03472061,-0.12141231,-0.22315398,0.00006319,0.000
 08754,0.00001489,0.00117380,0.00194003,-0.00100823,0.00008073,-0.00003
 543,-0.00003242,0.00040672,0.00013215,0.00002224,-0.00002806,-0.000058
 06,0.00001670,-0.00002090,0.00000771,0.00000802,0.00000633,0.00002876,
 0.00000330,-0.00000369,0.00006704,0.00002477,0.00001402,-0.00006793,-0
 .00001013,0.00000786,-0.00043425,0.00004398,0.00005315,-0.00018987,0.0
 0056741,-0.00048441,-0.00007158,0.00051795,-0.00338776,-0.01513924,-0.
 02162694,0.03839897,0.13050314,0.24396195\\0.00007085,-0.00000979,0.00
 003245,-0.00003296,0.00004185,0.00002252,-0.00003300,-0.00003446,-0.00
 007572,-0.00001191,0.00003168,0.00004055,0.00001471,0.00000284,0.00000
 326,0.00000563,-0.00002993,0.00001568,0.00004746,0.00001091,0.00001756
 ,-0.00003856,-0.00000915,-0.00004451,-0.00000615,-0.00000037,0.0000397
 3,0.00002612,-0.00001787,-0.00002927,-0.00000302,0.00001427,0.00000812
 ,0.00000961,0.00000380,-0.00000565,-0.00000378,0.00000216,-0.00000867,
 0.00000450,0.00000315,-0.00000005,0.00000229,0.00000319,0.00000335,0.0
 0000605,-0.00000369,-0.00000713,-0.00001198,0.00000400,-0.00000418,-0.
 00001988,-0.00000170,-0.00000926,-0.00001997,0.00000330,0.00000181,-0.
 00000449,0.00000931,-0.00001086,-0.00000813,-0.00000501,-0.00000637,0.
 00000127,-0.00000866,-0.00000618,0.00000392,-0.00000043,0.00001534,0.0
 0000143,-0.00000939,0.00000747\\\@


 You never know when you're making a memory.
                        -- Rickie Lee Jones
 Job cpu time:       0 days  0 hours  2 minutes  4.1 seconds.
 Elapsed time:       0 days  0 hours  2 minutes  4.5 seconds.
 File lengths (MBytes):  RWF=     95 Int=      0 D2E=      0 Chk=      5 Scr=      1
 Normal termination of Gaussian 16 at Wed Feb 21 19:26:29 2024.
