 Entering Gaussian System, Link 0=g16
 Input=/Volumes/SSD-PMU3/b3lyp_6-31gd_freq/BITOYSGQNJZELQ-JEAVBFSBSA-N_calculating/gaussianinput1.gjf
 Output=/Volumes/SSD-PMU3/b3lyp_6-31gd_freq/BITOYSGQNJZELQ-JEAVBFSBSA-N_calculating/gaussianinput1.log
 Initial command:
 /Applications/g16/l1.exe "/Users/macmini_m1_2022/PycharmProjects/sphere_model/sphere_model_lib/Gau-65109.inp" -scrdir="/Users/macmini_m1_2022/PycharmProjects/sphere_model/sphere_model_lib/"
 Entering Link 1 = /Applications/g16/l1.exe PID=     65110.
  
 Copyright (c) 1988,1990,1992,1993,1995,1998,2003,2009,2016,
            Gaussian, Inc.  All Rights Reserved.
  
 This is part of the Gaussian(R) 16 program.  It is based on
 the Gaussian(R) 09 system (copyright 2009, Gaussian, Inc.),
 the Gaussian(R) 03 system (copyright 2003, Gaussian, Inc.),
 the Gaussian(R) 98 system (copyright 1998, Gaussian, Inc.),
 the Gaussian(R) 94 system (copyright 1995, Gaussian, Inc.),
 the Gaussian 92(TM) system (copyright 1992, Gaussian, Inc.),
 the Gaussian 90(TM) system (copyright 1990, Gaussian, Inc.),
 the Gaussian 88(TM) system (copyright 1988, Gaussian, Inc.),
 the Gaussian 86(TM) system (copyright 1986, Carnegie Mellon
 University), and the Gaussian 82(TM) system (copyright 1983,
 Carnegie Mellon University). Gaussian is a federally registered
 trademark of Gaussian, Inc.
  
 This software contains proprietary and confidential information,
 including trade secrets, belonging to Gaussian, Inc.
  
 This software is provided under written license and may be
 used, copied, transmitted, or stored only in accord with that
 written license.
  
 The following legend is applicable only to US Government
 contracts under FAR:
  
                    RESTRICTED RIGHTS LEGEND
  
 Use, reproduction and disclosure by the US Government is
 subject to restrictions as set forth in subparagraphs (a)
 and (c) of the Commercial Computer Software - Restricted
 Rights clause in FAR 52.227-19.
  
 Gaussian, Inc.
 340 Quinnipiac St., Bldg. 40, Wallingford CT 06492
  
  
 ---------------------------------------------------------------
 Warning -- This program may not be used in any manner that
 competes with the business of Gaussian, Inc. or will provide
 assistance to any competitor of Gaussian, Inc.  The licensee
 of this program is prohibited from giving any competitor of
 Gaussian, Inc. access to this program.  By using this program,
 the user acknowledges that Gaussian, Inc. is engaged in the
 business of creating and licensing software in the field of
 computational chemistry and represents and warrants to the
 licensee that it is not a competitor of Gaussian, Inc. and that
 it will not use this program in any manner prohibited above.
 ---------------------------------------------------------------
  

 Cite this work as:
 Gaussian 16, Revision A.03,
 M. J. Frisch, G. W. Trucks, H. B. Schlegel, G. E. Scuseria, 
 M. A. Robb, J. R. Cheeseman, G. Scalmani, V. Barone, 
 G. A. Petersson, H. Nakatsuji, X. Li, M. Caricato, A. V. Marenich, 
 J. Bloino, B. G. Janesko, R. Gomperts, B. Mennucci, H. P. Hratchian, 
 J. V. Ortiz, A. F. Izmaylov, J. L. Sonnenberg, D. Williams-Young, 
 F. Ding, F. Lipparini, F. Egidi, J. Goings, B. Peng, A. Petrone, 
 T. Henderson, D. Ranasinghe, V. G. Zakrzewski, J. Gao, N. Rega, 
 G. Zheng, W. Liang, M. Hada, M. Ehara, K. Toyota, R. Fukuda, 
 J. Hasegawa, M. Ishida, T. Nakajima, Y. Honda, O. Kitao, H. Nakai, 
 T. Vreven, K. Throssell, J. A. Montgomery, Jr., J. E. Peralta, 
 F. Ogliaro, M. J. Bearpark, J. J. Heyd, E. N. Brothers, K. N. Kudin, 
 V. N. Staroverov, T. A. Keith, R. Kobayashi, J. Normand, 
 K. Raghavachari, A. P. Rendell, J. C. Burant, S. S. Iyengar, 
 J. Tomasi, M. Cossi, J. M. Millam, M. Klene, C. Adamo, R. Cammi, 
 J. W. Ochterski, R. L. Martin, K. Morokuma, O. Farkas, 
 J. B. Foresman, and D. J. Fox, Gaussian, Inc., Wallingford CT, 2016.
 
 ******************************************
 Gaussian 16:  EM64M-G16RevA.03 25-Dec-2016
                22-Feb-2024 
 ******************************************
 %nprocshared=10
 Will use up to   10 processors via shared memory.
 %mem=12GB
 %chk= 1.chk
 ---------------------
 # freq b3lyp/6-31g(d)
 ---------------------
 1/10=4,30=1,38=1/1,3;
 2/12=2,17=6,18=5,40=1/2;
 3/5=1,6=6,7=1,11=2,25=1,30=1,71=2,74=-5,140=1/1,2,3;
 4//1;
 5/5=2,38=5,98=1/2;
 8/6=4,10=90,11=11/1;
 11/6=1,8=1,9=11,15=111,16=1/1,2,10;
 10/6=1/2;
 6/7=2,8=2,9=2,10=2,28=1/1;
 7/8=1,10=1,25=1/1,2,3,16;
 1/10=4,30=1/3;
 99//99;
 ---------
 good luck
 ---------
 Symbolic Z-matrix:
 Charge =  0 Multiplicity = 1
 C                    -8.18339   0.79037   5.0543 
 C                    -8.21193   0.62076   3.52363 
 C                    -7.04999  -0.30321   3.05797 
 C                    -7.32426  -1.83896   3.03386 
 C                    -6.32057  -2.44286   2.00276 
 C                    -5.4342   -1.25053   1.59495 
 C                    -4.60136  -1.31865   0.30825 
 C                    -3.70589  -2.56934   0.26642 
 C                    -2.78039  -2.58477  -0.95753 
 C                    -1.93977  -1.29876  -1.08101 
 C                    -0.81981  -1.27916  -0.00589 
 C                     0.        0.        0. 
 C                    -0.82451   1.27562  -0.00589 
 C                    -1.886     1.22308  -1.12059 
 O                     1.21696   0.        0. 
 C                    -2.82919  -0.01031  -1.07562 
 C                    -3.74989  -0.01518   0.19562 
 C                    -4.62034   1.25649   0.34917 
 C                    -5.51875   1.24105   1.60479 
 C                    -6.3865   -0.02715   1.67291 
 C                    -7.43286  -0.01093   0.53734 
 C                    -3.66289   0.03803  -2.37771 
 C                    -9.62754   0.19703   3.09123 
 H                    -8.32767  -0.17311   5.56018 
 H                    -7.22728   1.20516   5.39467 
 H                    -8.98041   1.4629    5.39377 
 H                    -8.02101   1.6137    3.08874 
 H                    -6.23889  -0.14158   3.7838 
 H                    -8.35317  -2.05487   2.73158 
 H                    -7.19711  -2.27776   4.02933 
 H                    -6.85267  -2.85027   1.13383 
 H                    -5.7364   -3.26635   2.42614 
 H                    -4.70992  -1.11087   2.41596 
 H                    -5.28641  -1.37435  -0.54952 
 H                    -3.1109   -2.616     1.19046 
 H                    -4.32857  -3.47259   0.26526 
 H                    -2.11197  -3.45492  -0.91413 
 H                    -3.38473  -2.71211  -1.8648 
 H                    -1.4299   -1.32362  -2.05565 
 H                    -1.25666  -1.38555   0.99713 
 H                    -0.13894  -2.12437  -0.14992 
 H                    -1.30965   1.38014   0.97557 
 H                    -0.15204   2.12923  -0.13345 
 H                    -1.36215   1.20559  -2.08694 
 H                    -2.46926   2.1504   -1.117 
 H                    -3.08409  -0.03052   1.07333 
 H                    -3.97522   2.14148   0.40057 
 H                    -5.24498   1.39289  -0.54151 
 H                    -4.88296   1.28426   2.50171 
 H                    -6.13693   2.14938   1.6174 
 H                    -8.07433  -0.89768   0.54947 
 H                    -8.08113   0.86769   0.63002 
 H                    -6.97065   0.03702  -0.45267 
 H                    -4.18777   0.9942   -2.47745 
 H                    -3.0064   -0.06307  -3.25044 
 H                    -4.41213  -0.75585  -2.43836 
 H                    -9.71224   0.02452   2.01496 
 H                    -10.34838   0.97915   3.35841 
 H                    -9.94332  -0.72025   3.60236 
 

 GradGradGradGradGradGradGradGradGradGradGradGradGradGradGradGradGradGrad
 Berny optimization.
 Initialization pass.
 Trust Radius=3.00D-01 FncErr=1.00D-07 GrdErr=1.00D-07 EigMax=2.50D+02 EigMin=1.00D-04
 Number of steps in this run=      2 maximum allowed number of steps=      2.
 GradGradGradGradGradGradGradGradGradGradGradGradGradGradGradGradGradGrad

 Stoichiometry    C22H36O
 Framework group  C1[X(C22H36O)]
 Deg. of freedom   171
 Full point group                 C1      NOp   1
 Largest Abelian subgroup         C1      NOp   1
 Largest concise Abelian subgroup C1      NOp   1
                         Standard orientation:                         
 ---------------------------------------------------------------------
 Center     Atomic      Atomic             Coordinates (Angstroms)
 Number     Number       Type             X           Y           Z
 ---------------------------------------------------------------------
      1          6           0       -5.260874   -1.487094   -1.522990
      2          6           0       -4.539918   -0.973971   -0.262254
      3          6           0       -3.276998   -0.154395   -0.654676
      4          6           0       -3.469793    1.370462   -0.922954
      5          6           0       -2.078494    2.033459   -0.678025
      6          6           0       -1.133237    0.844541   -0.420025
      7          6           0        0.220260    1.075267    0.264568
      8          6           0        1.052256    2.153715   -0.451379
      9          6           0        2.455137    2.305618    0.151684
     10          6           0        3.220407    0.969225    0.215853
     11          6           0        3.678012    0.539086   -1.204066
     12          6           0        4.362530   -0.816792   -1.241460
     13          6           0        3.615140   -1.919143   -0.511201
     14          6           0        3.228609   -1.457164    0.906282
     15          8           0        5.426567   -0.999934   -1.802945
     16          6           0        2.410508   -0.138257    0.970000
     17          6           0        0.989361   -0.282020    0.319275
     18          6           0        0.124605   -1.409658    0.934941
     19          6           0       -1.269234   -1.543069    0.284275
     20          6           0       -2.031805   -0.207236    0.284216
     21          6           0       -2.396574    0.190992    1.730938
     22          6           0        2.311656    0.234658    2.467998
     23          6           0       -5.558293   -0.255471    0.641703
     24          1           0       -5.610095   -0.652254   -2.144376
     25          1           0       -4.599447   -2.107050   -2.139602
     26          1           0       -6.137777   -2.091091   -1.260298
     27          1           0       -4.185003   -1.860208    0.285580
     28          1           0       -2.923393   -0.595896   -1.598536
     29          1           0       -4.217914    1.801365   -0.251177
     30          1           0       -3.831094    1.548919   -1.941430
     31          1           0       -2.113135    2.701841    0.191586
     32          1           0       -1.754031    2.642553   -1.527937
     33          1           0       -0.901179    0.415753   -1.410197
     34          1           0        0.038395    1.425631    1.290395
     35          1           0        1.125612    1.900469   -1.519330
     36          1           0        0.529154    3.117058   -0.407304
     37          1           0        3.038540    3.032740   -0.428644
     38          1           0        2.369478    2.723971    1.162734
     39          1           0        4.139256    1.136467    0.797461
     40          1           0        2.812274    0.480773   -1.878825
     41          1           0        4.362580    1.282638   -1.625007
     42          1           0        2.712787   -2.168322   -1.088447
     43          1           0        4.245312   -2.813141   -0.482897
     44          1           0        4.155485   -1.300996    1.476425
     45          1           0        2.695575   -2.262730    1.423053
     46          1           0        1.146373   -0.565613   -0.733726
     47          1           0        0.643386   -2.370138    0.833120
     48          1           0        0.007088   -1.245847    2.012640
     49          1           0       -1.149129   -1.882842   -0.755289
     50          1           0       -1.836738   -2.327143    0.804409
     51          1           0       -2.942923    1.138282    1.776912
     52          1           0       -3.028519   -0.578031    2.189263
     53          1           0       -1.513627    0.298803    2.367211
     54          1           0        1.879092   -0.584135    3.052960
     55          1           0        3.311051    0.430206    2.875231
     56          1           0        1.704224    1.125200    2.650309
     57          1           0       -5.106640    0.166299    1.543600
     58          1           0       -6.336059   -0.960091    0.959974
     59          1           0       -6.061070    0.559516    0.107504
 ---------------------------------------------------------------------
 Rotational constants (GHZ):           0.5554300           0.1355434           0.1305375
 Standard basis: 6-31G(d) (6D, 7F)
 There are   417 symmetry adapted cartesian basis functions of A   symmetry.
 There are   417 symmetry adapted basis functions of A   symmetry.
   417 basis functions,   788 primitive gaussians,   417 cartesian basis functions
    88 alpha electrons       88 beta electrons
       nuclear repulsion energy      2160.1854412711 Hartrees.
 NAtoms=   59 NActive=   59 NUniq=   59 SFac= 1.00D+00 NAtFMM=   60 NAOKFM=F Big=F
 Integral buffers will be    131072 words long.
 Raffenetti 2 integral format.
 Two-electron integral symmetry is turned on.
 One-electron integrals computed using PRISM.
 NBasis=   417 RedAO= T EigKep=  1.74D-03  NBF=   417
 NBsUse=   417 1.00D-06 EigRej= -1.00D+00 NBFU=   417
 ExpMin= 1.61D-01 ExpMax= 5.48D+03 ExpMxC= 8.25D+02 IAcc=3 IRadAn=         5 AccDes= 0.00D+00
 Harris functional with IExCor=  402 and IRadAn=       5 diagonalized for initial guess.
 HarFok:  IExCor=  402 AccDes= 0.00D+00 IRadAn=         5 IDoV= 1 UseB2=F ITyADJ=14
 ICtDFT=  3500011 ScaDFX=  1.000000  1.000000  1.000000  1.000000
 FoFCou: FMM=F IPFlag=           0 FMFlag=      100000 FMFlg1=           0
         NFxFlg=           0 DoJE=T BraDBF=F KetDBF=T FulRan=T
         wScrn=  0.000000 ICntrl=       500 IOpCl=  0 I1Cent=   200000004 NGrid=           0
         NMat0=    1 NMatS0=      1 NMatT0=    0 NMatD0=    1 NMtDS0=    0 NMtDT0=    0
 Petite list used in FoFCou.
 Requested convergence on RMS density matrix=1.00D-08 within 128 cycles.
 Requested convergence on MAX density matrix=1.00D-06.
 Requested convergence on             energy=1.00D-06.
 No special actions if energy rises.
 Integral accuracy reduced to 1.0D-05 until final iterations.
 Initial convergence to 1.0D-05 achieved.  Increase integral accuracy.
 SCF Done:  E(RB3LYP) =  -935.266698012     A.U. after   14 cycles
            NFock= 14  Conv=0.36D-08     -V/T= 2.0099
 DoSCS=F DFT=T ScalE2(SS,OS)=  1.000000  1.000000
 Range of M.O.s used for correlation:     1   417
 NBasis=   417 NAE=    88 NBE=    88 NFC=     0 NFV=     0
 NROrb=    417 NOA=    88 NOB=    88 NVA=   329 NVB=   329
 Symmetrizing basis deriv contribution to polar:
 IMax=3 JMax=2 DiffMx= 0.00D+00
 G2DrvN: will do    60 centers at a time, making    1 passes.
 Calling FoFCou, ICntrl=  3107 FMM=F I1Cent=   0 AccDes= 0.00D+00.
 End of G2Drv F.D. properties file   721 does not exist.
 End of G2Drv F.D. properties file   722 does not exist.
 End of G2Drv F.D. properties file   788 does not exist.
          IDoAtm=11111111111111111111111111111111111111111111111111
          IDoAtm=111111111
          Differentiating once with respect to electric field.
                with respect to dipole field.
          Differentiating once with respect to nuclear coordinates.
 CalDSu exits because no D1Ps are significant.
          There are   180 degrees of freedom in the 1st order CPHF.  IDoFFX=6 NUNeed=     3.
    177 vectors produced by pass  0 Test12= 2.90D-14 1.00D-09 XBig12= 1.55D+02 1.81D+00.
 AX will form   177 AO Fock derivatives at one time.
    177 vectors produced by pass  1 Test12= 2.90D-14 1.00D-09 XBig12= 1.73D+01 1.02D+00.
    177 vectors produced by pass  2 Test12= 2.90D-14 1.00D-09 XBig12= 1.19D-01 2.92D-02.
    177 vectors produced by pass  3 Test12= 2.90D-14 1.00D-09 XBig12= 3.50D-04 2.12D-03.
    177 vectors produced by pass  4 Test12= 2.90D-14 1.00D-09 XBig12= 4.60D-07 7.77D-05.
     72 vectors produced by pass  5 Test12= 2.90D-14 1.00D-09 XBig12= 2.94D-10 1.11D-06.
      3 vectors produced by pass  6 Test12= 2.90D-14 1.00D-09 XBig12= 1.75D-13 2.51D-08.
      1 vectors produced by pass  7 Test12= 2.90D-14 1.00D-09 XBig12= 6.85D-17 1.19D-09.
 InvSVY:  IOpt=1 It=  1 EMax= 1.60D-14
 Solved reduced A of dimension   961 with   180 vectors.
 Isotropic polarizability for W=    0.000000      219.94 Bohr**3.
 End of Minotr F.D. properties file   721 does not exist.
 End of Minotr F.D. properties file   722 does not exist.
 End of Minotr F.D. properties file   788 does not exist.

 **********************************************************************

            Population analysis using the SCF density.

 **********************************************************************

 Orbital symmetries:
       Occupied  (A) (A) (A) (A) (A) (A) (A) (A) (A) (A) (A) (A)
                 (A) (A) (A) (A) (A) (A) (A) (A) (A) (A) (A) (A)
                 (A) (A) (A) (A) (A) (A) (A) (A) (A) (A) (A) (A)
                 (A) (A) (A) (A) (A) (A) (A) (A) (A) (A) (A) (A)
                 (A) (A) (A) (A) (A) (A) (A) (A) (A) (A) (A) (A)
                 (A) (A) (A) (A) (A) (A) (A) (A) (A) (A) (A) (A)
                 (A) (A) (A) (A) (A) (A) (A) (A) (A) (A) (A) (A)
                 (A) (A) (A) (A)
       Virtual   (A) (A) (A) (A) (A) (A) (A) (A) (A) (A) (A) (A)
                 (A) (A) (A) (A) (A) (A) (A) (A) (A) (A) (A) (A)
                 (A) (A) (A) (A) (A) (A) (A) (A) (A) (A) (A) (A)
                 (A) (A) (A) (A) (A) (A) (A) (A) (A) (A) (A) (A)
                 (A) (A) (A) (A) (A) (A) (A) (A) (A) (A) (A) (A)
                 (A) (A) (A) (A) (A) (A) (A) (A) (A) (A) (A) (A)
                 (A) (A) (A) (A) (A) (A) (A) (A) (A) (A) (A) (A)
                 (A) (A) (A) (A) (A) (A) (A) (A) (A) (A) (A) (A)
                 (A) (A) (A) (A) (A) (A) (A) (A) (A) (A) (A) (A)
                 (A) (A) (A) (A) (A) (A) (A) (A) (A) (A) (A) (A)
                 (A) (A) (A) (A) (A) (A) (A) (A) (A) (A) (A) (A)
                 (A) (A) (A) (A) (A) (A) (A) (A) (A) (A) (A) (A)
                 (A) (A) (A) (A) (A) (A) (A) (A) (A) (A) (A) (A)
                 (A) (A) (A) (A) (A) (A) (A) (A) (A) (A) (A) (A)
                 (A) (A) (A) (A) (A) (A) (A) (A) (A) (A) (A) (A)
                 (A) (A) (A) (A) (A) (A) (A) (A) (A) (A) (A) (A)
                 (A) (A) (A) (A) (A) (A) (A) (A) (A) (A) (A) (A)
                 (A) (A) (A) (A) (A) (A) (A) (A) (A) (A) (A) (A)
                 (A) (A) (A) (A) (A) (A) (A) (A) (A) (A) (A) (A)
                 (A) (A) (A) (A) (A) (A) (A) (A) (A) (A) (A) (A)
                 (A) (A) (A) (A) (A) (A) (A) (A) (A) (A) (A) (A)
                 (A) (A) (A) (A) (A) (A) (A) (A) (A) (A) (A) (A)
                 (A) (A) (A) (A) (A) (A) (A) (A) (A) (A) (A) (A)
                 (A) (A) (A) (A) (A) (A) (A) (A) (A) (A) (A) (A)
                 (A) (A) (A) (A) (A) (A) (A) (A) (A) (A) (A) (A)
                 (A) (A) (A) (A) (A) (A) (A) (A) (A) (A) (A) (A)
                 (A) (A) (A) (A) (A) (A) (A) (A) (A) (A) (A) (A)
                 (A) (A) (A) (A) (A)
 The electronic state is 1-A.
 Alpha  occ. eigenvalues --  -19.12876 -10.26476 -10.20121 -10.19439 -10.18898
 Alpha  occ. eigenvalues --  -10.18841 -10.18712 -10.18708 -10.18670 -10.18521
 Alpha  occ. eigenvalues --  -10.18426 -10.18200 -10.18113 -10.18016 -10.17963
 Alpha  occ. eigenvalues --  -10.17858 -10.17823 -10.17673 -10.17649 -10.17562
 Alpha  occ. eigenvalues --  -10.17200 -10.17095 -10.17007  -1.02754  -0.86688
 Alpha  occ. eigenvalues --   -0.84714  -0.80244  -0.78974  -0.77728  -0.76070
 Alpha  occ. eigenvalues --   -0.74884  -0.72559  -0.70850  -0.68310  -0.67954
 Alpha  occ. eigenvalues --   -0.67023  -0.66370  -0.63759  -0.61008  -0.59482
 Alpha  occ. eigenvalues --   -0.59059  -0.56835  -0.54259  -0.53330  -0.52056
 Alpha  occ. eigenvalues --   -0.50933  -0.47887  -0.47326  -0.46764  -0.46037
 Alpha  occ. eigenvalues --   -0.45700  -0.45229  -0.44769  -0.44140  -0.43362
 Alpha  occ. eigenvalues --   -0.42839  -0.42165  -0.41070  -0.40879  -0.40685
 Alpha  occ. eigenvalues --   -0.39961  -0.39060  -0.38755  -0.38587  -0.38155
 Alpha  occ. eigenvalues --   -0.38063  -0.37381  -0.37220  -0.36737  -0.36356
 Alpha  occ. eigenvalues --   -0.35322  -0.34794  -0.34542  -0.34288  -0.33874
 Alpha  occ. eigenvalues --   -0.33285  -0.33201  -0.32953  -0.32194  -0.31098
 Alpha  occ. eigenvalues --   -0.30711  -0.30401  -0.30136  -0.29835  -0.29279
 Alpha  occ. eigenvalues --   -0.27929  -0.26782  -0.23122
 Alpha virt. eigenvalues --   -0.00797   0.06812   0.07053   0.08302   0.08852
 Alpha virt. eigenvalues --    0.09690   0.10348   0.10654   0.11204   0.12168
 Alpha virt. eigenvalues --    0.12688   0.12782   0.13565   0.14039   0.14452
 Alpha virt. eigenvalues --    0.14724   0.14947   0.15278   0.15482   0.15912
 Alpha virt. eigenvalues --    0.16271   0.17093   0.17376   0.17623   0.18104
 Alpha virt. eigenvalues --    0.18268   0.18416   0.19416   0.19429   0.19690
 Alpha virt. eigenvalues --    0.20078   0.20692   0.21145   0.21541   0.21922
 Alpha virt. eigenvalues --    0.22189   0.22281   0.22667   0.22982   0.23773
 Alpha virt. eigenvalues --    0.24105   0.24476   0.24652   0.25139   0.25433
 Alpha virt. eigenvalues --    0.25781   0.26313   0.26701   0.26992   0.27669
 Alpha virt. eigenvalues --    0.28011   0.29497   0.29861   0.29944   0.30119
 Alpha virt. eigenvalues --    0.30817   0.32085   0.32905   0.33400   0.33993
 Alpha virt. eigenvalues --    0.35784   0.36378   0.37614   0.49652   0.49736
 Alpha virt. eigenvalues --    0.50055   0.50391   0.50831   0.51590   0.52533
 Alpha virt. eigenvalues --    0.53254   0.53804   0.54355   0.55302   0.56070
 Alpha virt. eigenvalues --    0.56890   0.58504   0.58907   0.59456   0.60403
 Alpha virt. eigenvalues --    0.60582   0.61568   0.62235   0.63066   0.63791
 Alpha virt. eigenvalues --    0.64570   0.65166   0.65532   0.66594   0.67140
 Alpha virt. eigenvalues --    0.67502   0.68453   0.69173   0.69551   0.69867
 Alpha virt. eigenvalues --    0.71006   0.71677   0.72468   0.73098   0.73965
 Alpha virt. eigenvalues --    0.74833   0.75579   0.75893   0.77088   0.77960
 Alpha virt. eigenvalues --    0.78359   0.80091   0.81439   0.81512   0.82308
 Alpha virt. eigenvalues --    0.82890   0.83721   0.83990   0.84764   0.85217
 Alpha virt. eigenvalues --    0.86052   0.86204   0.87032   0.87074   0.87257
 Alpha virt. eigenvalues --    0.88339   0.88671   0.88737   0.89193   0.89487
 Alpha virt. eigenvalues --    0.90447   0.90661   0.90971   0.91323   0.92056
 Alpha virt. eigenvalues --    0.92412   0.92745   0.93053   0.93700   0.94236
 Alpha virt. eigenvalues --    0.94633   0.94888   0.95188   0.96226   0.96677
 Alpha virt. eigenvalues --    0.97295   0.97386   0.97813   0.98464   0.98908
 Alpha virt. eigenvalues --    0.99300   0.99856   1.00468   1.01115   1.01747
 Alpha virt. eigenvalues --    1.02315   1.02621   1.03182   1.04101   1.04490
 Alpha virt. eigenvalues --    1.05088   1.07006   1.07412   1.08145   1.10839
 Alpha virt. eigenvalues --    1.11551   1.13656   1.14131   1.17284   1.17959
 Alpha virt. eigenvalues --    1.20859   1.21141   1.23277   1.24339   1.28621
 Alpha virt. eigenvalues --    1.29713   1.32294   1.33667   1.34654   1.36148
 Alpha virt. eigenvalues --    1.40551   1.41409   1.43282   1.43755   1.46169
 Alpha virt. eigenvalues --    1.48610   1.50936   1.51857   1.52335   1.54628
 Alpha virt. eigenvalues --    1.56874   1.57441   1.59414   1.60005   1.62038
 Alpha virt. eigenvalues --    1.63851   1.65372   1.66442   1.68304   1.70767
 Alpha virt. eigenvalues --    1.71297   1.72390   1.74019   1.74598   1.75492
 Alpha virt. eigenvalues --    1.76892   1.77935   1.78524   1.79846   1.80558
 Alpha virt. eigenvalues --    1.81540   1.81671   1.83031   1.83332   1.83896
 Alpha virt. eigenvalues --    1.85660   1.86714   1.86809   1.87526   1.87788
 Alpha virt. eigenvalues --    1.88728   1.90457   1.90613   1.91830   1.92410
 Alpha virt. eigenvalues --    1.93531   1.94379   1.95482   1.96384   1.96559
 Alpha virt. eigenvalues --    1.97924   1.98767   1.99152   2.00559   2.01284
 Alpha virt. eigenvalues --    2.02190   2.02713   2.03951   2.04287   2.05694
 Alpha virt. eigenvalues --    2.06492   2.06839   2.06952   2.08151   2.09475
 Alpha virt. eigenvalues --    2.10450   2.10636   2.11730   2.12688   2.14263
 Alpha virt. eigenvalues --    2.14966   2.16444   2.18398   2.19040   2.19789
 Alpha virt. eigenvalues --    2.21278   2.23104   2.23805   2.25691   2.26252
 Alpha virt. eigenvalues --    2.28081   2.28520   2.29188   2.30540   2.31031
 Alpha virt. eigenvalues --    2.31826   2.33197   2.35142   2.35797   2.36867
 Alpha virt. eigenvalues --    2.39346   2.39674   2.40795   2.41605   2.42412
 Alpha virt. eigenvalues --    2.43818   2.44745   2.45504   2.47644   2.48455
 Alpha virt. eigenvalues --    2.49265   2.50945   2.51944   2.53553   2.54700
 Alpha virt. eigenvalues --    2.56656   2.58901   2.59779   2.61106   2.62485
 Alpha virt. eigenvalues --    2.64963   2.65170   2.66054   2.68371   2.70129
 Alpha virt. eigenvalues --    2.71690   2.73106   2.75085   2.76327   2.80528
 Alpha virt. eigenvalues --    2.81340   2.82962   2.84559   2.86306   2.87583
 Alpha virt. eigenvalues --    2.89847   2.90919   2.94867   2.99371   3.01183
 Alpha virt. eigenvalues --    3.03151   4.01966   4.10763   4.13883   4.20268
 Alpha virt. eigenvalues --    4.23800   4.24610   4.26132   4.28558   4.30866
 Alpha virt. eigenvalues --    4.32269   4.36853   4.40624   4.43399   4.46398
 Alpha virt. eigenvalues --    4.54175   4.57061   4.58883   4.65183   4.66257
 Alpha virt. eigenvalues --    4.72155   4.77163   4.79733   4.82756
          Condensed to atoms (all electrons):
 Mulliken charges:
               1
     1  C   -0.450496
     2  C   -0.077373
     3  C   -0.080102
     4  C   -0.294775
     5  C   -0.290917
     6  C   -0.089265
     7  C   -0.098063
     8  C   -0.275973
     9  C   -0.273835
    10  C   -0.099228
    11  C   -0.360197
    12  C    0.451599
    13  C   -0.350966
    14  C   -0.292034
    15  O   -0.451622
    16  C    0.092633
    17  C   -0.097839
    18  C   -0.292346
    19  C   -0.276389
    20  C    0.084453
    21  C   -0.478906
    22  C   -0.473647
    23  C   -0.454135
    24  H    0.141779
    25  H    0.139572
    26  H    0.138561
    27  H    0.123770
    28  H    0.112353
    29  H    0.139974
    30  H    0.134479
    31  H    0.132250
    32  H    0.134544
    33  H    0.107403
    34  H    0.117996
    35  H    0.127707
    36  H    0.138054
    37  H    0.132744
    38  H    0.134454
    39  H    0.123320
    40  H    0.156698
    41  H    0.160159
    42  H    0.156652
    43  H    0.161049
    44  H    0.138793
    45  H    0.143568
    46  H    0.109453
    47  H    0.133404
    48  H    0.138493
    49  H    0.121817
    50  H    0.127207
    51  H    0.146761
    52  H    0.146654
    53  H    0.145408
    54  H    0.146479
    55  H    0.141844
    56  H    0.149103
    57  H    0.146381
    58  H    0.138023
    59  H    0.142517
 Sum of Mulliken charges =  -0.00000
 Mulliken charges with hydrogens summed into heavy atoms:
               1
     1  C   -0.030585
     2  C    0.046397
     3  C    0.032251
     4  C   -0.020322
     5  C   -0.024122
     6  C    0.018138
     7  C    0.019932
     8  C   -0.010211
     9  C   -0.006636
    10  C    0.024091
    11  C   -0.043340
    12  C    0.451599
    13  C   -0.033265
    14  C   -0.009673
    15  O   -0.451622
    16  C    0.092633
    17  C    0.011614
    18  C   -0.020448
    19  C   -0.027365
    20  C    0.084453
    21  C   -0.040083
    22  C   -0.036222
    23  C   -0.027215
 APT charges:
               1
     1  C    0.072554
     2  C    0.136420
     3  C    0.074299
     4  C    0.062807
     5  C    0.081526
     6  C    0.068468
     7  C    0.060311
     8  C    0.081414
     9  C    0.110776
    10  C    0.117910
    11  C   -0.092584
    12  C    0.762634
    13  C   -0.059640
    14  C    0.102618
    15  O   -0.681779
    16  C    0.080840
    17  C    0.050605
    18  C    0.083009
    19  C    0.100955
    20  C    0.045835
    21  C    0.019211
    22  C    0.018154
    23  C    0.043546
    24  H   -0.021611
    25  H   -0.028274
    26  H   -0.045559
    27  H   -0.071258
    28  H   -0.066587
    29  H   -0.035406
    30  H   -0.049597
    31  H   -0.043260
    32  H   -0.047665
    33  H   -0.061534
    34  H   -0.045786
    35  H   -0.037555
    36  H   -0.045442
    37  H   -0.064414
    38  H   -0.048960
    39  H   -0.078121
    40  H    0.008735
    41  H   -0.028093
    42  H   -0.001532
    43  H   -0.029011
    44  H   -0.050916
    45  H   -0.034980
    46  H   -0.052956
    47  H   -0.055301
    48  H   -0.029305
    49  H   -0.044626
    50  H   -0.063435
    51  H   -0.009984
    52  H   -0.019365
    53  H   -0.020636
    54  H   -0.012746
    55  H   -0.024721
    56  H   -0.011555
    57  H   -0.011468
    58  H   -0.038370
    59  H   -0.018596
 Sum of APT charges =   0.00000
 APT charges with hydrogens summed into heavy atoms:
               1
     1  C   -0.022891
     2  C    0.065162
     3  C    0.007712
     4  C   -0.022196
     5  C   -0.009399
     6  C    0.006934
     7  C    0.014525
     8  C   -0.001584
     9  C   -0.002599
    10  C    0.039789
    11  C   -0.111942
    12  C    0.762634
    13  C   -0.090183
    14  C    0.016722
    15  O   -0.681779
    16  C    0.080840
    17  C   -0.002351
    18  C   -0.001597
    19  C   -0.007106
    20  C    0.045835
    21  C   -0.030773
    22  C   -0.030867
    23  C   -0.024887
 Electronic spatial extent (au):  <R**2>=           9025.7204
 Charge=             -0.0000 electrons
 Dipole moment (field-independent basis, Debye):
    X=             -2.9019    Y=              0.6108    Z=              1.6707  Tot=              3.4037
 Quadrupole moment (field-independent basis, Debye-Ang):
   XX=           -169.6962   YY=           -143.2721   ZZ=           -147.2129
   XY=              5.0786   XZ=             10.9559   YZ=             -2.3153
 Traceless Quadrupole moment (field-independent basis, Debye-Ang):
   XX=            -16.3024   YY=             10.1216   ZZ=              6.1808
   XY=              5.0786   XZ=             10.9559   YZ=             -2.3153
 Octapole moment (field-independent basis, Debye-Ang**2):
  XXX=           -141.6823  YYY=             -6.0858  ZZZ=             -2.6297  XYY=              7.7688
  XXY=             32.3914  XXZ=             71.2298  XZZ=            -12.9543  YZZ=              3.8632
  YYZ=              0.8439  XYZ=            -11.9944
 Hexadecapole moment (field-independent basis, Debye-Ang**3):
 XXXX=         -10362.1492 YYYY=          -1693.8289 ZZZZ=          -1304.9454 XXXY=            201.6614
 XXXZ=            388.9031 YYYX=            -25.4467 YYYZ=              4.7922 ZZZX=              5.7988
 ZZZY=             -6.7643 XXYY=          -1831.8609 XXZZ=          -1905.1809 YYZZ=           -497.5635
 XXYZ=            -94.9906 YYXZ=            -10.1945 ZZXY=             15.7217
 N-N= 2.160185441271D+03 E-N=-6.485242130507D+03  KE= 9.261096055023D+02
  Exact polarizability: 264.376   0.165 204.209  -3.694  -2.903 191.246
 Approx polarizability: 325.470  -3.341 305.417 -10.537   0.546 307.671
 Calling FoFJK, ICntrl=    100127 FMM=F ISym2X=0 I1Cent= 0 IOpClX= 0 NMat=1 NMatS=1 NMatT=0.
 Full mass-weighted force constant matrix:
 Low frequencies ---   -6.8636    0.0003    0.0005    0.0008    1.8599    5.7340
 Low frequencies ---   35.4651   47.4741   64.0571
 Diagonal vibrational polarizability:
       17.0901090      11.2245041      26.2789771
 Harmonic frequencies (cm**-1), IR intensities (KM/Mole), Raman scattering
 activities (A**4/AMU), depolarization ratios for plane and unpolarized
 incident light, reduced masses (AMU), force constants (mDyne/A),
 and normal coordinates:
                      1                      2                      3
                      A                      A                      A
 Frequencies --     35.4620                47.4518                64.0454
 Red. masses --      5.0266                 2.9219                 3.1033
 Frc consts  --      0.0037                 0.0039                 0.0075
 IR Inten    --      1.0490                 0.3217                 0.2597
  Atom  AN      X      Y      Z        X      Y      Z        X      Y      Z
     1   6    -0.15   0.10   0.10     0.03  -0.17   0.13    -0.11   0.18  -0.07
     2   6    -0.05   0.03   0.07    -0.02   0.04   0.07    -0.03   0.00  -0.04
     3   6    -0.06   0.01   0.02    -0.01   0.00   0.00     0.01  -0.06  -0.01
     4   6    -0.05   0.02   0.05     0.02  -0.01  -0.06     0.04  -0.07  -0.12
     5   6    -0.03  -0.01  -0.01     0.02  -0.01  -0.06     0.03  -0.07  -0.09
     6   6    -0.03  -0.02  -0.06     0.00  -0.02  -0.02     0.01  -0.06  -0.00
     7   6    -0.01  -0.03  -0.09    -0.00  -0.02  -0.00    -0.00  -0.03   0.01
     8   6    -0.01  -0.04  -0.10     0.00  -0.01   0.03    -0.01  -0.03   0.01
     9   6    -0.03  -0.01  -0.05    -0.01  -0.02   0.06    -0.02  -0.01   0.02
    10   6    -0.01   0.00  -0.01    -0.01  -0.02   0.02    -0.01  -0.01  -0.00
    11   6     0.08   0.00   0.02     0.00   0.04   0.01    -0.04   0.02  -0.02
    12   6     0.13   0.03   0.09     0.03   0.06  -0.02     0.02   0.05  -0.03
    13   6     0.08   0.01   0.01     0.02   0.02  -0.08     0.04   0.02  -0.06
    14   6    -0.01  -0.01  -0.01    -0.00  -0.04  -0.07     0.03  -0.02  -0.04
    15   8     0.21   0.07   0.23     0.07   0.10   0.03     0.04   0.10  -0.00
    16   6    -0.03  -0.01  -0.04    -0.00  -0.05  -0.02     0.02  -0.03   0.00
    17   6    -0.01  -0.03  -0.09    -0.01  -0.03  -0.00    -0.00  -0.03   0.05
    18   6    -0.00  -0.06  -0.14    -0.02  -0.01   0.02    -0.02   0.02   0.13
    19   6    -0.02  -0.03  -0.11    -0.03  -0.00   0.03    -0.02  -0.02   0.14
    20   6    -0.01  -0.02  -0.04    -0.01   0.01   0.00    -0.02  -0.01   0.04
    21   6     0.07  -0.05  -0.02    -0.02   0.05  -0.01    -0.04   0.08   0.01
    22   6    -0.09  -0.02  -0.04     0.01  -0.10  -0.00     0.06  -0.05   0.01
    23   6     0.02   0.02   0.17    -0.06   0.18  -0.08     0.04  -0.02   0.06
    24   1    -0.17   0.14   0.16     0.06  -0.27  -0.02    -0.08   0.27   0.04
    25   1    -0.21   0.11   0.02     0.06  -0.27   0.26    -0.18   0.20  -0.16
    26   1    -0.15   0.12   0.13     0.02  -0.13   0.19    -0.14   0.22  -0.10
    27   1    -0.04  -0.00   0.01    -0.04   0.14   0.23    -0.07  -0.08  -0.13
    28   1    -0.11   0.02  -0.00    -0.03  -0.05   0.02     0.04  -0.13   0.04
    29   1    -0.01   0.02   0.09     0.01   0.04  -0.10     0.00  -0.02  -0.19
    30   1    -0.10   0.04   0.07     0.05  -0.04  -0.08     0.09  -0.14  -0.15
    31   1     0.02  -0.01  -0.01     0.01   0.01  -0.08    -0.01  -0.03  -0.13
    32   1    -0.06  -0.00  -0.02     0.04  -0.04  -0.07     0.06  -0.11  -0.11
    33   1    -0.06  -0.01  -0.08     0.01  -0.05  -0.00     0.03  -0.12   0.03
    34   1    -0.00  -0.02  -0.09    -0.01  -0.04   0.00    -0.01  -0.02   0.01
    35   1     0.02  -0.07  -0.09     0.02   0.01   0.03    -0.00  -0.02   0.01
    36   1    -0.02  -0.04  -0.14    -0.00  -0.01   0.04    -0.03  -0.03   0.01
    37   1    -0.02  -0.01  -0.04    -0.00   0.01   0.10    -0.03   0.01   0.04
    38   1    -0.07   0.00  -0.06    -0.03  -0.06   0.08    -0.04  -0.04   0.03
    39   1    -0.04   0.02   0.04    -0.01  -0.03   0.03     0.00  -0.01  -0.02
    40   1     0.11  -0.04  -0.02     0.00   0.03   0.01    -0.05  -0.02   0.00
    41   1     0.07   0.02   0.05    -0.01   0.06   0.03    -0.08   0.05  -0.04
    42   1     0.12   0.02  -0.05     0.03   0.04  -0.11     0.04   0.02  -0.06
    43   1     0.08   0.01   0.04     0.02   0.02  -0.11     0.05   0.03  -0.07
    44   1    -0.05  -0.01   0.05    -0.01  -0.07  -0.05     0.03  -0.03  -0.04
    45   1    -0.04  -0.01  -0.05    -0.01  -0.07  -0.11     0.04  -0.04  -0.07
    46   1     0.03  -0.00  -0.09    -0.02  -0.03  -0.01    -0.04  -0.09   0.06
    47   1    -0.01  -0.05  -0.20    -0.04  -0.02   0.03    -0.03   0.01   0.22
    48   1     0.02  -0.11  -0.13    -0.01   0.02   0.01    -0.02   0.12   0.12
    49   1    -0.05   0.01  -0.12    -0.05  -0.03   0.04    -0.02  -0.09   0.16
    50   1    -0.01  -0.04  -0.12    -0.04   0.02   0.06    -0.02   0.02   0.20
    51   1     0.07  -0.04   0.03     0.04   0.08  -0.03    -0.07   0.07  -0.06
    52   1     0.08  -0.05  -0.00    -0.09   0.09  -0.02    -0.02   0.09   0.05
    53   1     0.10  -0.07  -0.06    -0.03  -0.00   0.01    -0.05   0.14   0.01
    54   1    -0.11  -0.02  -0.06     0.05  -0.13  -0.02     0.13  -0.08   0.02
    55   1    -0.10  -0.02  -0.01     0.01  -0.08  -0.01     0.06   0.01  -0.03
    56   1    -0.09  -0.01  -0.06    -0.02  -0.13   0.04     0.01  -0.08   0.04
    57   1     0.09  -0.03   0.16    -0.09   0.34  -0.14     0.08  -0.13   0.09
    58   1     0.03   0.02   0.19    -0.06   0.22   0.02    -0.00   0.00   0.00
    59   1     0.01   0.05   0.24    -0.06   0.08  -0.23     0.08   0.07   0.15
                      4                      5                      6
                      A                      A                      A
 Frequencies --     69.4933               104.2942               113.3153
 Red. masses --      4.5789                 3.0531                 3.1704
 Frc consts  --      0.0130                 0.0196                 0.0240
 IR Inten    --      1.7243                 0.0887                 0.8110
  Atom  AN      X      Y      Z        X      Y      Z        X      Y      Z
     1   6     0.12  -0.04  -0.11    -0.04   0.07  -0.03    -0.05  -0.02   0.07
     2   6     0.01  -0.03  -0.05    -0.07   0.06  -0.02     0.04  -0.01   0.01
     3   6    -0.01   0.04   0.04    -0.00  -0.02   0.01     0.04  -0.05  -0.05
     4   6    -0.04   0.05   0.11     0.04  -0.02  -0.01     0.04  -0.06  -0.16
     5   6    -0.03   0.05   0.10     0.01  -0.02   0.12    -0.02   0.01   0.04
     6   6    -0.03   0.04   0.07    -0.01  -0.04   0.06     0.01   0.04   0.02
     7   6    -0.00   0.02   0.03    -0.00  -0.04   0.04    -0.00   0.05   0.06
     8   6    -0.01  -0.01  -0.03    -0.05  -0.02   0.02    -0.01   0.07   0.09
     9   6     0.02  -0.02  -0.10    -0.02   0.00  -0.07     0.03   0.02   0.02
    10   6    -0.00  -0.03  -0.11    -0.01   0.01  -0.07     0.00   0.00  -0.03
    11   6    -0.04  -0.07  -0.11    -0.07  -0.04  -0.07    -0.07  -0.02  -0.05
    12   6     0.04  -0.03  -0.01     0.02   0.00  -0.01    -0.08  -0.03  -0.00
    13   6    -0.03  -0.03  -0.09     0.10  -0.00   0.08    -0.16  -0.01  -0.07
    14   6    -0.03  -0.04  -0.09     0.07   0.05   0.05    -0.04  -0.00  -0.04
    15   8     0.17   0.03   0.22     0.02   0.04  -0.02     0.00  -0.03   0.16
    16   6     0.01  -0.02  -0.06     0.03   0.02  -0.00     0.01   0.02  -0.00
    17   6    -0.03   0.01   0.01     0.02  -0.03   0.01     0.00   0.05   0.02
    18   6    -0.03   0.05   0.08     0.03  -0.05  -0.01     0.03   0.02  -0.02
    19   6    -0.03   0.04   0.09     0.03  -0.05  -0.02     0.05   0.00  -0.07
    20   6    -0.03   0.04   0.07    -0.01  -0.07   0.02     0.03  -0.01  -0.04
    21   6    -0.06   0.05   0.06    -0.03  -0.14   0.03    -0.00  -0.07  -0.03
    22   6     0.09   0.00  -0.06     0.03   0.09  -0.02     0.06   0.03  -0.00
    23   6    -0.07  -0.10  -0.09    -0.07   0.17  -0.10     0.09   0.02   0.06
    24   1     0.11  -0.04  -0.11     0.07   0.07  -0.09    -0.08  -0.02   0.08
    25   1     0.19   0.01  -0.08    -0.07  -0.02   0.03    -0.10  -0.04   0.03
    26   1     0.13  -0.09  -0.18    -0.12   0.16  -0.06    -0.04  -0.00   0.13
    27   1     0.02  -0.03  -0.05    -0.15   0.06   0.04     0.05  -0.01   0.01
    28   1     0.04   0.10   0.03    -0.01  -0.05   0.01     0.03  -0.12  -0.02
    29   1    -0.02   0.01   0.16    -0.02  -0.01  -0.08    -0.09  -0.04  -0.33
    30   1    -0.08   0.09   0.14     0.14  -0.02  -0.04     0.23  -0.13  -0.24
    31   1    -0.02   0.04   0.11    -0.04  -0.10   0.18    -0.15  -0.08   0.10
    32   1    -0.05   0.06   0.10     0.05   0.06   0.19     0.02   0.11   0.13
    33   1    -0.06   0.05   0.06    -0.02  -0.00   0.04     0.05   0.08   0.01
    34   1     0.04   0.04   0.03     0.01  -0.06   0.05    -0.02   0.01   0.07
    35   1    -0.07  -0.03  -0.02    -0.10  -0.02   0.01    -0.06   0.13   0.07
    36   1     0.01   0.01  -0.02    -0.06  -0.03   0.05     0.01   0.08   0.17
    37   1     0.00  -0.04  -0.14    -0.06  -0.01  -0.12     0.02   0.02  -0.00
    38   1     0.07  -0.01  -0.10     0.04   0.03  -0.08     0.10   0.01   0.03
    39   1     0.02  -0.04  -0.14     0.01   0.03  -0.11     0.04  -0.02  -0.08
    40   1    -0.06  -0.15  -0.08    -0.11  -0.13  -0.02    -0.10  -0.02  -0.01
    41   1    -0.09  -0.05  -0.16    -0.14  -0.02  -0.15    -0.07  -0.04  -0.09
    42   1    -0.03   0.03  -0.11     0.12  -0.10   0.10    -0.21   0.09  -0.03
    43   1    -0.07  -0.06  -0.09     0.17   0.05   0.13    -0.23  -0.06  -0.12
    44   1    -0.02  -0.08  -0.09     0.06   0.10   0.06     0.00  -0.04  -0.10
    45   1    -0.05  -0.03  -0.10     0.09   0.05   0.08    -0.04   0.02   0.01
    46   1    -0.09  -0.01   0.01     0.02  -0.01   0.01    -0.01   0.09   0.01
    47   1    -0.05   0.04   0.12     0.04  -0.04  -0.04     0.05   0.03  -0.04
    48   1    -0.02   0.11   0.07     0.03  -0.08  -0.01     0.00  -0.02  -0.02
    49   1    -0.04   0.02   0.10     0.04  -0.02  -0.03     0.10   0.05  -0.08
    50   1    -0.03   0.05   0.11     0.04  -0.08  -0.04     0.05  -0.03  -0.12
    51   1    -0.09   0.03   0.05    -0.01  -0.13   0.07    -0.05  -0.10  -0.01
    52   1    -0.05   0.03   0.06    -0.06  -0.15  -0.03     0.04  -0.12  -0.05
    53   1    -0.07   0.07   0.07    -0.04  -0.19   0.06    -0.01  -0.04  -0.02
    54   1     0.11   0.01  -0.03     0.03   0.11   0.02     0.01   0.05   0.00
    55   1     0.12  -0.02  -0.11     0.04   0.10  -0.03     0.08  -0.04  -0.02
    56   1     0.12   0.01  -0.04     0.04   0.10  -0.05     0.12   0.07   0.01
    57   1    -0.14  -0.12  -0.05    -0.08   0.21  -0.11     0.14   0.05   0.02
    58   1    -0.07  -0.14  -0.16    -0.11   0.23  -0.07     0.11   0.03   0.13
    59   1    -0.07  -0.10  -0.09    -0.02   0.15  -0.17     0.06   0.00   0.06
                      7                      8                      9
                      A                      A                      A
 Frequencies --    136.3048               150.3967               193.2841
 Red. masses --      2.7861                 2.5366                 3.0306
 Frc consts  --      0.0305                 0.0338                 0.0667
 IR Inten    --      0.8078                 0.5489                 0.0381
  Atom  AN      X      Y      Z        X      Y      Z        X      Y      Z
     1   6    -0.03   0.02  -0.02    -0.02  -0.05   0.04    -0.12  -0.03   0.02
     2   6    -0.05  -0.00  -0.00     0.02  -0.01  -0.00    -0.07  -0.02  -0.01
     3   6    -0.01  -0.04   0.02    -0.01   0.02  -0.04    -0.06  -0.01  -0.02
     4   6    -0.01  -0.05  -0.04    -0.01   0.01  -0.12    -0.07  -0.01   0.04
     5   6    -0.05  -0.01   0.09    -0.07   0.07   0.12    -0.03  -0.02  -0.13
     6   6    -0.03  -0.00   0.05    -0.03   0.08   0.02    -0.01   0.01  -0.00
     7   6    -0.01   0.01   0.00    -0.00   0.03   0.00    -0.02   0.04   0.08
     8   6    -0.00  -0.04  -0.07     0.02   0.00  -0.01    -0.00   0.10   0.17
     9   6    -0.02   0.02  -0.05     0.03  -0.03  -0.00     0.07   0.00   0.05
    10   6     0.04   0.05   0.04     0.01  -0.04  -0.00     0.06  -0.01  -0.03
    11   6     0.23   0.08   0.09     0.02  -0.04   0.00     0.08  -0.02  -0.02
    12   6     0.06  -0.00   0.00     0.08  -0.01   0.00     0.08  -0.04  -0.01
    13   6    -0.08   0.04  -0.07     0.15  -0.03   0.06     0.07  -0.02   0.02
    14   6    -0.01   0.01  -0.05     0.00  -0.03   0.02     0.02  -0.00  -0.00
    15   8     0.02  -0.11  -0.03     0.03   0.02  -0.09     0.06  -0.07  -0.03
    16   6     0.01   0.02  -0.01    -0.01  -0.03  -0.01     0.04   0.02  -0.01
    17   6     0.00   0.02   0.00    -0.02   0.00  -0.01     0.01   0.05   0.01
    18   6     0.02   0.02   0.02    -0.05   0.05   0.03     0.01   0.03  -0.02
    19   6     0.01  -0.01   0.04    -0.03   0.05  -0.01     0.00   0.02  -0.02
    20   6    -0.02  -0.02   0.04    -0.03   0.05  -0.02    -0.04  -0.00  -0.02
    21   6    -0.05  -0.04   0.04    -0.08   0.03  -0.02    -0.09  -0.02  -0.03
    22   6     0.03  -0.00   0.00    -0.02  -0.03  -0.01     0.10   0.05  -0.02
    23   6    -0.05   0.04  -0.04     0.03  -0.06   0.05    -0.09  -0.03  -0.00
    24   1     0.03   0.03  -0.04    -0.14  -0.08   0.07    -0.21  -0.03   0.06
    25   1    -0.05  -0.02   0.00    -0.02   0.00  -0.01    -0.13   0.02  -0.04
    26   1    -0.07   0.07  -0.04     0.04  -0.13   0.10    -0.07  -0.08   0.07
    27   1    -0.09  -0.01   0.01     0.08   0.00  -0.02    -0.07  -0.02  -0.01
    28   1     0.00  -0.08   0.04     0.00  -0.03  -0.02    -0.08   0.01  -0.04
    29   1    -0.09  -0.04  -0.15    -0.16   0.02  -0.29     0.04  -0.03   0.16
    30   1     0.11  -0.09  -0.09     0.21  -0.04  -0.20    -0.22   0.03   0.10
    31   1    -0.12  -0.09   0.14    -0.19  -0.09   0.24     0.02   0.13  -0.24
    32   1    -0.02   0.07   0.15    -0.04   0.24   0.26    -0.05  -0.16  -0.24
    33   1    -0.05   0.01   0.03    -0.06   0.14  -0.01     0.06  -0.02   0.03
    34   1     0.03   0.05  -0.00     0.03   0.03   0.01    -0.07  -0.04   0.09
    35   1     0.01  -0.14  -0.05     0.02  -0.01  -0.00    -0.09   0.22   0.14
    36   1    -0.00  -0.04  -0.17     0.05   0.02  -0.01     0.04   0.12   0.32
    37   1    -0.02   0.01  -0.08     0.04  -0.04   0.00     0.03   0.00   0.00
    38   1    -0.06   0.07  -0.08     0.03  -0.03  -0.00     0.20  -0.01   0.07
    39   1    -0.03   0.10   0.14     0.00  -0.05   0.01     0.07  -0.03  -0.03
    40   1     0.32   0.25  -0.06     0.01  -0.09   0.01     0.09  -0.02  -0.04
    41   1     0.37   0.04   0.25    -0.02  -0.02  -0.02     0.10  -0.03  -0.01
    42   1    -0.11   0.19  -0.09     0.22  -0.14   0.00     0.09  -0.03  -0.00
    43   1    -0.18  -0.04  -0.13     0.23   0.03   0.13     0.07  -0.01   0.05
    44   1     0.02  -0.01  -0.08    -0.06  -0.02   0.11     0.01  -0.01   0.03
    45   1    -0.00   0.02  -0.04    -0.04  -0.04  -0.04    -0.00   0.01  -0.02
    46   1    -0.00   0.03   0.00    -0.04  -0.02  -0.00     0.00   0.09  -0.00
    47   1     0.02   0.02   0.04    -0.07   0.03   0.09     0.01   0.04  -0.03
    48   1     0.02   0.04   0.02    -0.08   0.10   0.02     0.01   0.02  -0.02
    49   1     0.01  -0.01   0.04     0.01   0.07  -0.02     0.01   0.02  -0.02
    50   1     0.03  -0.02   0.05    -0.04   0.04  -0.05     0.03  -0.00  -0.03
    51   1    -0.09  -0.07   0.04    -0.20  -0.04  -0.04    -0.03   0.01  -0.04
    52   1    -0.02  -0.07   0.03     0.03  -0.04  -0.00    -0.16   0.01  -0.09
    53   1    -0.06  -0.01   0.04    -0.09   0.16  -0.03    -0.12  -0.10   0.02
    54   1    -0.06   0.02  -0.02     0.02  -0.06  -0.01     0.06   0.09   0.01
    55   1     0.04  -0.10   0.02    -0.03   0.01  -0.01     0.13  -0.01  -0.05
    56   1     0.10   0.05   0.01    -0.07  -0.06  -0.00     0.17   0.09  -0.02
    57   1    -0.06   0.04  -0.03     0.05  -0.05   0.03    -0.11  -0.05   0.02
    58   1    -0.07   0.06  -0.04     0.07  -0.09   0.07    -0.09  -0.04  -0.04
    59   1    -0.03   0.03  -0.06    -0.02  -0.07   0.08    -0.08  -0.02   0.00
                     10                     11                     12
                      A                      A                      A
 Frequencies --    197.0235               220.5236               230.2616
 Red. masses --      2.4958                 1.2628                 1.2386
 Frc consts  --      0.0571                 0.0362                 0.0387
 IR Inten    --      0.0287                 0.0263                 0.0912
  Atom  AN      X      Y      Z        X      Y      Z        X      Y      Z
     1   6    -0.08  -0.04   0.04    -0.01   0.02  -0.01     0.02   0.03  -0.02
     2   6    -0.01   0.02  -0.03    -0.02  -0.01   0.01     0.01  -0.02   0.01
     3   6    -0.02   0.02  -0.07    -0.01  -0.03   0.01     0.00  -0.03   0.01
     4   6    -0.01   0.06   0.09    -0.03  -0.03   0.03    -0.04  -0.03   0.02
     5   6     0.03   0.01   0.02    -0.04  -0.01   0.02    -0.05  -0.00  -0.02
     6   6     0.02  -0.01  -0.04    -0.01   0.01  -0.03    -0.01   0.02  -0.01
     7   6     0.01  -0.01  -0.02     0.01   0.02  -0.04    -0.01   0.03  -0.00
     8   6     0.02  -0.06  -0.08     0.03   0.03  -0.00     0.01   0.01  -0.02
     9   6    -0.02  -0.01  -0.02     0.02   0.00   0.05     0.01  -0.00  -0.00
    10   6     0.00   0.01   0.02     0.01  -0.00  -0.01     0.00  -0.01   0.01
    11   6    -0.02   0.01   0.01     0.00  -0.01  -0.01    -0.01  -0.02   0.01
    12   6    -0.02   0.02  -0.00    -0.01  -0.01  -0.00     0.01  -0.00   0.00
    13   6    -0.03   0.01  -0.02    -0.01  -0.01   0.00     0.03  -0.01   0.00
    14   6     0.03  -0.00   0.00     0.00   0.01  -0.00    -0.03  -0.02  -0.00
    15   8    -0.01   0.03   0.01     0.00  -0.03   0.01     0.00   0.02  -0.02
    16   6     0.03   0.00   0.05     0.01   0.01  -0.01    -0.00  -0.01   0.01
    17   6     0.01  -0.01   0.09     0.01   0.02  -0.02    -0.01   0.02   0.02
    18   6    -0.04   0.06   0.14     0.02   0.04   0.02    -0.01   0.03   0.02
    19   6     0.05  -0.01  -0.06     0.04   0.00   0.00     0.02   0.01  -0.02
    20   6     0.00  -0.03  -0.09     0.01  -0.01  -0.01     0.01   0.00  -0.01
    21   6    -0.05  -0.08  -0.10     0.02  -0.01  -0.01     0.02  -0.01  -0.00
    22   6     0.10  -0.01   0.06    -0.02  -0.02  -0.00     0.02  -0.02   0.01
    23   6     0.02   0.02   0.00    -0.03   0.01  -0.01     0.02   0.00   0.01
    24   1    -0.22  -0.07   0.07     0.14   0.03  -0.07     0.41   0.07  -0.19
    25   1    -0.10   0.01  -0.03    -0.05  -0.10   0.06    -0.10  -0.28   0.17
    26   1    -0.01  -0.11   0.13    -0.11   0.15  -0.04    -0.23   0.37  -0.07
    27   1     0.03   0.03  -0.02    -0.05  -0.02   0.02    -0.02  -0.03   0.00
    28   1    -0.07   0.10  -0.13    -0.02  -0.02   0.01     0.00  -0.02   0.00
    29   1     0.07  -0.00   0.22    -0.03  -0.05   0.03    -0.03  -0.06   0.05
    30   1    -0.12   0.18   0.16    -0.04  -0.03   0.03    -0.08  -0.03   0.03
    31   1     0.10   0.01   0.03    -0.04  -0.03   0.04    -0.05   0.02  -0.04
    32   1    -0.01   0.01   0.01    -0.07   0.03   0.03    -0.08  -0.02  -0.04
    33   1     0.03   0.03  -0.05    -0.02   0.02  -0.04    -0.00   0.02  -0.01
    34   1     0.00   0.06  -0.04    -0.00   0.02  -0.04    -0.01   0.05  -0.01
    35   1     0.07  -0.16  -0.06     0.06   0.06  -0.01     0.02  -0.01  -0.01
    36   1     0.01  -0.07  -0.19     0.04   0.04   0.01     0.03   0.02  -0.04
    37   1    -0.00  -0.00  -0.00     0.03   0.04   0.11     0.02  -0.02  -0.01
    38   1    -0.08   0.00  -0.03    -0.01  -0.07   0.07     0.01   0.01  -0.01
    39   1     0.01   0.03   0.00     0.02  -0.02  -0.01     0.00  -0.01   0.01
    40   1    -0.04  -0.00   0.03    -0.00  -0.00  -0.01    -0.03  -0.04   0.03
    41   1    -0.04   0.01  -0.00     0.00  -0.01  -0.02    -0.04  -0.01  -0.01
    42   1    -0.05   0.04   0.00    -0.02  -0.00   0.01     0.05  -0.04  -0.02
    43   1    -0.05  -0.00  -0.05    -0.02  -0.01   0.00     0.05   0.00   0.03
    44   1     0.05  -0.01  -0.03     0.01   0.02  -0.00    -0.04  -0.05   0.03
    45   1     0.05  -0.01   0.01     0.01   0.01   0.01    -0.05  -0.03  -0.03
    46   1     0.00  -0.09   0.11     0.01  -0.00  -0.02    -0.02   0.02   0.02
    47   1    -0.02   0.05   0.32     0.03   0.04   0.07     0.00   0.03   0.04
    48   1    -0.19   0.19   0.10     0.01   0.10   0.01    -0.04   0.04   0.01
    49   1     0.21   0.03  -0.06     0.06   0.00   0.00     0.05   0.04  -0.02
    50   1     0.01  -0.05  -0.17     0.04  -0.00  -0.00     0.01  -0.01  -0.05
    51   1    -0.19  -0.16  -0.10    -0.03  -0.04  -0.01     0.03  -0.00   0.01
    52   1     0.06  -0.17  -0.10     0.06  -0.04   0.01     0.02  -0.01  -0.00
    53   1    -0.08   0.06  -0.09     0.02   0.04  -0.02     0.02  -0.02  -0.01
    54   1     0.12  -0.01   0.07     0.44  -0.23   0.04    -0.17   0.05  -0.02
    55   1     0.12  -0.02   0.01    -0.08   0.48  -0.10     0.05  -0.24   0.05
    56   1     0.12  -0.01   0.09    -0.44  -0.32   0.06     0.20   0.10   0.01
    57   1     0.04   0.03  -0.02    -0.03   0.04  -0.02     0.08   0.24  -0.13
    58   1     0.03   0.02   0.03    -0.03   0.01   0.00     0.17  -0.05   0.25
    59   1    -0.00   0.01   0.01    -0.03  -0.01  -0.04    -0.17  -0.17  -0.08
                     13                     14                     15
                      A                      A                      A
 Frequencies --    235.7961               253.8823               256.8201
 Red. masses --      1.5962                 1.6888                 2.1357
 Frc consts  --      0.0523                 0.0641                 0.0830
 IR Inten    --      0.0988                 0.1382                 0.1070
  Atom  AN      X      Y      Z        X      Y      Z        X      Y      Z
     1   6    -0.01  -0.00   0.00     0.08   0.00   0.02    -0.06  -0.02   0.00
     2   6     0.06   0.00  -0.04     0.04   0.01   0.03    -0.02  -0.02  -0.01
     3   6     0.02   0.02  -0.05     0.02   0.01  -0.01    -0.01  -0.02  -0.02
     4   6     0.02   0.04   0.03     0.02   0.01   0.02     0.01   0.00   0.06
     5   6     0.04   0.01   0.01     0.04  -0.01  -0.04     0.01  -0.02   0.11
     6   6     0.00  -0.02   0.02     0.01  -0.01   0.01     0.03  -0.04  -0.06
     7   6    -0.02  -0.03   0.04    -0.02  -0.01   0.03     0.04  -0.06  -0.06
     8   6    -0.05  -0.01   0.04    -0.04   0.02   0.05     0.03   0.03   0.06
     9   6    -0.03  -0.00  -0.02    -0.01   0.00  -0.02     0.04   0.01   0.06
    10   6    -0.02   0.01  -0.02    -0.02  -0.01  -0.02     0.03  -0.00  -0.00
    11   6     0.05   0.02  -0.01     0.04   0.01  -0.01     0.00   0.02  -0.02
    12   6     0.02  -0.00  -0.00     0.03  -0.00  -0.00    -0.02   0.00  -0.01
    13   6    -0.00   0.02  -0.01     0.01   0.01  -0.01    -0.03   0.01  -0.01
    14   6     0.00   0.02  -0.01    -0.04  -0.00  -0.02     0.04   0.02   0.01
    15   8     0.02  -0.03  -0.01     0.02  -0.02  -0.02    -0.00  -0.01   0.02
    16   6    -0.02   0.00  -0.02    -0.04  -0.00  -0.03     0.01  -0.00  -0.03
    17   6    -0.02  -0.03   0.00    -0.04  -0.01   0.00     0.03  -0.05  -0.06
    18   6    -0.02  -0.03   0.02    -0.04   0.02   0.05     0.01   0.01   0.03
    19   6    -0.04  -0.02   0.04    -0.00  -0.01  -0.01    -0.00  -0.04   0.06
    20   6    -0.02  -0.01  -0.01    -0.00  -0.01  -0.01     0.02  -0.03  -0.04
    21   6    -0.05   0.00  -0.01    -0.06  -0.07  -0.01    -0.01   0.10  -0.08
    22   6    -0.03   0.03  -0.03    -0.08   0.03  -0.04    -0.09   0.05  -0.06
    23   6     0.11   0.01   0.01     0.07   0.03   0.04    -0.03  -0.01  -0.01
    24   1    -0.04  -0.01   0.01     0.30  -0.01  -0.12     0.04  -0.02  -0.06
    25   1    -0.05  -0.01  -0.03     0.05  -0.17   0.16    -0.12  -0.13   0.05
    26   1     0.00   0.00   0.06    -0.05   0.18  -0.02    -0.13   0.10   0.03
    27   1     0.09   0.01  -0.07     0.04   0.02   0.04    -0.03  -0.02  -0.01
    28   1     0.04   0.06  -0.06     0.01   0.02  -0.02    -0.04   0.01  -0.05
    29   1     0.04   0.00   0.07     0.07   0.02   0.06     0.00  -0.03   0.07
    30   1    -0.01   0.09   0.05    -0.03   0.03   0.04     0.03   0.07   0.07
    31   1     0.06   0.02   0.00     0.06   0.04  -0.07     0.04  -0.14   0.21
    32   1     0.05  -0.02   0.00     0.05  -0.06  -0.07    -0.02   0.11   0.19
    33   1     0.01  -0.01   0.02     0.03  -0.02   0.02    -0.02   0.02  -0.09
    34   1    -0.03  -0.06   0.04    -0.04  -0.03   0.03     0.01  -0.13  -0.04
    35   1    -0.09   0.01   0.03    -0.09   0.06   0.04     0.04   0.17   0.03
    36   1    -0.07  -0.02   0.08    -0.04   0.02   0.12     0.01   0.02   0.18
    37   1    -0.06  -0.00  -0.05    -0.03  -0.02  -0.06     0.04   0.03   0.09
    38   1     0.01   0.01  -0.02     0.04   0.02  -0.02     0.06  -0.03   0.08
    39   1    -0.04   0.02   0.00    -0.04  -0.01   0.00     0.03  -0.04  -0.00
    40   1     0.08   0.05  -0.06     0.07   0.02  -0.05    -0.01   0.05  -0.01
    41   1     0.08   0.01   0.04     0.06   0.01   0.03     0.02   0.01  -0.01
    42   1    -0.01   0.04  -0.01     0.03   0.01  -0.04    -0.06   0.03   0.03
    43   1    -0.03   0.00  -0.01     0.01   0.01   0.01    -0.04  -0.00  -0.04
    44   1    -0.00   0.03  -0.01    -0.06  -0.02   0.02     0.07   0.07  -0.05
    45   1     0.01   0.01  -0.00    -0.06  -0.01  -0.05     0.09   0.02   0.06
    46   1    -0.04  -0.02  -0.00    -0.07  -0.02   0.00     0.02  -0.10  -0.05
    47   1    -0.03  -0.03   0.01    -0.03   0.02   0.14     0.00  -0.01   0.13
    48   1     0.01  -0.03   0.02    -0.10   0.10   0.03     0.01   0.12   0.01
    49   1    -0.06  -0.07   0.06     0.05   0.01  -0.01    -0.03  -0.14   0.09
    50   1    -0.05   0.01   0.09    -0.02  -0.03  -0.05     0.00   0.02   0.16
    51   1     0.11   0.09  -0.00    -0.25  -0.18  -0.02    -0.12   0.03  -0.19
    52   1    -0.19   0.08  -0.08     0.10  -0.19   0.00     0.09   0.08   0.02
    53   1    -0.06  -0.17   0.04    -0.08   0.12  -0.01    -0.01   0.29  -0.10
    54   1     0.14  -0.03   0.01    -0.08   0.03  -0.03    -0.35   0.17  -0.08
    55   1    -0.05   0.23  -0.07    -0.09   0.06  -0.01    -0.09  -0.17   0.06
    56   1    -0.18  -0.07  -0.03    -0.10   0.02  -0.08     0.10   0.20  -0.16
    57   1     0.22   0.35  -0.21     0.05  -0.27   0.20    -0.03   0.01  -0.02
    58   1     0.34  -0.08   0.38    -0.12   0.13  -0.22    -0.01  -0.02  -0.00
    59   1    -0.19  -0.24  -0.09     0.31   0.26   0.16    -0.04  -0.03  -0.02
                     16                     17                     18
                      A                      A                      A
 Frequencies --    267.0093               285.3118               290.3184
 Red. masses --      1.9977                 2.5040                 2.5006
 Frc consts  --      0.0839                 0.1201                 0.1242
 IR Inten    --      0.1199                 0.0423                 0.0530
  Atom  AN      X      Y      Z        X      Y      Z        X      Y      Z
     1   6     0.03  -0.01   0.01    -0.03  -0.04  -0.03     0.01   0.01  -0.00
     2   6    -0.02   0.02   0.03     0.01  -0.03  -0.05    -0.02   0.01   0.01
     3   6    -0.04   0.05  -0.01     0.00  -0.03  -0.03    -0.01   0.00   0.01
     4   6     0.02   0.06  -0.05    -0.05  -0.03   0.04     0.01   0.00  -0.02
     5   6     0.04   0.02   0.01    -0.07  -0.00   0.06     0.01  -0.01   0.01
     6   6     0.00  -0.01  -0.01    -0.03   0.01  -0.03     0.01  -0.01  -0.02
     7   6    -0.00  -0.05   0.02    -0.06  -0.01   0.03     0.01  -0.01  -0.01
     8   6    -0.03  -0.05   0.01    -0.08   0.00   0.04     0.09  -0.06   0.00
     9   6    -0.04  -0.01   0.00    -0.07  -0.01  -0.00     0.07  -0.05   0.06
    10   6    -0.00   0.01  -0.00    -0.04   0.00  -0.01     0.03  -0.06   0.01
    11   6     0.01   0.02  -0.00     0.03   0.00   0.01     0.02   0.03  -0.01
    12   6    -0.01   0.00  -0.00     0.03  -0.00   0.02     0.01   0.05  -0.00
    13   6    -0.02   0.01   0.00     0.03  -0.01   0.01    -0.02   0.04  -0.02
    14   6     0.07   0.03   0.02    -0.05  -0.03  -0.00    -0.15  -0.07   0.00
    15   8    -0.01  -0.01   0.02     0.01  -0.02  -0.02    -0.00   0.05  -0.03
    16   6     0.04  -0.00   0.03    -0.01  -0.00   0.01    -0.03  -0.01   0.01
    17   6     0.02  -0.04   0.02    -0.03  -0.00   0.04    -0.03  -0.02   0.03
    18   6    -0.01  -0.07  -0.06    -0.01  -0.05  -0.00    -0.04  -0.03   0.04
    19   6    -0.04   0.01  -0.04    -0.01  -0.02  -0.01    -0.02  -0.02  -0.01
    20   6    -0.03   0.02  -0.03     0.01  -0.01  -0.04     0.01  -0.01  -0.01
    21   6    -0.05   0.06  -0.05     0.16   0.13  -0.04     0.05  -0.04   0.01
    22   6     0.11   0.02   0.03     0.13   0.02   0.02     0.02   0.22  -0.04
    23   6    -0.06  -0.09   0.07     0.10   0.08  -0.05    -0.05  -0.03   0.01
    24   1     0.36  -0.03  -0.20    -0.04  -0.05  -0.04     0.01   0.01   0.00
    25   1    -0.04  -0.31   0.24    -0.05  -0.06  -0.03     0.02   0.02   0.01
    26   1    -0.18   0.28  -0.02    -0.03  -0.02   0.01     0.01  -0.00  -0.02
    27   1     0.03   0.03   0.01    -0.02  -0.03  -0.03    -0.01   0.01   0.01
    28   1    -0.06   0.03  -0.01     0.02   0.01  -0.04    -0.02  -0.01   0.02
    29   1    -0.02   0.11  -0.12    -0.04  -0.08   0.08    -0.01   0.03  -0.06
    30   1     0.10   0.05  -0.09    -0.07   0.01   0.06     0.06  -0.02  -0.04
    31   1     0.03  -0.01   0.03    -0.08  -0.06   0.11     0.01  -0.04   0.04
    32   1     0.07   0.05   0.04    -0.11   0.07   0.10     0.02   0.03   0.04
    33   1     0.00  -0.00  -0.01    -0.00   0.07  -0.05     0.01  -0.00  -0.03
    34   1    -0.01  -0.06   0.02    -0.07  -0.01   0.02    -0.02   0.02  -0.02
    35   1    -0.02  -0.07   0.01    -0.12   0.03   0.03     0.16  -0.11   0.02
    36   1    -0.05  -0.07  -0.01    -0.09   0.00   0.08     0.11  -0.05  -0.08
    37   1    -0.06   0.01   0.00    -0.09   0.00  -0.01     0.08  -0.03   0.10
    38   1    -0.05  -0.02   0.00    -0.05  -0.01   0.00     0.04  -0.08   0.07
    39   1    -0.00   0.04  -0.01    -0.05   0.04   0.00     0.04  -0.13   0.01
    40   1     0.02   0.04  -0.02     0.06   0.00  -0.03     0.02   0.04  -0.01
    41   1     0.03   0.01   0.02     0.05   0.01   0.05     0.01   0.05   0.03
    42   1    -0.06   0.05   0.05     0.06  -0.02  -0.03     0.02   0.08  -0.10
    43   1    -0.04  -0.00  -0.04     0.04   0.00   0.04    -0.04   0.03  -0.03
    44   1     0.11   0.07  -0.04    -0.08  -0.08   0.05    -0.20  -0.25   0.14
    45   1     0.13   0.03   0.08    -0.11  -0.02  -0.06    -0.30  -0.08  -0.17
    46   1     0.05  -0.01   0.02    -0.02   0.02   0.04    -0.03  -0.04   0.04
    47   1    -0.04  -0.08  -0.14    -0.01  -0.03  -0.07    -0.05  -0.03   0.03
    48   1     0.01  -0.15  -0.04     0.01  -0.12   0.01    -0.05  -0.04   0.04
    49   1    -0.07   0.03  -0.05    -0.01  -0.03  -0.00     0.02  -0.01  -0.01
    50   1    -0.05   0.01  -0.06    -0.04   0.00  -0.01    -0.04  -0.02  -0.04
    51   1    -0.03   0.08  -0.09     0.19   0.14  -0.07     0.19   0.04   0.06
    52   1    -0.08   0.09  -0.04     0.21   0.19   0.13    -0.06   0.03  -0.05
    53   1    -0.06   0.06  -0.03     0.24   0.18  -0.16     0.06  -0.21   0.02
    54   1     0.24  -0.01   0.08     0.21   0.02   0.08     0.08   0.31   0.13
    55   1     0.13   0.13  -0.06     0.17   0.05  -0.10     0.03   0.34  -0.13
    56   1     0.05  -0.03   0.06     0.13   0.01   0.07    -0.01   0.22  -0.18
    57   1    -0.10  -0.18   0.13     0.15  -0.11   0.01    -0.07  -0.02   0.02
    58   1    -0.05  -0.15  -0.04    -0.07   0.22  -0.15    -0.03  -0.06  -0.00
    59   1    -0.07  -0.03   0.15     0.30   0.23   0.01    -0.07  -0.04   0.01
                     19                     20                     21
                      A                      A                      A
 Frequencies --    295.1175               305.5216               319.1250
 Red. masses --      1.2788                 1.8229                 2.5346
 Frc consts  --      0.0656                 0.1003                 0.1521
 IR Inten    --      0.0747                 0.1240                 0.1347
  Atom  AN      X      Y      Z        X      Y      Z        X      Y      Z
     1   6     0.04   0.03  -0.01     0.07   0.04   0.01     0.12   0.07   0.01
     2   6    -0.01   0.02   0.02    -0.01   0.02   0.05     0.03   0.02   0.07
     3   6    -0.01   0.01   0.03    -0.01   0.01   0.02     0.01  -0.01   0.01
     4   6     0.00   0.00  -0.02     0.00   0.00  -0.03    -0.00  -0.01   0.02
     5   6     0.01  -0.01  -0.03    -0.01   0.00   0.02    -0.01  -0.03   0.03
     6   6    -0.00  -0.01  -0.01     0.00  -0.00  -0.05    -0.01  -0.04  -0.06
     7   6    -0.01  -0.03   0.01    -0.02  -0.01  -0.00    -0.01  -0.02  -0.09
     8   6    -0.03  -0.00   0.04    -0.05   0.03   0.04    -0.04   0.05  -0.03
     9   6    -0.02  -0.01   0.01    -0.03   0.01  -0.01    -0.08   0.02   0.07
    10   6    -0.01  -0.00  -0.01    -0.03   0.01  -0.02    -0.02   0.03  -0.00
    11   6     0.02   0.01  -0.01     0.02  -0.01  -0.01     0.00   0.02   0.02
    12   6     0.01  -0.00  -0.00     0.02  -0.02  -0.01    -0.02  -0.01   0.05
    13   6     0.00   0.01  -0.00     0.01  -0.00  -0.01     0.03  -0.05   0.04
    14   6     0.01   0.01   0.00     0.04   0.03  -0.01    -0.07  -0.05   0.00
    15   8     0.01  -0.02  -0.00     0.02  -0.04  -0.00    -0.04  -0.02   0.02
    16   6    -0.00  -0.01  -0.00    -0.01  -0.00  -0.01     0.01   0.00  -0.04
    17   6    -0.01  -0.02   0.01    -0.02  -0.02   0.03     0.03   0.01  -0.08
    18   6    -0.03  -0.02   0.01    -0.04   0.04   0.11     0.04   0.04  -0.04
    19   6    -0.00   0.00  -0.05     0.04  -0.01  -0.05     0.01  -0.02   0.04
    20   6    -0.00   0.00   0.01     0.03  -0.01  -0.05     0.00  -0.02  -0.02
    21   6     0.06   0.01   0.02     0.10  -0.00  -0.04    -0.12  -0.02  -0.06
    22   6     0.02   0.02  -0.01    -0.03  -0.03  -0.00     0.14  -0.00  -0.03
    23   6    -0.05  -0.00   0.00    -0.08  -0.03   0.03     0.01   0.03   0.04
    24   1    -0.06   0.04   0.06     0.03   0.06   0.05     0.04   0.11   0.11
    25   1     0.12   0.16  -0.06     0.14   0.15  -0.01     0.23   0.24  -0.04
    26   1     0.12  -0.10  -0.06     0.10  -0.05  -0.08     0.19  -0.08  -0.10
    27   1    -0.01   0.02   0.02    -0.01   0.02   0.05     0.02   0.02   0.07
    28   1    -0.01  -0.00   0.04    -0.06  -0.02   0.02    -0.03  -0.01  -0.00
    29   1    -0.01   0.04  -0.06    -0.04   0.03  -0.09    -0.01  -0.02   0.01
    30   1     0.02  -0.04  -0.04     0.07  -0.04  -0.06     0.01  -0.02   0.02
    31   1     0.01   0.00  -0.04    -0.02  -0.06   0.07     0.02  -0.09   0.08
    32   1     0.02  -0.03  -0.04    -0.01   0.07   0.06    -0.03   0.04   0.06
    33   1     0.00  -0.03  -0.00     0.01   0.04  -0.07    -0.06  -0.04  -0.07
    34   1    -0.02  -0.04   0.01    -0.07  -0.03  -0.01    -0.02  -0.06  -0.08
    35   1    -0.05   0.04   0.02    -0.09   0.10   0.02     0.01   0.12  -0.04
    36   1    -0.04  -0.01   0.08    -0.07   0.02   0.12    -0.07   0.03   0.02
    37   1    -0.04   0.01   0.02    -0.05   0.00  -0.03    -0.06   0.11   0.21
    38   1    -0.01  -0.02   0.02     0.01   0.01  -0.01    -0.17  -0.10   0.11
    39   1    -0.02   0.00  -0.01    -0.04   0.02  -0.01    -0.03   0.06   0.00
    40   1     0.03   0.02  -0.03     0.03  -0.01  -0.03     0.02   0.04  -0.01
    41   1     0.03   0.01   0.02     0.02  -0.00   0.01     0.04  -0.01   0.02
    42   1    -0.00   0.02   0.00    -0.00   0.01   0.00     0.09  -0.15  -0.01
    43   1    -0.01   0.00  -0.01    -0.00  -0.01  -0.00     0.12   0.02   0.09
    44   1     0.02   0.02  -0.01     0.05   0.08  -0.05    -0.12  -0.14   0.09
    45   1     0.02   0.00   0.01     0.09   0.02   0.03    -0.19  -0.01  -0.06
    46   1    -0.01  -0.03   0.01    -0.05  -0.08   0.04     0.07  -0.01  -0.07
    47   1    -0.03  -0.02   0.04    -0.02   0.03   0.27     0.03   0.03  -0.01
    48   1    -0.07   0.00   0.00    -0.15   0.16   0.07     0.08   0.10  -0.05
    49   1     0.04   0.07  -0.06     0.17   0.04  -0.05    -0.05  -0.11   0.06
    50   1    -0.02  -0.03  -0.12    -0.00  -0.04  -0.14     0.04   0.02   0.14
    51   1    -0.31  -0.21  -0.00     0.43   0.19  -0.00    -0.12  -0.03  -0.11
    52   1     0.43  -0.19   0.20    -0.21   0.19  -0.15    -0.18  -0.03  -0.15
    53   1     0.11   0.44  -0.11     0.09  -0.37   0.02    -0.19  -0.04   0.04
    54   1     0.03   0.03   0.01    -0.09  -0.03  -0.04     0.13   0.03   0.01
    55   1     0.02   0.04  -0.03    -0.04  -0.09   0.04     0.20  -0.09  -0.13
    56   1     0.02   0.03  -0.02    -0.00  -0.01   0.00     0.23   0.05   0.04
    57   1    -0.03   0.21  -0.11    -0.13  -0.02   0.06    -0.02   0.09   0.02
    58   1     0.10  -0.08   0.19    -0.06  -0.07  -0.02     0.03   0.01   0.07
    59   1    -0.23  -0.17  -0.09    -0.10  -0.04   0.02    -0.02  -0.01   0.00
                     22                     23                     24
                      A                      A                      A
 Frequencies --    324.6296               338.2151               371.7566
 Red. masses --      2.4804                 2.4098                 2.2875
 Frc consts  --      0.1540                 0.1624                 0.1863
 IR Inten    --      0.2679                 0.4555                 0.1682
  Atom  AN      X      Y      Z        X      Y      Z        X      Y      Z
     1   6     0.08   0.03  -0.02    -0.07  -0.08  -0.03     0.06  -0.01  -0.04
     2   6     0.03  -0.02   0.02    -0.02   0.01  -0.08    -0.03   0.02  -0.00
     3   6    -0.01  -0.02   0.01    -0.03   0.06  -0.01    -0.05   0.02  -0.02
     4   6    -0.10  -0.05   0.00     0.02   0.08  -0.05    -0.06   0.02  -0.02
     5   6    -0.13   0.02  -0.03     0.04   0.03  -0.03    -0.05  -0.01  -0.01
     6   6    -0.06   0.04  -0.00    -0.02  -0.01  -0.01    -0.01  -0.01  -0.07
     7   6    -0.02  -0.02  -0.01     0.00  -0.00  -0.07     0.01   0.00  -0.06
     8   6     0.06  -0.08   0.00    -0.01   0.03  -0.02     0.04   0.07   0.02
     9   6     0.01  -0.06   0.12    -0.07   0.01   0.11     0.12   0.02  -0.09
    10   6     0.02  -0.04  -0.01    -0.02   0.02  -0.02     0.02  -0.02   0.04
    11   6     0.00   0.00  -0.04     0.00   0.02  -0.02     0.01  -0.01   0.05
    12   6    -0.00  -0.00  -0.04    -0.01  -0.01   0.01    -0.02   0.01   0.01
    13   6    -0.01   0.02  -0.02     0.02  -0.02   0.03    -0.02   0.00  -0.00
    14   6     0.14   0.06   0.02     0.02   0.02  -0.00     0.04   0.01   0.02
    15   8     0.03  -0.02   0.01    -0.01  -0.05   0.02    -0.01   0.06  -0.00
    16   6     0.02  -0.02  -0.00     0.00   0.00  -0.05    -0.00  -0.01   0.04
    17   6    -0.02  -0.04   0.01    -0.00  -0.01  -0.05    -0.01  -0.02  -0.01
    18   6    -0.03  -0.04   0.01    -0.03   0.06   0.04    -0.05  -0.02  -0.00
    19   6    -0.03   0.03  -0.03    -0.04   0.02   0.05    -0.11  -0.05   0.08
    20   6    -0.03   0.03   0.01    -0.03   0.02   0.04    -0.03  -0.01  -0.04
    21   6    -0.05  -0.00   0.01     0.11  -0.12   0.12     0.04  -0.09  -0.01
    22   6    -0.00   0.06  -0.02     0.05  -0.01  -0.05     0.05  -0.01   0.05
    23   6     0.09   0.08   0.01     0.03  -0.02  -0.00     0.02   0.03   0.05
    24   1     0.02   0.05   0.05    -0.01  -0.14  -0.15     0.05  -0.04  -0.07
    25   1     0.15   0.15  -0.06    -0.12  -0.22   0.06     0.16   0.05   0.01
    26   1     0.13  -0.07  -0.10    -0.11   0.03   0.07     0.09  -0.09  -0.12
    27   1     0.00  -0.02   0.03     0.02   0.02  -0.09    -0.02   0.03  -0.00
    28   1     0.01  -0.01   0.01     0.02   0.06   0.00    -0.06   0.03  -0.03
    29   1    -0.09  -0.08   0.03     0.01   0.12  -0.08    -0.06   0.03  -0.04
    30   1    -0.15  -0.07   0.01     0.06   0.06  -0.07    -0.04   0.01  -0.03
    31   1    -0.16   0.06  -0.06     0.05   0.02  -0.02    -0.04  -0.08   0.05
    32   1    -0.16  -0.00  -0.06     0.08   0.02  -0.02    -0.07   0.06   0.04
    33   1    -0.08   0.05  -0.01    -0.06  -0.05  -0.00    -0.03  -0.01  -0.08
    34   1    -0.01  -0.01  -0.01     0.02  -0.01  -0.06    -0.03  -0.02  -0.05
    35   1     0.16  -0.15   0.02     0.08   0.07  -0.03    -0.04   0.21  -0.02
    36   1     0.07  -0.07  -0.12    -0.03   0.01  -0.02     0.07   0.08   0.18
    37   1     0.01   0.05   0.25    -0.04   0.14   0.30     0.13  -0.14  -0.28
    38   1    -0.08  -0.20   0.17    -0.18  -0.18   0.18     0.25   0.21  -0.16
    39   1     0.04  -0.08  -0.02    -0.02   0.02  -0.02     0.02  -0.04   0.05
    40   1    -0.00   0.01  -0.03     0.02   0.03  -0.05    -0.00   0.04   0.06
    41   1    -0.00   0.02  -0.03     0.04  -0.00  -0.01     0.02  -0.01   0.07
    42   1    -0.09   0.08   0.08     0.03  -0.08   0.04    -0.05   0.04   0.03
    43   1    -0.06  -0.01  -0.07     0.07   0.02   0.05    -0.05  -0.02  -0.03
    44   1     0.20   0.23  -0.13     0.02   0.07  -0.02     0.07   0.06  -0.04
    45   1     0.31   0.03   0.15     0.05   0.03   0.04     0.10  -0.00   0.06
    46   1    -0.03  -0.05   0.01    -0.02  -0.06  -0.03     0.02  -0.04   0.01
    47   1    -0.04  -0.05   0.00    -0.04   0.04   0.13    -0.05  -0.02  -0.01
    48   1    -0.05  -0.04   0.01    -0.02   0.16   0.02    -0.01  -0.01   0.00
    49   1    -0.01   0.08  -0.04    -0.05  -0.04   0.07    -0.20  -0.26   0.13
    50   1    -0.05   0.01  -0.09    -0.03   0.04   0.11    -0.11   0.08   0.27
    51   1    -0.00   0.03   0.03     0.14  -0.11   0.31     0.01  -0.11   0.11
    52   1    -0.11   0.01  -0.04     0.14  -0.17   0.09     0.11  -0.16  -0.02
    53   1    -0.07  -0.08   0.04     0.18  -0.23   0.03     0.08  -0.11  -0.06
    54   1    -0.09   0.12   0.00    -0.03   0.03  -0.05     0.12  -0.03   0.08
    55   1    -0.01   0.01   0.00     0.08  -0.12  -0.06     0.06   0.03  -0.01
    56   1     0.05   0.11  -0.09     0.15   0.06  -0.01     0.02  -0.03   0.07
    57   1     0.14   0.04   0.00     0.10  -0.10  -0.00     0.11   0.00   0.02
    58   1     0.02   0.16   0.02     0.03  -0.02   0.00     0.03   0.05   0.11
    59   1     0.18   0.12   0.01     0.02   0.03   0.08     0.01   0.06   0.11
                     25                     26                     27
                      A                      A                      A
 Frequencies --    380.1375               401.8958               409.1700
 Red. masses --      2.5317                 3.3211                 2.2938
 Frc consts  --      0.2155                 0.3161                 0.2263
 IR Inten    --      0.5058                 1.4405                 0.4977
  Atom  AN      X      Y      Z        X      Y      Z        X      Y      Z
     1   6    -0.03  -0.01  -0.01     0.00  -0.01  -0.01    -0.02   0.07   0.10
     2   6     0.00  -0.03  -0.01    -0.01   0.03  -0.02     0.09   0.01   0.04
     3   6     0.00  -0.01   0.02    -0.01   0.03  -0.01     0.06   0.01  -0.03
     4   6    -0.02  -0.02  -0.00    -0.01   0.04  -0.01    -0.01  -0.00  -0.01
     5   6    -0.02   0.02  -0.02    -0.00   0.02  -0.01    -0.04   0.06  -0.03
     6   6    -0.02   0.02   0.03    -0.03  -0.00  -0.02     0.02   0.08  -0.01
     7   6     0.04  -0.07  -0.02    -0.04   0.01  -0.02    -0.03   0.05   0.05
     8   6    -0.03  -0.00   0.03    -0.10   0.02  -0.01    -0.00  -0.02   0.00
     9   6     0.01  -0.00  -0.07    -0.11  -0.05   0.02    -0.02  -0.00   0.01
    10   6     0.00  -0.01   0.03    -0.03  -0.03   0.10    -0.04  -0.01   0.00
    11   6     0.04   0.05   0.08    -0.03  -0.13   0.14     0.02   0.01   0.03
    12   6    -0.10   0.00   0.04     0.07  -0.09  -0.00    -0.05  -0.02   0.00
    13   6     0.00  -0.09   0.01    -0.02  -0.12  -0.12     0.02  -0.07  -0.00
    14   6     0.04  -0.08   0.01     0.07  -0.06  -0.06     0.04   0.01  -0.02
    15   8    -0.08   0.10   0.05     0.06   0.06  -0.07    -0.03   0.04   0.03
    16   6     0.03  -0.06  -0.04     0.03  -0.02   0.06    -0.04  -0.03  -0.04
    17   6     0.05  -0.08  -0.07     0.05   0.05  -0.00    -0.06   0.00   0.02
    18   6    -0.01   0.03   0.02     0.10   0.05  -0.02     0.02  -0.06   0.03
    19   6     0.04   0.07  -0.07     0.07   0.03   0.05    -0.01  -0.03   0.09
    20   6    -0.01   0.04   0.05     0.00   0.01  -0.01     0.06   0.02  -0.06
    21   6    -0.01   0.03   0.06     0.00  -0.01  -0.00     0.04  -0.06  -0.06
    22   6     0.02   0.03  -0.08    -0.05   0.14   0.03     0.01   0.01  -0.06
    23   6     0.03   0.00  -0.02    -0.00   0.00   0.02    -0.05  -0.05  -0.08
    24   1    -0.02  -0.00   0.00    -0.00  -0.05  -0.06    -0.00   0.12   0.16
    25   1    -0.06  -0.03  -0.02     0.03  -0.03   0.02    -0.14   0.02   0.01
    26   1    -0.04   0.01   0.02     0.01  -0.02  -0.01    -0.05   0.15   0.17
    27   1    -0.00  -0.03  -0.02     0.00   0.03  -0.02     0.09   0.02   0.05
    28   1     0.04  -0.01   0.04    -0.02   0.03  -0.02     0.03   0.00  -0.05
    29   1    -0.02  -0.02  -0.00    -0.01   0.05  -0.02    -0.01  -0.06   0.03
    30   1    -0.03  -0.04  -0.00     0.00   0.04  -0.02    -0.05   0.00   0.01
    31   1    -0.04   0.07  -0.06     0.01  -0.00   0.01    -0.06   0.09  -0.05
    32   1    -0.02  -0.03  -0.06     0.01   0.03   0.01    -0.06   0.05  -0.05
    33   1    -0.06  -0.00   0.03    -0.03  -0.01  -0.03     0.07   0.13  -0.02
    34   1     0.08  -0.15   0.01    -0.07   0.01  -0.03    -0.03   0.07   0.04
    35   1    -0.11   0.11  -0.01    -0.12   0.07  -0.03     0.02  -0.12   0.03
    36   1    -0.05  -0.02   0.17    -0.08   0.03   0.05     0.01  -0.01  -0.10
    37   1     0.01  -0.11  -0.21    -0.08  -0.05   0.05    -0.01  -0.02   0.00
    38   1     0.10   0.15  -0.12    -0.15  -0.04   0.01    -0.02   0.01   0.00
    39   1    -0.03   0.01   0.07    -0.05   0.09   0.10    -0.06  -0.03   0.04
    40   1     0.09   0.26  -0.01    -0.08  -0.25   0.22     0.09   0.14  -0.06
    41   1     0.21  -0.05   0.20    -0.15  -0.08   0.03     0.14  -0.04   0.14
    42   1    -0.00  -0.20   0.06    -0.06   0.06  -0.13     0.04  -0.20   0.03
    43   1     0.11  -0.01  -0.02    -0.16  -0.22  -0.15     0.12  -0.00   0.05
    44   1     0.06  -0.05  -0.02     0.13  -0.04  -0.16     0.06   0.14  -0.10
    45   1     0.05  -0.05   0.06     0.15  -0.08   0.01     0.14   0.01   0.08
    46   1     0.03  -0.12  -0.06     0.08   0.07  -0.00    -0.11   0.03   0.00
    47   1    -0.06  -0.01   0.20     0.11   0.06  -0.07     0.04  -0.03  -0.09
    48   1    -0.08   0.21  -0.01     0.17   0.02  -0.01     0.10  -0.15   0.05
    49   1     0.14   0.25  -0.12     0.04  -0.03   0.06    -0.07  -0.22   0.14
    50   1     0.04  -0.04  -0.25     0.12   0.04   0.12    -0.07   0.12   0.23
    51   1     0.06   0.07   0.05    -0.03  -0.03   0.03    -0.05  -0.12   0.01
    52   1    -0.09   0.07   0.03     0.03  -0.04  -0.01     0.12  -0.15  -0.09
    53   1    -0.02  -0.04   0.08     0.00  -0.01  -0.01     0.04  -0.02  -0.06
    54   1     0.08   0.07   0.01    -0.08   0.24   0.16     0.03   0.04  -0.01
    55   1     0.02   0.13  -0.13    -0.08   0.25   0.06     0.02   0.02  -0.11
    56   1    -0.01   0.02  -0.16    -0.08   0.16  -0.19     0.02   0.02  -0.08
    57   1     0.04  -0.00  -0.03     0.03  -0.02   0.02    -0.25  -0.01   0.00
    58   1    -0.00   0.04  -0.02     0.02  -0.01   0.03    -0.05  -0.12  -0.23
    59   1     0.07   0.02  -0.03    -0.03   0.01   0.06    -0.04  -0.10  -0.17
                     28                     29                     30
                      A                      A                      A
 Frequencies --    423.2159               430.9554               459.9791
 Red. masses --      2.4682                 3.1066                 2.9900
 Frc consts  --      0.2605                 0.3399                 0.3727
 IR Inten    --      0.9931                 0.5360                 0.3889
  Atom  AN      X      Y      Z        X      Y      Z        X      Y      Z
     1   6     0.04  -0.05  -0.09    -0.00   0.01   0.02    -0.00   0.01   0.01
[...]
 05722,0.00074568,0.00029871,-0.00018812,0.00005986,-0.00017534,0.00041
 348,-0.00020814,0.00008916,-0.00012155,0.00006388,-0.00002547,0.000071
 93,0.00004671,0.00002509,-0.00001789,0.00002919,0.00009708,-0.00006594
 ,0.00003341,0.00000413,0.00002144,0.00005796,0.00001207,-0.00000963,0.
 00000539,-0.00000240,-0.00000276,-0.00000023,0.00001409,-0.00000754,-0
 .00000742,-0.00000003,0.00000592,-0.00000165,0.00001041,-0.00000081,-0
 .00000608,-0.00000694,0.00000200,-0.00000574,0.00000497,-0.00000224,-0
 .00000006,-0.00000676,-0.00000466,-0.00000564,0.00000754,0.00000287,-0
 .00000009,0.00001062,0.00000122,-0.00000485,-0.00000213,-0.00000575,0.
 00000666,0.00001491,-0.00000235,0.00001052,0.00003966,0.00001279,0.000
 00657,-0.00001040,-0.00002775,0.00006115,0.00012379,0.00004726,0.00003
 937,-0.00002519,0.00000664,-0.00004250,-0.00026035,0.00050394,0.000662
 50,-0.00066118,-0.00067448,0.00079981,0.00035793,-0.00001752,0.0000511
 0,-0.00000463,-0.00000914,0.00001030,0.00001389,-0.00000044,-0.0000091
 8,-0.00000010,0.00001457,0.00001398,0.05363376,-0.00178708,-0.00033294
 ,-0.00009061,0.00089565,-0.00235674,-0.00855697,0.00024937,0.00022751,
 0.00032921,0.00022126,0.00015380,0.00028591,-0.00003058,0.00000654,-0.
 00008421,0.00002166,0.00007389,0.00013288,-0.00002109,-0.00000326,-0.0
 0002376,0.00000310,0.00000344,0.00001718,-0.00000037,0.00000034,-0.000
 00549,0.00000105,0.00000463,0.00000172,0.00000025,-0.00000508,-0.00000
 169,0.00000024,0.00000841,0.00000018,0.00000172,-0.00000224,-0.0000008
 4,-0.00000291,0.00000280,0.00000290,-0.00000024,-0.00000379,0.00000084
 ,-0.00000289,-0.00000977,-0.00000392,-0.00000201,0.00001252,0.00001085
 ,-0.00000795,-0.00001735,-0.00001701,-0.00006140,0.00006347,-0.0000316
 6,-0.00015820,-0.00008634,-0.00016691,0.00009742,0.00098077,-0.0001504
 8,-0.00000199,0.00000481,-0.00000008,-0.00277022,-0.05641492,-0.040611
 96,-0.00012310,0.00026587,-0.00045933,-0.00023453,0.00054349,-0.000657
 45,-0.00017749,0.00015362,0.00049448,0.00051464,0.00000694,-0.00009206
 ,-0.00001438,-0.00010618,-0.00001974,-0.00003722,-0.00026961,0.0001916
 1,-0.00012397,0.00001641,-0.00010613,0.00002526,-0.00001037,-0.0000094
 3,-0.00004504,0.00000447,0.00002396,0.00003209,-0.00004348,0.00000736,
 0.00000390,0.00000954,0.00002184,0.00000480,-0.00000295,-0.00000055,-0
 .00000013,-0.00001034,-0.00000397,-0.00000164,-0.00000066,0.00000219,-
 0.00000002,0.00000115,0.00000176,-0.00000158,-0.00000223,0.00000146,0.
 00000015,0.00000091,0.00000098,0.00000114,-0.00000045,0.00000036,-0.00
 000077,0.00000039,0.00000039,-0.00000021,-0.00000038,0.00000016,-0.000
 00123,-0.00000096,0.00000095,0.00000079,-0.00000293,-0.00000028,0.0000
 0619,-0.00000276,0.00000344,0.00000118,-0.00000322,0.00000913,-0.00000
 207,-0.00000113,0.00002662,0.00002755,-0.00001422,0.00001510,-0.000004
 79,-0.00005178,-0.00001241,0.00029702,-0.00016548,-0.00041534,-0.00034
 415,-0.00048664,0.00041778,0.00013497,-0.00021812,-0.00001738,-0.00000
 089,-0.00000636,0.00000135,0.00000155,-0.00000077,0.00000075,-0.000002
 07,0.00000307,-0.00000053,0.00351710,0.05579237,-0.00265760,-0.0010762
 6,0.00077166,0.00016009,-0.00029817,-0.00674859,0.00026063,-0.00059088
 ,0.00010968,-0.00052513,-0.00015191,0.00025978,0.00000371,0.00004986,0
 .00001497,-0.00002234,-0.00002297,0.00010042,-0.00003240,0.00002785,-0
 .00005622,-0.00001093,0.00000235,0.00002553,-0.00000710,0.00000471,-0.
 00000065,-0.00000480,0.00000086,0.00000029,0.00000476,0.00000457,-0.00
 000198,-0.00001664,-0.00000870,0.00000129,0.00000307,0.00000191,-0.000
 00326,-0.00000181,-0.00000283,-0.00000064,0.00001577,0.00000396,0.0000
 0189,-0.00000558,0.00000671,-0.00000135,-0.00000861,-0.00000855,0.0000
 1172,-0.00000409,0.00003056,-0.00004806,0.00000638,-0.00000991,0.00000
 940,-0.00035517,0.00011819,-0.00007811,0.00136303,0.00014930,-0.001706
 88,-0.00000484,-0.00000475,-0.00000118,-0.01777919,-0.04060454,-0.3100
 7289,0.00017482,0.00003026,0.00027223,-0.00007433,-0.00003917,-0.00062
 918,0.00010541,0.00018522,0.00030437,-0.00022633,-0.00026864,0.0003708
 5,-0.00000348,0.00006361,0.00003231,0.00024017,0.00037071,-0.00009041,
 0.00031366,-0.00006150,0.00011053,-0.00002337,0.00004266,0.00003701,0.
 00002324,0.00000342,0.00000588,0.00004748,-0.00000511,0.00003419,0.000
 01486,0.00001332,0.00004134,0.00000956,-0.00000636,0.00000473,-0.00000
 007,0.00000377,-0.00000079,0.00000153,-0.00000177,0.00000071,0.0000015
 0,0.00000231,0.00000388,0.00000112,0.00000122,0.00000006,-0.00000305,-
 0.00000008,-0.00000075,0.00000153,-0.00000038,0.00000043,-0.00000282,-
 0.00000213,0.00000033,0.00000309,0.00000128,0.00000029,0.00000116,0.00
 000074,0.00000081,-0.00000019,-0.00000053,-0.00000018,0.00001304,-0.00
 000167,0.00000725,0.00001270,0.00000207,0.00001541,-0.00000005,-0.0000
 1400,0.00005108,0.00005771,0.00000647,0.00001738,-0.00001279,0.0000165
 6,-0.00003218,0.00069680,0.00045114,-0.00029289,0.00099457,-0.00047799
 ,-0.00043568,0.00062335,-0.00001693,-0.00015898,-0.00000303,-0.0000063
 4,0.00000210,0.00000529,0.00000057,-0.00000073,0.00000008,0.00001049,0
 .00000451,0.01691210,0.04556495,0.33834100,0.00058759,0.00093089,0.001
 41494,-0.02176809,0.02286408,0.00807188,-0.00333968,-0.00336493,-0.003
 42262,-0.00007519,-0.00111224,-0.00024370,0.00007214,0.00004323,0.0000
 1985,-0.00012320,-0.00011482,0.00027036,0.00002262,0.00012828,-0.00003
 764,-0.00001463,-0.00003764,0.00006066,-0.00000644,0.00002126,-0.00002
 687,0.00001312,-0.00000154,0.00001408,-0.00000406,-0.00001464,-0.00000
 418,0.00005431,0.00001700,-0.00000176,0.00000002,0.00000185,-0.0000031
 0,0.00000344,0.00000930,0.00001589,-0.00004944,-0.00000781,0.00000087,
 0.00001129,-0.00000723,-0.00003114,0.00002760,0.00001599,0.00000833,0.
 00000045,-0.00006172,-0.00002035,-0.00002869,0.00016155,0.00006818,-0.
 00010040,0.00029638,-0.00055477,-0.00010860,-0.00004861,0.00005459,-0.
 00001004,0.00000553,0.00000937,-0.15650842,0.12200540,0.04169616,0.000
 03716,-0.00012053,-0.00004962,0.00039394,-0.00038863,0.00016228,0.0004
 3413,-0.00050497,-0.00102680,0.00115441,-0.00019342,0.00066602,-0.0016
 6582,0.00101593,0.00047718,0.00036227,0.00004464,0.00015089,0.00000021
 ,0.00008335,-0.00001717,-0.00001438,0.00002994,0.00004386,-0.00001522,
 0.00003559,0.00000620,0.00007886,-0.00002924,0.00004450,-0.00001042,0.
 00000169,0.00003344,0.00000143,0.00000068,-0.00000538,0.00000178,-0.00
 000201,-0.00000335,-0.00001987,0.00000747,0.00001345,0.00000069,-0.000
 00437,0.00000572,-0.00001287,-0.00000029,0.00000855,0.00000651,-0.0000
 0175,0.00000697,-0.00000381,0.00000186,0.00000084,0.00000561,0.0000054
 1,0.00000673,-0.00000783,-0.00000323,0.00000087,-0.00001275,-0.0000021
 4,0.00000692,0.00000337,0.00000349,-0.00000770,0.00000373,-0.00000118,
 -0.00000542,-0.00003718,-0.00002056,0.00002546,-0.00000138,0.00000997,
 0.00002209,0.00003551,0.00002362,0.00000439,0.00001337,-0.00004816,0.0
 0001246,0.00002877,-0.00000121,-0.00000333,0.00000230,0.00002338,0.000
 04030,0.00001645,0.00000431,0.00007632,0.00000203,-0.00000036,-0.00000
 753,-0.00000930,0.00000030,0.00001129,-0.00000305,-0.00000563,-0.00001
 222,0.00152271,-0.00232955,0.00011043,0.17251936,-0.00011718,-0.000025
 72,0.00011455,-0.00819808,0.00695530,0.00243141,-0.00218381,-0.0003053
 0,-0.00124592,-0.00038770,-0.00046419,-0.00048189,0.00015531,0.0001336
 1,0.00023268,0.00000288,-0.00006865,-0.00011836,0.00002000,0.00005189,
 0.00004580,-0.00000902,0.00000845,-0.00001095,-0.00000306,-0.00000017,
 0.00001761,-0.00000885,0.00000039,-0.00001065,0.00000390,0.00001190,0.
 00000209,-0.00004038,-0.00001354,0.00000151,0.00000091,-0.00000123,0.0
 0000113,-0.00000250,-0.00000668,-0.00001166,0.00003687,0.00000607,-0.0
 0000082,-0.00000115,0.00001188,0.00002169,0.00000179,-0.00001441,-0.00
 003511,0.00000820,0.00000755,0.00001651,0.00001050,-0.00000550,-0.0000
 4552,0.00014573,-0.00000821,-0.00004186,-0.00004900,-0.00005340,-0.000
 05497,0.00000413,-0.00000421,-0.00000423,0.12277373,-0.18475326,-0.046
 04911,0.00004223,-0.00001291,-0.00009926,-0.00010719,0.00016562,0.0002
 8022,-0.00002394,0.00033873,0.00027358,0.00033929,0.00111238,0.0003182
 8,-0.00045264,0.00046936,0.00018923,0.00064135,0.00040748,0.00039839,0
 .00009339,0.00001495,0.00005256,-0.00001437,0.00000446,-0.00001638,0.0
 0008535,-0.00002628,-0.00005287,0.00003250,0.00000314,0.00003905,-0.00
 000288,0.00000127,0.00000555,-0.00000028,-0.00000316,0.00000240,0.0000
 0009,0.00001248,0.00000796,0.00000997,-0.00000485,-0.00000575,0.000000
 24,0.00000283,-0.00000416,0.00000934,0.00000157,-0.00000612,-0.0000047
 0,0.00000033,-0.00000496,0.00000241,-0.00000143,-0.00000013,-0.0000035
 7,-0.00000328,-0.00000429,0.00000506,0.00000251,-0.00000003,0.00000879
 ,0.00000234,-0.00000462,-0.00000189,-0.00000131,0.00000476,0.00000230,
 0.00000049,0.00000308,0.00001504,0.00001253,-0.00000555,-0.00000512,-0
 .00000607,0.00000361,0.00002022,0.00001073,0.00000528,0.00000285,-0.00
 000059,0.00000414,0.00001342,0.00008554,0.00008342,0.00002849,-0.00006
 081,0.00001117,0.00006372,0.00002046,-0.00000818,-0.00000186,-0.000000
 02,0.00000464,0.00000683,-0.00000023,-0.00000726,0.00000194,0.00000459
 ,0.00000826,0.00180575,-0.00337072,-0.00072364,-0.13268252,0.19914663,
 -0.00087122,0.00094760,0.00052033,-0.00539814,0.00691457,0.00114516,-0
 .00154909,-0.00045980,-0.00019203,-0.00031073,-0.00017821,0.00023451,-
 0.00006381,-0.00005280,-0.00008012,-0.00005355,0.00001408,0.00012657,-
 0.00002148,0.00000579,-0.00002678,0.00000029,0.00000577,0.00001228,-0.
 00000307,0.00000112,0.00000362,-0.00000254,0.00000104,-0.00000273,0.00
 000136,0.00000386,0.00000127,-0.00001491,-0.00000488,0.00000061,-0.000
 00013,0.00000006,0.00000111,-0.00000033,-0.00000326,-0.00000182,0.0000
 1358,0.00000232,-0.00000084,-0.00000596,0.00000132,0.00000645,-0.00000
 854,-0.00000019,0.00000683,-0.00001129,0.00002024,-0.00001761,0.000033
 55,-0.00006654,0.00007025,-0.00032737,0.00012076,-0.00026276,0.0001083
 8,-0.00028835,-0.00040003,0.00000016,-0.00000480,-0.00000364,0.0421383
 1,-0.04681843,-0.06600430,-0.00007621,-0.00003241,-0.00005090,0.000233
 30,0.00001398,0.00009561,-0.00016638,-0.00032621,-0.00022848,0.0006036
 0,-0.00001761,0.00025260,-0.00030697,0.00019615,0.00024114,0.00013556,
 0.00009658,-0.00025111,0.00018994,-0.00000264,0.00005389,-0.00000276,0
 .00003012,0.00001870,0.00000250,0.00000397,0.00002137,0.00003876,-0.00
 001256,0.00002486,0.00000639,0.00000796,0.00002653,0.00000410,-0.00000
 392,0.00000099,-0.00000043,0.00000117,-0.00000041,0.00000319,-0.000001
 75,-0.00000103,-0.00000022,0.00000153,-0.00000057,0.00000324,0.0000000
 5,-0.00000247,-0.00000146,0.00000052,-0.00000204,0.00000116,-0.0000004
 9,-0.00000003,-0.00000134,-0.00000136,-0.00000210,0.00000250,0.0000008
 8,0.00000007,0.00000324,-0.00000004,-0.00000220,-0.00000138,-0.0000009
 3,0.00000231,0.00000408,0.00000040,0.00000220,0.00001524,0.00000288,0.
 00000866,0.00000088,-0.00001496,0.00002011,0.00003282,0.00003002,0.000
 01051,-0.00000595,0.00000771,-0.00000646,0.00003900,0.00043925,0.00011
 069,0.00002173,-0.00025030,-0.00000450,0.00027232,0.00008875,-0.000013
 53,-0.00000210,-0.00000232,0.00000387,0.00000534,-0.00000006,-0.000003
 01,-0.00000040,0.00000566,0.00000508,0.02167100,-0.02475470,-0.0064736
 0,-0.04484336,0.05245755,0.06695628,0.00134392,0.00005324,0.00169298,-
 0.00857297,-0.02770242,0.01480342,0.00127220,-0.00102751,0.00009677,-0
 .00038027,0.00029054,-0.00012925,0.00005921,0.00014253,0.00023695,0.00
 002048,-0.00010089,-0.00002589,0.00000569,0.00007643,0.00001537,-0.000
 00911,-0.00000516,0.00000589,-0.00000624,0.00000638,0.00000580,-0.0000
 0398,-0.00000869,0.00000487,0.00000140,0.00000825,0.00000147,0.0000015
 7,-0.00001775,0.00000045,-0.00000064,0.00000582,-0.00000195,0.00000552
 ,-0.00000369,-0.00000335,-0.00000101,0.00000783,-0.00000034,0.00000082
 ,0.00003274,-0.00000546,-0.00000463,-0.00004523,0.00001622,0.00000408,
 0.00009499,-0.00005650,0.00005095,-0.00013749,0.00003335,0.00010322,0.
 00000645,-0.00001311,-0.00001766,-0.00011272,0.00002549,-0.00000284,-0
 .00000564,0.00000129,-0.06789400,-0.05958665,0.03330032,0.00008930,0.0
 0049077,-0.00087879,0.00010856,0.00043639,0.00020206,0.00001083,0.0000
 8328,-0.00021940,-0.00583891,-0.00177928,-0.00211171,0.00013212,0.0001
 7945,-0.00007914,-0.00074915,0.00130813,0.00080542,-0.00002976,0.00019
 092,-0.00003586,0.00000475,-0.00000284,-0.00004488,0.00009806,-0.00001
 638,-0.00006415,0.00000542,0.00000157,0.00000474,-0.00000062,-0.000001
 63,-0.00000626,-0.00000485,-0.00000168,-0.00000033,0.00000072,0.000020
 19,0.00000892,0.00000082,0.00000146,-0.00000062,0.00000145,-0.00000013
 ,-0.00000218,-0.00000054,0.00000679,-0.00000059,-0.00000067,-0.0000025
 5,-0.00000092,-0.00000176,0.00000105,0.00000004,0.00000118,-0.00000144
 ,0.00000187,0.00000040,0.00000085,0.00000004,-0.00000043,0.00000264,0.
 00000103,-0.00000035,0.00000576,-0.00000291,0.00000031,0.00000069,-0.0
 0000231,-0.00000176,0.00000261,-0.00000255,-0.00000292,0.00000100,0.00
 001053,0.00001027,-0.00000203,-0.00000721,-0.00002813,0.00018813,-0.00
 006735,0.00003024,0.00002690,0.00006811,-0.00008637,0.00006167,-0.0000
 9923,-0.00002065,0.00004808,0.00001229,-0.00000091,0.00000482,-0.00000
 397,-0.00000082,0.00000214,0.00000139,0.00000309,0.00000099,0.00000205
 ,-0.00017929,0.00223171,-0.00039691,0.00653361,0.01790718,-0.01153440,
 0.07394107,0.00058461,0.00049420,0.00075968,-0.00331939,-0.00835761,0.
 00363457,0.00041569,-0.00023413,-0.00049491,0.00028260,-0.00063629,-0.
 00063978,0.00023922,0.00031183,0.00010661,0.00005954,-0.00014392,-0.00
 004626,0.00000127,0.00007746,0.00000606,-0.00000593,-0.00001070,0.0000
 1691,-0.00000416,0.00000612,-0.00000559,0.00000232,-0.00000678,0.00000
 789,-0.00000082,0.00000128,-0.00000016,0.00002666,-0.00001176,-0.00000
 052,-0.00000198,0.00000737,-0.00000263,0.00000713,-0.00000186,0.000002
 78,-0.00002403,0.00000551,0.,0.00000791,0.00001952,-0.00001300,0.00001
 502,-0.00002811,0.00000120,0.00000675,0.00003532,-0.00002412,0.0000558
 7,-0.00005982,0.00001912,0.00002167,0.00006488,-0.00010947,0.00007575,
 -0.00003112,0.00000298,-0.00000358,-0.00000465,0.00000444,-0.05986050,
 -0.23083755,0.10309752,-0.00027289,0.00026856,-0.00083981,0.00015763,0
 .00037338,-0.00021574,-0.00003079,-0.00022557,-0.00001914,-0.00211400,
 0.00079000,-0.00099817,-0.00024309,0.00008604,0.00003215,0.00169507,-0
 .00045030,-0.00004893,-0.00012250,0.00003330,-0.00004559,-0.00001674,0
 .00000520,0.00001004,0.00001299,0.00002146,-0.00000143,0.00000225,0.00
 000042,0.00001166,-0.00000162,-0.00000251,-0.00000008,-0.00000327,-0.0
 0000036,-0.00000226,0.00000091,0.00000976,0.00000301,-0.00000658,0.000
 00485,0.00000314,0.00000120,-0.00000234,0.00000072,-0.00000529,0.00000
 384,0.00000282,0.00000235,-0.00000269,0.00000206,-0.00000335,0.0000021
 5,0.00000031,0.00000298,0.00000038,0.00000404,-0.00000197,-0.00000058,
 0.00000005,-0.00000473,0.00000156,0.00000331,-0.00000004,0.00000704,-0
 .00000492,-0.00000170,0.00000169,-0.00000394,-0.00000757,-0.00000298,0
 .00000220,-0.00000129,0.00000289,0.00000571,0.00000302,0.00000529,-0.0
 0000586,-0.00000620,0.00009214,-0.00003303,-0.00000106,0.00001704,0.00
 000133,-0.00003835,-0.00001003,-0.00003776,0.00001004,0.00000781,0.000
 01371,-0.00000009,0.00000572,-0.00000587,-0.00000488,0.00000180,0.0000
 0504,0.00000159,-0.00000194,-0.00000302,0.00246628,0.00566303,-0.00276
 590,-0.00668142,-0.01979136,0.01187587,0.06663144,0.25242609,-0.000178
 78,-0.00119377,0.00118926,-0.00245105,-0.00862602,0.00375842,0.0003592
 9,0.00044528,-0.00005076,0.00071872,0.00061028,0.00059560,-0.00019900,
 -0.00019578,-0.00022226,0.00002998,0.00018975,0.00009078,-0.00003173,-
 0.00008352,-0.00003750,0.00001693,0.00001664,0.00000741,0.00000232,-0.
 00000789,-0.00000530,0.00000065,0.00000619,0.00000319,-0.00000071,-0.0
 0000674,-0.00000065,-0.00000338,0.00001424,0.00000025,0.00000139,-0.00
 000423,0.00000124,-0.00000322,0.00000330,0.00000466,0.00000287,-0.0000
 0652,-0.00000014,-0.00000934,-0.00001421,-0.00000446,-0.00002005,0.000
 01808,0.00004025,-0.00002033,0.00001417,-0.00002428,-0.00000372,-0.000
 02577,0.00007955,-0.00013538,-0.00013980,-0.00018492,0.00010959,0.0004
 7873,-0.00028917,-0.00000176,0.00000301,-0.00000249,0.03393158,0.10298
 862,-0.10834081,-0.00009231,0.00033949,0.00021097,0.00022975,0.0000482
 0,0.00012991,0.00006950,-0.00007940,-0.00001241,-0.00208942,-0.0010488
 5,0.00000119,0.00006620,-0.00018681,0.00000795,-0.00014069,-0.00053589
 ,-0.00036929,-0.00012121,0.00004183,-0.00005553,0.00003043,0.00001505,
 0.00000392,-0.00006961,0.00000850,0.00005752,0.00002386,-0.00004991,0.
 00000554,0.00000106,0.00001502,0.00002986,0.00000798,-0.00000359,0.000
 00012,-0.00000199,-0.00001847,-0.00000820,0.00000154,-0.00000174,0.000
 00045,-0.00000115,0.00000198,0.00000192,-0.00000130,-0.00000320,0.0000
 0068,0.00000044,0.00000199,0.00000049,0.00000196,-0.00000101,0.0000001
 1,-0.00000060,0.00000068,-0.00000096,-0.00000004,-0.00000059,0.0000002
 4,-0.00000081,-0.00000212,-0.00000031,0.00000054,-0.00000477,0.0000011
 7,0.00000736,-0.00000178,0.00000373,0.00000964,-0.00000467,0.00000986,
 -0.00000201,-0.00000991,0.00003097,0.00004108,0.00001346,0.00001367,-0
 .00001054,-0.00002169,-0.00002057,-0.00004884,0.00017264,-0.00002318,0
 .00004891,-0.00048993,0.00014297,0.00022297,-0.00014872,-0.00004705,-0
 .00000140,-0.00000841,0.00000360,0.00000414,-0.00000073,-0.00000032,-0
 .00000328,0.00000558,0.00000117,0.00857887,0.02872664,-0.01413015,-0.0
 0331430,-0.00798386,0.00405063,-0.03556160,-0.11326904,0.11335143\\-0.
 00001002,0.00000511,-0.00000730,-0.00000011,0.00002403,0.00004242,0.00
 005598,0.00000746,0.00003153,0.00001617,-0.00000276,-0.00003270,-0.000
 03144,0.00000867,-0.00002099,0.00002812,0.00002341,-0.00000009,-0.0000
 2023,0.00003627,0.00002264,-0.00000260,-0.00003991,-0.00000165,0.00001
 802,-0.00000359,-0.00001517,0.00005413,-0.00001301,0.00007451,-0.00006
 884,-0.00002301,-0.00005134,-0.00000772,0.00001913,0.00000354,-0.00002
 368,-0.00001366,0.00000846,-0.00001048,-0.00000034,0.00006052,-0.00000
 010,-0.00001537,-0.00004127,0.00005205,0.00006133,-0.00008397,0.000003
 41,-0.00002449,0.00000275,-0.00003527,0.00003172,0.00000077,0.00001070
 ,-0.00002796,0.00003299,0.00000502,-0.00002324,-0.00004670,-0.00001218
 ,0.00000868,-0.00001921,0.00000008,-0.00000104,-0.00001201,-0.00004725
 ,-0.00003277,-0.00002837,0.00000068,0.00000770,-0.00000220,-0.00000471
 ,0.00000268,0.00001737,0.00000142,0.00000023,0.00001468,-0.00001910,-0
 .00000288,0.00000352,-0.00001101,-0.00000416,0.00000976,-0.00001571,0.
 00000321,-0.00001049,0.00000556,0.00000587,0.00000937,-0.00000331,0.00
 000851,0.00001366,0.00001822,0.00000155,-0.00000239,-0.00000184,-0.000
 02104,0.00001061,-0.00001722,-0.00003756,-0.00000737,0.00000198,0.0000
 0090,0.00000389,0.00001711,-0.00000252,-0.00001345,0.00000048,0.000006
 00,-0.00000152,-0.00000185,-0.00000988,0.00000718,-0.00000687,0.000010
 08,0.00000437,0.00001075,0.00000919,0.00000168,-0.00000073,-0.00000498
 ,0.00000713,0.00001772,-0.00000485,-0.00003132,-0.00001081,0.00000493,
 -0.00000414,0.00001194,0.00001388,0.00000423,-0.00000140,0.00002203,0.
 00001732,-0.00001146,-0.00001347,0.00003245,0.00001440,0.00000111,-0.0
 0001111,-0.00001040,-0.00001057,-0.00002023,-0.00000027,0.00000020,-0.
 00000281,0.00000406,-0.00000662,-0.00002177,-0.00000514,0.00000409,-0.
 00000013,-0.00000270,0.00000017,-0.00000248,-0.00000304,0.00000289,0.0
 0002726,-0.00000888,-0.00000637,-0.00000114,0.00000474,-0.00000007,0.0
 0000369,0.00002434,0.00001358,0.00003279,0.00000649,-0.00000215,0.0000
 0150,0.00000453,-0.00000931,-0.00000936,0.00001826,0.00001298,0.000000
 11\\\@



 WE LOSE BECAUSE WE WIN

 GAMBLERS,

 RECOLLECTING WHICH,

 TOSS THEIR DICE AGAIN....


                          EMILY DICKINSON  BOLTS OF MELODY NO. 533
 Job cpu time:       0 days  0 hours 19 minutes  8.3 seconds.
 Elapsed time:       0 days  0 hours 21 minutes 39.1 seconds.
 File lengths (MBytes):  RWF=   1168 Int=      0 D2E=      0 Chk=     16 Scr=      1
 Normal termination of Gaussian 16 at Thu Feb 22 16:48:21 2024.
