 Entering Gaussian System, Link 0=g16
 Input=/Volumes/SSD-PMU3/b3lyp_6-31gd_freq/DOPKSKFPVYAYCF-BIIVOSGPSA-N_calculating/gaussianinput1.gjf
 Output=/Volumes/SSD-PMU3/b3lyp_6-31gd_freq/DOPKSKFPVYAYCF-BIIVOSGPSA-N_calculating/gaussianinput1.log
 Initial command:
 /Applications/g16/l1.exe "/Users/macmini_m1_2022/PycharmProjects/sphere_model/sphere_model_lib/Gau-88677.inp" -scrdir="/Users/macmini_m1_2022/PycharmProjects/sphere_model/sphere_model_lib/"
 Entering Link 1 = /Applications/g16/l1.exe PID=     88678.
  
 Copyright (c) 1988,1990,1992,1993,1995,1998,2003,2009,2016,
            Gaussian, Inc.  All Rights Reserved.
  
 This is part of the Gaussian(R) 16 program.  It is based on
 the Gaussian(R) 09 system (copyright 2009, Gaussian, Inc.),
 the Gaussian(R) 03 system (copyright 2003, Gaussian, Inc.),
 the Gaussian(R) 98 system (copyright 1998, Gaussian, Inc.),
 the Gaussian(R) 94 system (copyright 1995, Gaussian, Inc.),
 the Gaussian 92(TM) system (copyright 1992, Gaussian, Inc.),
 the Gaussian 90(TM) system (copyright 1990, Gaussian, Inc.),
 the Gaussian 88(TM) system (copyright 1988, Gaussian, Inc.),
 the Gaussian 86(TM) system (copyright 1986, Carnegie Mellon
 University), and the Gaussian 82(TM) system (copyright 1983,
 Carnegie Mellon University). Gaussian is a federally registered
 trademark of Gaussian, Inc.
  
 This software contains proprietary and confidential information,
 including trade secrets, belonging to Gaussian, Inc.
  
 This software is provided under written license and may be
 used, copied, transmitted, or stored only in accord with that
 written license.
  
 The following legend is applicable only to US Government
 contracts under FAR:
  
                    RESTRICTED RIGHTS LEGEND
  
 Use, reproduction and disclosure by the US Government is
 subject to restrictions as set forth in subparagraphs (a)
 and (c) of the Commercial Computer Software - Restricted
 Rights clause in FAR 52.227-19.
  
 Gaussian, Inc.
 340 Quinnipiac St., Bldg. 40, Wallingford CT 06492
  
  
 ---------------------------------------------------------------
 Warning -- This program may not be used in any manner that
 competes with the business of Gaussian, Inc. or will provide
 assistance to any competitor of Gaussian, Inc.  The licensee
 of this program is prohibited from giving any competitor of
 Gaussian, Inc. access to this program.  By using this program,
 the user acknowledges that Gaussian, Inc. is engaged in the
 business of creating and licensing software in the field of
 computational chemistry and represents and warrants to the
 licensee that it is not a competitor of Gaussian, Inc. and that
 it will not use this program in any manner prohibited above.
 ---------------------------------------------------------------
  

 Cite this work as:
 Gaussian 16, Revision A.03,
 M. J. Frisch, G. W. Trucks, H. B. Schlegel, G. E. Scuseria, 
 M. A. Robb, J. R. Cheeseman, G. Scalmani, V. Barone, 
 G. A. Petersson, H. Nakatsuji, X. Li, M. Caricato, A. V. Marenich, 
 J. Bloino, B. G. Janesko, R. Gomperts, B. Mennucci, H. P. Hratchian, 
 J. V. Ortiz, A. F. Izmaylov, J. L. Sonnenberg, D. Williams-Young, 
 F. Ding, F. Lipparini, F. Egidi, J. Goings, B. Peng, A. Petrone, 
 T. Henderson, D. Ranasinghe, V. G. Zakrzewski, J. Gao, N. Rega, 
 G. Zheng, W. Liang, M. Hada, M. Ehara, K. Toyota, R. Fukuda, 
 J. Hasegawa, M. Ishida, T. Nakajima, Y. Honda, O. Kitao, H. Nakai, 
 T. Vreven, K. Throssell, J. A. Montgomery, Jr., J. E. Peralta, 
 F. Ogliaro, M. J. Bearpark, J. J. Heyd, E. N. Brothers, K. N. Kudin, 
 V. N. Staroverov, T. A. Keith, R. Kobayashi, J. Normand, 
 K. Raghavachari, A. P. Rendell, J. C. Burant, S. S. Iyengar, 
 J. Tomasi, M. Cossi, J. M. Millam, M. Klene, C. Adamo, R. Cammi, 
 J. W. Ochterski, R. L. Martin, K. Morokuma, O. Farkas, 
 J. B. Foresman, and D. J. Fox, Gaussian, Inc., Wallingford CT, 2016.
 
 ******************************************
 Gaussian 16:  EM64M-G16RevA.03 25-Dec-2016
                24-Feb-2024 
 ******************************************
 %nprocshared=10
 Will use up to   10 processors via shared memory.
 %mem=12GB
 %chk= 1.chk
 ---------------------
 # freq b3lyp/6-31g(d)
 ---------------------
 1/10=4,30=1,38=1/1,3;
 2/12=2,17=6,18=5,40=1/2;
 3/5=1,6=6,7=1,11=2,25=1,30=1,71=2,74=-5,140=1/1,2,3;
 4//1;
 5/5=2,38=5,98=1/2;
 8/6=4,10=90,11=11/1;
 11/6=1,8=1,9=11,15=111,16=1/1,2,10;
 10/6=1/2;
 6/7=2,8=2,9=2,10=2,28=1/1;
 7/8=1,10=1,25=1/1,2,3,16;
 1/10=4,30=1/3;
 99//99;
 ---------
 good luck
 ---------
 Symbolic Z-matrix:
 Charge =  0 Multiplicity = 1
 O                     1.21476   0.        0. 
 C                     0.        0.        0. 
 C                    -0.84207  -1.27958  -0.00063 
 C                    -2.33686  -0.91537  -0.05458 
 C                    -2.67119  -0.08213   1.22162 
 C                    -4.17671   0.12579   1.31095 
 O                    -4.94727  -0.73318   1.68451 
 O                    -4.58429   1.34468   0.88557 
 C                    -6.00576   1.56246   0.91968 
 C                    -1.78871   1.20229   1.24251 
 C                    -0.86671   1.2504   -0.00063 
 C                    -1.74623   1.22948  -1.27614 
 C                    -2.59253  -0.07767  -1.32428 
 H                    -0.59488  -1.86398   0.89574 
 H                    -0.54734  -1.89215  -0.8625 
 H                    -2.95319  -1.82034  -0.05958 
 H                    -2.43827  -0.71446   2.08514 
 H                    -6.51931   0.84269   0.27715 
 H                    -6.15454   2.57942   0.55575 
 H                    -6.3832    1.45844   1.94002 
 H                    -1.18605   1.22548   2.15717 
 H                    -2.41327   2.09918   1.24816 
 H                    -0.2227    2.13401   0.02393 
 H                    -2.39815   2.11005  -1.25738 
 H                    -1.11447   1.32068  -2.16641 
 H                    -3.65788   0.15582  -1.41897 
 H                    -2.32647  -0.67763  -2.20265 
 

 GradGradGradGradGradGradGradGradGradGradGradGradGradGradGradGradGradGrad
 Berny optimization.
 Initialization pass.
 Trust Radius=3.00D-01 FncErr=1.00D-07 GrdErr=1.00D-07 EigMax=2.50D+02 EigMin=1.00D-04
 Number of steps in this run=      2 maximum allowed number of steps=      2.
 GradGradGradGradGradGradGradGradGradGradGradGradGradGradGradGradGradGrad

                          Input orientation:                          
 ---------------------------------------------------------------------
 Center     Atomic      Atomic             Coordinates (Angstroms)
 Number     Number       Type             X           Y           Z
 ---------------------------------------------------------------------
      1          8           0        1.214764    0.000000    0.000000
      2          6           0        0.000000    0.000000    0.000000
      3          6           0       -0.842070   -1.279585   -0.000631
      4          6           0       -2.336857   -0.915369   -0.054584
      5          6           0       -2.671192   -0.082126    1.221625
      6          6           0       -4.176705    0.125790    1.310953
      7          8           0       -4.947274   -0.733180    1.684512
      8          8           0       -4.584293    1.344679    0.885566
      9          6           0       -6.005758    1.562455    0.919678
     10          6           0       -1.788712    1.202291    1.242509
     11          6           0       -0.866706    1.250401   -0.000631
     12          6           0       -1.746232    1.229475   -1.276137
     13          6           0       -2.592530   -0.077673   -1.324275
     14          1           0       -0.594883   -1.863978    0.895735
     15          1           0       -0.547341   -1.892146   -0.862503
     16          1           0       -2.953190   -1.820335   -0.059580
     17          1           0       -2.438271   -0.714456    2.085135
     18          1           0       -6.519313    0.842687    0.277154
     19          1           0       -6.154537    2.579419    0.555749
     20          1           0       -6.383197    1.458436    1.940023
     21          1           0       -1.186047    1.225475    2.157170
     22          1           0       -2.413274    2.099184    1.248156
     23          1           0       -0.222696    2.134008    0.023926
     24          1           0       -2.398149    2.110048   -1.257375
     25          1           0       -1.114466    1.320684   -2.166414
     26          1           0       -3.657882    0.155815   -1.418967
     27          1           0       -2.326467   -0.677633   -2.202653
 ---------------------------------------------------------------------
                    Distance matrix (angstroms):
                    1          2          3          4          5
     1  O    0.000000
     2  C    1.214764   0.000000
     3  C    2.422376   1.531803   0.000000
     4  C    3.668091   2.510335   1.539465   0.000000
     5  C    4.074281   2.938431   2.504697   1.560379   0.000000
     6  C    5.549987   4.379416   3.849042   2.516693   1.522425
     7  O    6.430074   5.277372   4.471126   3.141962   2.412195
     8  O    6.018426   4.858820   4.655786   3.323051   2.410117
     9  C    7.444663   6.273452   5.965554   4.533170   3.730301
    10  C    3.465574   2.487734   2.932786   2.543108   1.558504
    11  C    2.428172   1.521408   2.530106   2.618170   2.554546
    12  C    3.450744   2.487863   2.956316   2.537988   2.968950
    13  C    4.031777   2.912207   2.502146   1.542472   2.547119
    14  H    2.748013   2.151892   1.098221   2.199418   2.755406
    15  H    2.725645   2.150281   1.097688   2.192987   3.482887
    16  H    4.548517   3.469654   2.180072   1.094922   2.177701
    17  H    4.266486   3.286853   2.686568   2.151522   1.095328
    18  H    7.784785   6.579390   6.067313   4.549038   4.068825
    19  H    7.827443   6.696311   6.589672   5.211596   4.434062
    20  H    7.976198   6.829050   6.478193   5.097673   4.082696
    21  H    3.452400   2.749887   3.324117   3.286249   2.188771
    22  H    4.373457   3.433418   3.929915   3.284890   2.196665
    23  H    2.573102   2.145730   3.469416   3.711407   3.512957
    24  H    4.368802   3.432843   3.935784   3.256319   3.320485
    25  H    3.444251   2.771207   3.395028   3.309683   3.983727
    26  H    5.077443   3.926557   3.464224   2.180386   2.828940
    27  H    4.225066   3.274647   2.722991   2.161210   3.492727
                    6          7          8          9         10
     6  C    0.000000
     7  O    1.212911   0.000000
     8  O    1.353799   2.255564   0.000000
     9  C    2.358503   2.641079   1.438455   0.000000
    10  C    2.620315   3.730674   2.821871   4.244693   0.000000
    11  C    3.733778   4.839973   3.822916   5.230124   1.548485
    12  C    3.717305   4.781645   3.569429   4.803753   2.519151
    13  C    3.081466   3.876507   3.297515   4.401758   2.978726
    14  H    4.118377   4.565543   5.119666   6.404575   3.308698
    15  H    4.687031   5.214393   5.461663   6.701101   3.943047
    16  H    2.676332   2.863588   3.683899   4.660513   3.491090
    17  H    2.080270   2.540855   3.206932   4.389713   2.192228
    18  H    2.659040   2.633500   2.089608   1.092997   4.841468
    19  H    3.240748   3.702013   2.024606   1.090319   4.629098
    20  H    2.653353   2.632554   2.088271   1.092879   4.654184
    21  H    3.296881   4.266915   3.630325   4.987440   1.095604
    22  H    2.647247   3.825421   2.326816   3.647179   1.092944
    23  H    4.617745   5.770611   4.515417   5.879868   2.192133
    24  H    3.700926   4.820444   3.155505   4.249031   2.728526
    25  H    4.785098   5.808477   4.621132   5.788536   3.476979
    26  H    2.778946   3.476266   2.753635   3.600058   3.416484
    27  H    4.051456   4.688472   4.327195   5.320162   3.961368
                   11         12         13         14         15
    11  C    0.000000
    12  C    1.549490   0.000000
    13  C    2.548388   1.557939   0.000000
    14  H    3.252186   3.951213   3.479932   0.000000
    15  H    3.274205   3.369414   2.772786   1.759106   0.000000
    16  H    3.712992   3.498300   2.183209   2.544827   2.537312
    17  H    3.268165   3.944101   3.471796   2.476722   3.694745
    18  H    5.674096   5.034344   4.339500   6.542748   6.666527
    19  H    5.480603   4.960979   4.825197   7.125245   7.310744
    20  H    5.851589   5.647792   5.233013   6.755261   7.289566
    21  H    2.181446   3.478710   3.974525   3.389014   4.387018
    22  H    2.161429   2.751980   3.374647   4.374631   4.885417
    23  H    1.093670   2.197614   3.510740   4.108828   4.135344
    24  H    2.159564   1.095790   2.197358   4.866265   4.427073
    25  H    2.181041   1.095464   2.202107   4.448460   3.513416
    26  H    3.316694   2.197169   1.094741   4.338130   3.765536
    27  H    3.270645   2.198219   1.096490   3.742433   2.536993
                   16         17         18         19         20
    16  H    0.000000
    17  H    2.467370   0.000000
    18  H    4.463441   4.727409   0.000000
    19  H    5.475864   5.196082   1.796362   0.000000
    20  H    5.149146   4.506102   1.778428   1.795857   0.000000
    21  H    4.160977   2.310105   5.667867   5.392922   5.206898
    22  H    4.167051   2.935597   4.402407   3.834984   4.080383
    23  H    4.806183   4.155852   6.432653   5.972266   6.486879
    24  H    4.146166   4.376278   4.576568   4.197401   5.150588
    25  H    4.205432   4.895909   5.950788   5.864887   6.681417
    26  H    2.499939   3.810978   3.396529   4.000831   4.517408
    27  H    2.508249   4.289403   5.103016   5.733349   6.179127
                   21         22         23         24         25
    21  H    0.000000
    22  H    1.759477   0.000000
    23  H    2.510818   2.509698   0.000000
    24  H    3.729716   2.505600   2.524857   0.000000
    25  H    4.325225   3.735271   2.500868   1.759912   0.000000
    26  H    4.476929   3.526936   4.218494   2.330679   2.895611
    27  H    4.891874   4.430161   4.157984   2.944462   2.337420
                   26         27
    26  H    0.000000
    27  H    1.755410   0.000000
 Stoichiometry    C10H14O3
 Framework group  C1[X(C10H14O3)]
 Deg. of freedom    75
 Full point group                 C1      NOp   1
 Largest Abelian subgroup         C1      NOp   1
 Largest concise Abelian subgroup C1      NOp   1
                         Standard orientation:                         
 ---------------------------------------------------------------------
 Center     Atomic      Atomic             Coordinates (Angstroms)
 Number     Number       Type             X           Y           Z
 ---------------------------------------------------------------------
      1          8           0        3.676159    0.029567   -0.626618
      2          6           0        2.511583    0.067572   -0.283151
      3          6           0        1.881422    1.270668    0.425281
      4          6           0        0.411434    0.961318    0.762015
      5          6           0       -0.341575    0.704425   -0.580284
      6          6           0       -1.835848    0.595213   -0.310102
      7          8           0       -2.548651    1.555514   -0.107899
      8          8           0       -2.289418   -0.679561   -0.265400
      9          6           0       -3.690753   -0.822066    0.026328
     10          6           0        0.321624   -0.496460   -1.319863
     11          6           0        1.507915   -1.055714   -0.496605
     12          6           0        0.984698   -1.507763    0.890051
     13          6           0        0.366105   -0.297760    1.651896
     14          1           0        1.976389    2.151019   -0.224375
     15          1           0        2.462942    1.487845    1.330592
     16          1           0       -0.053040    1.811060    1.272953
     17          1           0       -0.245487    1.616467   -1.179191
     18          1           0       -3.923825   -0.395209    1.005160
     19          1           0       -3.883559   -1.895166    0.017526
     20          1           0       -4.291860   -0.315550   -0.732946
     21          1           0        0.668808   -0.178942   -2.309303
     22          1           0       -0.402576   -1.299699   -1.477558
     23          1           0        1.997013   -1.879026   -1.024861
     24          1           0        0.233270   -2.290007    0.734460
     25          1           0        1.799062   -1.959587    1.466859
     26          1           0       -0.663983   -0.516230    1.951307
     27          1           0        0.922504   -0.097732    2.575313
 ---------------------------------------------------------------------
 Rotational constants (GHZ):           1.7545269           0.5279952           0.5000081
 Standard basis: 6-31G(d) (6D, 7F)
 There are   223 symmetry adapted cartesian basis functions of A   symmetry.
 There are   223 symmetry adapted basis functions of A   symmetry.
   223 basis functions,   420 primitive gaussians,   223 cartesian basis functions
    49 alpha electrons       49 beta electrons
       nuclear repulsion energy       854.0912348723 Hartrees.
 NAtoms=   27 NActive=   27 NUniq=   27 SFac= 1.00D+00 NAtFMM=   60 NAOKFM=F Big=F
 Integral buffers will be    131072 words long.
 Raffenetti 2 integral format.
 Two-electron integral symmetry is turned on.
 One-electron integrals computed using PRISM.
 NBasis=   223 RedAO= T EigKep=  1.34D-03  NBF=   223
 NBsUse=   223 1.00D-06 EigRej= -1.00D+00 NBFU=   223
 ExpMin= 1.61D-01 ExpMax= 5.48D+03 ExpMxC= 8.25D+02 IAcc=3 IRadAn=         5 AccDes= 0.00D+00
 Harris functional with IExCor=  402 and IRadAn=       5 diagonalized for initial guess.
 HarFok:  IExCor=  402 AccDes= 0.00D+00 IRadAn=         5 IDoV= 1 UseB2=F ITyADJ=14
 ICtDFT=  3500011 ScaDFX=  1.000000  1.000000  1.000000  1.000000
 FoFCou: FMM=F IPFlag=           0 FMFlag=      100000 FMFlg1=           0
         NFxFlg=           0 DoJE=T BraDBF=F KetDBF=T FulRan=T
         wScrn=  0.000000 ICntrl=       500 IOpCl=  0 I1Cent=   200000004 NGrid=           0
         NMat0=    1 NMatS0=      1 NMatT0=    0 NMatD0=    1 NMtDS0=    0 NMtDT0=    0
 Petite list used in FoFCou.
 Requested convergence on RMS density matrix=1.00D-08 within 128 cycles.
 Requested convergence on MAX density matrix=1.00D-06.
 Requested convergence on             energy=1.00D-06.
 No special actions if energy rises.
 Integral accuracy reduced to 1.0D-05 until final iterations.
 Initial convergence to 1.0D-05 achieved.  Increase integral accuracy.
 SCF Done:  E(RB3LYP) =  -615.175527128     A.U. after   14 cycles
            NFock= 14  Conv=0.67D-08     -V/T= 2.0093
 DoSCS=F DFT=T ScalE2(SS,OS)=  1.000000  1.000000
 Range of M.O.s used for correlation:     1   223
 NBasis=   223 NAE=    49 NBE=    49 NFC=     0 NFV=     0
 NROrb=    223 NOA=    49 NOB=    49 NVA=   174 NVB=   174
 Symmetrizing basis deriv contribution to polar:
 IMax=3 JMax=2 DiffMx= 0.00D+00
 G2DrvN: will do    28 centers at a time, making    1 passes.
 Calling FoFCou, ICntrl=  3107 FMM=F I1Cent=   0 AccDes= 0.00D+00.
 End of G2Drv F.D. properties file   721 does not exist.
 End of G2Drv F.D. properties file   722 does not exist.
 End of G2Drv F.D. properties file   788 does not exist.
          IDoAtm=111111111111111111111111111
          Differentiating once with respect to electric field.
                with respect to dipole field.
          Differentiating once with respect to nuclear coordinates.
 Keep R1 ints in memory in canonical form, NReq=322414299.
          There are    84 degrees of freedom in the 1st order CPHF.  IDoFFX=6 NUNeed=     3.
     81 vectors produced by pass  0 Test12= 1.02D-14 1.19D-09 XBig12= 8.02D+01 2.68D+00.
 AX will form    81 AO Fock derivatives at one time.
     81 vectors produced by pass  1 Test12= 1.02D-14 1.19D-09 XBig12= 1.64D+01 1.23D+00.
     81 vectors produced by pass  2 Test12= 1.02D-14 1.19D-09 XBig12= 1.55D-01 5.58D-02.
     81 vectors produced by pass  3 Test12= 1.02D-14 1.19D-09 XBig12= 5.01D-04 3.48D-03.
     81 vectors produced by pass  4 Test12= 1.02D-14 1.19D-09 XBig12= 6.74D-07 8.93D-05.
     48 vectors produced by pass  5 Test12= 1.02D-14 1.19D-09 XBig12= 4.86D-10 1.73D-06.
      6 vectors produced by pass  6 Test12= 1.02D-14 1.19D-09 XBig12= 3.54D-13 6.99D-08.
      2 vectors produced by pass  7 Test12= 1.02D-14 1.19D-09 XBig12= 2.64D-16 1.91D-09.
 InvSVY:  IOpt=1 It=  1 EMax= 5.33D-15
 Solved reduced A of dimension   461 with    84 vectors.
 Isotropic polarizability for W=    0.000000      103.26 Bohr**3.
 End of Minotr F.D. properties file   721 does not exist.
 End of Minotr F.D. properties file   722 does not exist.
 End of Minotr F.D. properties file   788 does not exist.

 **********************************************************************

            Population analysis using the SCF density.

 **********************************************************************

 Orbital symmetries:
       Occupied  (A) (A) (A) (A) (A) (A) (A) (A) (A) (A) (A) (A)
                 (A) (A) (A) (A) (A) (A) (A) (A) (A) (A) (A) (A)
                 (A) (A) (A) (A) (A) (A) (A) (A) (A) (A) (A) (A)
                 (A) (A) (A) (A) (A) (A) (A) (A) (A) (A) (A) (A)
                 (A)
       Virtual   (A) (A) (A) (A) (A) (A) (A) (A) (A) (A) (A) (A)
                 (A) (A) (A) (A) (A) (A) (A) (A) (A) (A) (A) (A)
                 (A) (A) (A) (A) (A) (A) (A) (A) (A) (A) (A) (A)
                 (A) (A) (A) (A) (A) (A) (A) (A) (A) (A) (A) (A)
                 (A) (A) (A) (A) (A) (A) (A) (A) (A) (A) (A) (A)
                 (A) (A) (A) (A) (A) (A) (A) (A) (A) (A) (A) (A)
                 (A) (A) (A) (A) (A) (A) (A) (A) (A) (A) (A) (A)
                 (A) (A) (A) (A) (A) (A) (A) (A) (A) (A) (A) (A)
                 (A) (A) (A) (A) (A) (A) (A) (A) (A) (A) (A) (A)
                 (A) (A) (A) (A) (A) (A) (A) (A) (A) (A) (A) (A)
                 (A) (A) (A) (A) (A) (A) (A) (A) (A) (A) (A) (A)
                 (A) (A) (A) (A) (A) (A) (A) (A) (A) (A) (A) (A)
                 (A) (A) (A) (A) (A) (A) (A) (A) (A) (A) (A) (A)
                 (A) (A) (A) (A) (A) (A) (A) (A) (A) (A) (A) (A)
                 (A) (A) (A) (A) (A) (A)
 The electronic state is 1-A.
 Alpha  occ. eigenvalues --  -19.20144 -19.13856 -19.13401 -10.31761 -10.26923
 Alpha  occ. eigenvalues --  -10.24734 -10.21103 -10.20706 -10.19728 -10.19687
 Alpha  occ. eigenvalues --  -10.19492 -10.19446 -10.19270  -1.10744  -1.03343
 Alpha  occ. eigenvalues --   -1.01733  -0.86929  -0.77498  -0.76819  -0.73913
 Alpha  occ. eigenvalues --   -0.71761  -0.63756  -0.61852  -0.58848  -0.56552
 Alpha  occ. eigenvalues --   -0.52861  -0.50774  -0.49522  -0.47934  -0.47211
 Alpha  occ. eigenvalues --   -0.46861  -0.44980  -0.41841  -0.41483  -0.41363
 Alpha  occ. eigenvalues --   -0.40821  -0.39599  -0.39360  -0.38902  -0.38576
 Alpha  occ. eigenvalues --   -0.36492  -0.36109  -0.34426  -0.32668  -0.32049
 Alpha  occ. eigenvalues --   -0.30952  -0.30259  -0.27168  -0.23422
 Alpha virt. eigenvalues --   -0.01377   0.00398   0.06495   0.09108   0.11491
 Alpha virt. eigenvalues --    0.11846   0.12566   0.12817   0.14255   0.15064
 Alpha virt. eigenvalues --    0.15286   0.16280   0.16630   0.16839   0.17502
 Alpha virt. eigenvalues --    0.18120   0.18577   0.19504   0.20139   0.21572
 Alpha virt. eigenvalues --    0.23114   0.23184   0.24648   0.26655   0.29102
 Alpha virt. eigenvalues --    0.32442   0.33725   0.35256   0.35891   0.37732
 Alpha virt. eigenvalues --    0.48808   0.50088   0.50794   0.52316   0.52795
 Alpha virt. eigenvalues --    0.54465   0.55142   0.59109   0.59495   0.60502
 Alpha virt. eigenvalues --    0.61963   0.63234   0.63788   0.64295   0.64814
 Alpha virt. eigenvalues --    0.66447   0.67382   0.69521   0.69925   0.71117
 Alpha virt. eigenvalues --    0.72222   0.73728   0.75916   0.78721   0.80926
 Alpha virt. eigenvalues --    0.81432   0.82380   0.83666   0.83816   0.84732
 Alpha virt. eigenvalues --    0.85361   0.86213   0.86547   0.87904   0.88721
 Alpha virt. eigenvalues --    0.90028   0.91247   0.91975   0.92118   0.92828
 Alpha virt. eigenvalues --    0.93739   0.95240   0.96018   0.97014   1.00090
 Alpha virt. eigenvalues --    1.02275   1.04445   1.06219   1.08646   1.11310
 Alpha virt. eigenvalues --    1.13042   1.14559   1.17756   1.20652   1.25208
 Alpha virt. eigenvalues --    1.27532   1.29533   1.35449   1.37408   1.42209
 Alpha virt. eigenvalues --    1.46604   1.48556   1.49453   1.51828   1.55585
 Alpha virt. eigenvalues --    1.58059   1.61338   1.63386   1.65958   1.67292
 Alpha virt. eigenvalues --    1.69528   1.71636   1.72865   1.73780   1.75284
 Alpha virt. eigenvalues --    1.77317   1.78409   1.82003   1.84283   1.85031
 Alpha virt. eigenvalues --    1.86553   1.87038   1.89332   1.91463   1.92420
 Alpha virt. eigenvalues --    1.94667   1.95919   1.98200   2.01090   2.02508
 Alpha virt. eigenvalues --    2.03967   2.05107   2.06734   2.08270   2.09925
 Alpha virt. eigenvalues --    2.10766   2.12740   2.14092   2.16029   2.18024
 Alpha virt. eigenvalues --    2.23389   2.24555   2.26743   2.29763   2.30566
 Alpha virt. eigenvalues --    2.36847   2.37136   2.38088   2.39600   2.42452
 Alpha virt. eigenvalues --    2.44556   2.46732   2.47998   2.51525   2.56099
 Alpha virt. eigenvalues --    2.60007   2.60317   2.65390   2.66237   2.68287
 Alpha virt. eigenvalues --    2.71747   2.72141   2.76790   2.77527   2.80711
 Alpha virt. eigenvalues --    2.83060   2.95906   3.00187   3.02089   3.05565
 Alpha virt. eigenvalues --    3.14346   4.00808   4.05790   4.11416   4.21255
 Alpha virt. eigenvalues --    4.23342   4.29637   4.31424   4.37954   4.51887
 Alpha virt. eigenvalues --    4.58956   4.63395   4.70608   4.92684
          Condensed to atoms (all electrons):
               1          2          3          4          5          6
     1  O    8.019014   0.567813  -0.077412   0.003437   0.000064  -0.000000
     2  C    0.567813   4.509419   0.302959  -0.025767  -0.016866   0.000081
     3  C   -0.077412   0.302959   5.415337   0.292226  -0.041037   0.003969
     4  C    0.003437  -0.025767   0.292226   4.975340   0.372731  -0.025201
     5  C    0.000064  -0.016866  -0.041037   0.372731   5.188060   0.363736
     6  C   -0.000000   0.000081   0.003969  -0.025201   0.363736   4.357989
     7  O   -0.000000  -0.000005   0.000028  -0.002189  -0.067458   0.532705
     8  O    0.000000   0.000000  -0.000070  -0.002551  -0.091501   0.248938
     9  C   -0.000000   0.000000   0.000004  -0.000105   0.007740  -0.019502
    10  C    0.000530  -0.032399  -0.007141  -0.045096   0.297368  -0.025343
    11  C   -0.062924   0.358622  -0.147923   0.027445  -0.035450   0.000342
    12  C    0.000456  -0.033895  -0.007034  -0.050380  -0.015824  -0.000133
    13  C    0.000037  -0.017391  -0.043791   0.378410  -0.044939  -0.006332
    14  H   -0.000410  -0.021785   0.350382  -0.030441  -0.004215   0.000051
    15  H   -0.000273  -0.021619   0.349788  -0.028800   0.004648  -0.000111
    16  H   -0.000062   0.003169  -0.028771   0.367025  -0.044658  -0.003870
    17  H   -0.000013   0.000301  -0.006919  -0.032173   0.361640  -0.032987
    18  H    0.000000  -0.000000   0.000000   0.000070  -0.000170  -0.004711
    19  H   -0.000000   0.000000  -0.000000   0.000000  -0.000056   0.004945
    20  H    0.000000   0.000000  -0.000000  -0.000022   0.000056  -0.005279
    21  H    0.000740  -0.002815   0.001283   0.001715  -0.027321   0.002320
    22  H   -0.000069   0.003570  -0.000460   0.002174  -0.037156  -0.009012
    23  H    0.003733  -0.031913   0.008684  -0.000554   0.004376  -0.000045
    24  H   -0.000075   0.003999  -0.000540   0.001523   0.000892  -0.000026
    25  H    0.000790  -0.002925   0.001335   0.001972  -0.000049   0.000012
    26  H    0.000002   0.000300   0.004836  -0.030174  -0.008514   0.005558
    27  H   -0.000023   0.000710  -0.006027  -0.034153   0.005668  -0.000007
               7          8          9         10         11         12
     1  O   -0.000000   0.000000  -0.000000   0.000530  -0.062924   0.000456
     2  C   -0.000005   0.000000   0.000000  -0.032399   0.358622  -0.033895
     3  C    0.000028  -0.000070   0.000004  -0.007141  -0.147923  -0.007034
     4  C   -0.002189  -0.002551  -0.000105  -0.045096   0.027445  -0.050380
     5  C   -0.067458  -0.091501   0.007740   0.297368  -0.035450  -0.015824
     6  C    0.532705   0.248938  -0.019502  -0.025343   0.000342  -0.000133
     7  O    8.078524  -0.083694   0.004294   0.002675  -0.000046   0.000016
     8  O   -0.083694   8.249804   0.206840  -0.001717  -0.000770   0.000041
     9  C    0.004294   0.206840   4.897714  -0.000035   0.000016   0.000000
    10  C    0.002675  -0.001717  -0.000035   5.174717   0.335538  -0.039659
    11  C   -0.000046  -0.000770   0.000016   0.335538   5.154120   0.353984
    12  C    0.000016   0.000041   0.000000  -0.039659   0.353984   5.087524
    13  C   -0.000522   0.001230  -0.000088  -0.019479  -0.044105   0.343377
    14  H   -0.000001  -0.000001  -0.000000  -0.000264   0.003803   0.000122
    15  H    0.000000   0.000001  -0.000000   0.000196   0.004012  -0.000282
    16  H    0.006111   0.000128  -0.000034   0.006663  -0.000620   0.005488
    17  H    0.000905   0.002976  -0.000214  -0.037657   0.001759  -0.000112
    18  H    0.006520  -0.031815   0.372880  -0.000006   0.000000   0.000003
    19  H    0.000807  -0.032673   0.376462  -0.000027   0.000003  -0.000000
    20  H    0.005796  -0.030587   0.374950  -0.000036  -0.000002  -0.000000
    21  H   -0.000051   0.000247  -0.000005   0.361677  -0.035924   0.005398
    22  H    0.000196   0.011746  -0.000501   0.366808  -0.025709  -0.007565
    23  H    0.000000  -0.000012  -0.000000  -0.032377   0.349527  -0.032612
    24  H    0.000002   0.001695  -0.000045  -0.008284  -0.029982   0.366902
    25  H    0.000000   0.000015  -0.000000   0.005390  -0.035709   0.371295
    26  H   -0.000069   0.003341   0.000193   0.001047   0.001777  -0.030458
    27  H   -0.000016   0.000079  -0.000002   0.000036   0.001354  -0.033067
              13         14         15         16         17         18
     1  O    0.000037  -0.000410  -0.000273  -0.000062  -0.000013   0.000000
     2  C   -0.017391  -0.021785  -0.021619   0.003169   0.000301  -0.000000
     3  C   -0.043791   0.350382   0.349788  -0.028771  -0.006919   0.000000
     4  C    0.378410  -0.030441  -0.028800   0.367025  -0.032173   0.000070
     5  C   -0.044939  -0.004215   0.004648  -0.044658   0.361640  -0.000170
     6  C   -0.006332   0.000051  -0.000111  -0.003870  -0.032987  -0.004711
     7  O   -0.000522  -0.000001   0.000000   0.006111   0.000905   0.006520
     8  O    0.001230  -0.000001   0.000001   0.000128   0.002976  -0.031815
     9  C   -0.000088  -0.000000  -0.000000  -0.000034  -0.000214   0.372880
    10  C   -0.019479  -0.000264   0.000196   0.006663  -0.037657  -0.000006
    11  C   -0.044105   0.003803   0.004012  -0.000620   0.001759   0.000000
    12  C    0.343377   0.000122  -0.000282   0.005488  -0.000112   0.000003
    13  C    5.086134   0.004854  -0.003921  -0.038672   0.005942   0.000007
    14  H    0.004854   0.544540  -0.021012  -0.002653   0.004942  -0.000000
    15  H   -0.003921  -0.021012   0.542928  -0.002836   0.000094   0.000000
    16  H   -0.038672  -0.002653  -0.002836   0.593394  -0.002802   0.000011
    17  H    0.005942   0.004942   0.000094  -0.002802   0.576413  -0.000014
    18  H    0.000007  -0.000000   0.000000   0.000011  -0.000014   0.553222
    19  H    0.000001   0.000000   0.000000  -0.000001   0.000004  -0.031496
    20  H    0.000006  -0.000000  -0.000000  -0.000003   0.000027  -0.036643
    21  H    0.000029  -0.000054  -0.000005  -0.000150  -0.009284   0.000001
    22  H    0.000718   0.000051   0.000010  -0.000162   0.003757   0.000039
    23  H    0.004965  -0.000177  -0.000172   0.000011  -0.000129  -0.000000
    24  H   -0.029198   0.000009   0.000051  -0.000180   0.000011  -0.000009
    25  H   -0.032059  -0.000005  -0.000071  -0.000112   0.000011   0.000000
    26  H    0.368406  -0.000170  -0.000061  -0.002311   0.000022   0.000085
    27  H    0.368964   0.000035   0.004576  -0.002790  -0.000160  -0.000003
              19         20         21         22         23         24
     1  O   -0.000000   0.000000   0.000740  -0.000069   0.003733  -0.000075
     2  C    0.000000   0.000000  -0.002815   0.003570  -0.031913   0.003999
     3  C   -0.000000  -0.000000   0.001283  -0.000460   0.008684  -0.000540
     4  C    0.000000  -0.000022   0.001715   0.002174  -0.000554   0.001523
     5  C   -0.000056   0.000056  -0.027321  -0.037156   0.004376   0.000892
     6  C    0.004945  -0.005279   0.002320  -0.009012  -0.000045  -0.000026
     7  O    0.000807   0.005796  -0.000051   0.000196   0.000000   0.000002
     8  O   -0.032673  -0.030587   0.000247   0.011746  -0.000012   0.001695
     9  C    0.376462   0.374950  -0.000005  -0.000501  -0.000000  -0.000045
    10  C   -0.000027  -0.000036   0.361677   0.366808  -0.032377  -0.008284
    11  C    0.000003  -0.000002  -0.035924  -0.025709   0.349527  -0.029982
    12  C   -0.000000  -0.000000   0.005398  -0.007565  -0.032612   0.366902
    13  C    0.000001   0.000006   0.000029   0.000718   0.004965  -0.029198
    14  H    0.000000  -0.000000  -0.000054   0.000051  -0.000177   0.000009
    15  H    0.000000  -0.000000  -0.000005   0.000010  -0.000172   0.000051
    16  H   -0.000001  -0.000003  -0.000150  -0.000162   0.000011  -0.000180
    17  H    0.000004   0.000027  -0.009284   0.003757  -0.000129   0.000011
    18  H   -0.031496  -0.036643   0.000001   0.000039  -0.000000  -0.000009
    19  H    0.548061  -0.031141  -0.000001  -0.000006  -0.000000   0.000009
    20  H   -0.031141   0.548203   0.000003  -0.000004  -0.000000   0.000003
    21  H   -0.000001   0.000003   0.581160  -0.031112  -0.001993   0.000038
    22  H   -0.000006  -0.000004  -0.031112   0.546882  -0.003127   0.005931
    23  H   -0.000000  -0.000000  -0.001993  -0.003127   0.593675  -0.002780
    24  H    0.000009   0.000003   0.000038   0.005931  -0.002780   0.578527
    25  H   -0.000000   0.000000  -0.000178   0.000028  -0.002298  -0.034782
    26  H   -0.000041   0.000028   0.000005  -0.000198  -0.000126  -0.010306
    27  H    0.000000   0.000000   0.000011   0.000010  -0.000129   0.004154
              25         26         27
     1  O    0.000790   0.000002  -0.000023
     2  C   -0.002925   0.000300   0.000710
     3  C    0.001335   0.004836  -0.006027
     4  C    0.001972  -0.030174  -0.034153
     5  C   -0.000049  -0.008514   0.005668
     6  C    0.000012   0.005558  -0.000007
     7  O    0.000000  -0.000069  -0.000016
     8  O    0.000015   0.003341   0.000079
     9  C   -0.000000   0.000193  -0.000002
    10  C    0.005390   0.001047   0.000036
    11  C   -0.035709   0.001777   0.001354
    12  C    0.371295  -0.030458  -0.033067
    13  C   -0.032059   0.368406   0.368964
    14  H   -0.000005  -0.000170   0.000035
    15  H   -0.000071  -0.000061   0.004576
    16  H   -0.000112  -0.002311  -0.002790
    17  H    0.000011   0.000022  -0.000160
    18  H    0.000000   0.000085  -0.000003
    19  H   -0.000000  -0.000041   0.000000
    20  H    0.000000   0.000028   0.000000
    21  H   -0.000178   0.000005   0.000011
    22  H    0.000028  -0.000198   0.000010
    23  H   -0.002298  -0.000126  -0.000129
    24  H   -0.034782  -0.010306   0.004154
    25  H    0.581807   0.003623  -0.010171
    26  H    0.003623   0.577792  -0.034391
    27  H   -0.010171  -0.034391   0.591882
 Mulliken charges:
               1
     1  O   -0.455354
     2  C    0.456437
     3  C   -0.363707
     4  C   -0.116460
     5  C   -0.171766
     6  C    0.611914
     7  O   -0.484527
     8  O   -0.451690
     9  C   -0.220561
    10  C   -0.303124
    11  C   -0.173137
    12  C   -0.283585
    13  C   -0.282582
    14  H    0.172398
    15  H    0.172860
    16  H    0.148688
    17  H    0.163660
    18  H    0.172031
    19  H    0.165149
    20  H    0.174647
    21  H    0.154269
    22  H    0.173161
    23  H    0.143473
    24  H    0.152463
    25  H    0.152081
    26  H    0.149804
    27  H    0.143459
 Sum of Mulliken charges =  -0.00000
 Mulliken charges with hydrogens summed into heavy atoms:
               1
     1  O   -0.455354
     2  C    0.456437
     3  C   -0.018450
     4  C    0.032227
     5  C   -0.008105
     6  C    0.611914
     7  O   -0.484527
     8  O   -0.451690
     9  C    0.291266
    10  C    0.024306
    11  C   -0.029664
    12  C    0.020959
    13  C    0.010681
 APT charges:
               1
     1  O   -0.666969
     2  C    0.741356
     3  C   -0.046092
     4  C    0.125215
     5  C   -0.041552
     6  C    1.039059
     7  O   -0.690360
     8  O   -0.815165
     9  C    0.496610
    10  C    0.092072
    11  C   -0.054814
    12  C    0.107795
    13  C    0.078192
    14  H   -0.006749
    15  H   -0.015392
    16  H   -0.037427
    17  H   -0.034871
    18  H   -0.023298
    19  H   -0.007838
    20  H   -0.021793
    21  H   -0.038749
    22  H    0.006544
    23  H   -0.042009
    24  H   -0.028587
    25  H   -0.037705
    26  H   -0.034366
    27  H   -0.043109
 Sum of APT charges =   0.00000
 APT charges with hydrogens summed into heavy atoms:
               1
     1  O   -0.666969
     2  C    0.741356
     3  C   -0.068232
     4  C    0.087789
     5  C   -0.076423
     6  C    1.039059
     7  O   -0.690360
     8  O   -0.815165
     9  C    0.443680
    10  C    0.059868
    11  C   -0.096823
    12  C    0.041504
    13  C    0.000717
 Electronic spatial extent (au):  <R**2>=           2418.8572
 Charge=             -0.0000 electrons
 Dipole moment (field-independent basis, Debye):
    X=             -2.5155    Y=             -1.6276    Z=              0.8906  Tot=              3.1257
 Quadrupole moment (field-independent basis, Debye-Ang):
   XX=            -88.7754   YY=            -77.4815   ZZ=            -73.8753
   XY=              8.0890   XZ=              3.8036   YZ=             -0.3031
 Traceless Quadrupole moment (field-independent basis, Debye-Ang):
   XX=             -8.7313   YY=              2.5626   ZZ=              6.1687
   XY=              8.0890   XZ=              3.8036   YZ=             -0.3031
 Octapole moment (field-independent basis, Debye-Ang**2):
  XXX=           -105.7826  YYY=             -5.6519  ZZZ=             -3.7121  XYY=             10.2103
  XXY=            -24.7177  XXZ=             16.6101  XZZ=             -3.6500  YZZ=              2.9945
  YYZ=             -1.7399  XYZ=              0.8103
 Hexadecapole moment (field-independent basis, Debye-Ang**3):
 XXXX=          -2259.5283 YYYY=           -536.8180 ZZZZ=           -411.2158 XXXY=             79.2326
 XXXZ=             60.0970 YYYX=             25.8654 YYYZ=              1.2960 ZZZX=             -1.5667
 ZZZY=              0.4435 XXYY=           -450.1361 XXZZ=           -410.8717 YYZZ=           -156.2902
 XXYZ=             -1.1299 YYXZ=             -3.3688 ZZXY=             -2.3917
 N-N= 8.540912348723D+02 E-N=-3.141285307422D+03  KE= 6.095368292655D+02
  Exact polarizability: 121.982   2.281  99.114  -2.746   1.297  88.682
 Approx polarizability: 163.220  -1.601 152.111  -6.479   2.958 130.474
 Calling FoFJK, ICntrl=    100127 FMM=F ISym2X=0 I1Cent= 0 IOpClX= 0 NMat=1 NMatS=1 NMatT=0.
 Full mass-weighted force constant matrix:
 Low frequencies ---   -3.4894   -0.0002    0.0006    0.0008    3.2380   10.1369
 Low frequencies ---   30.1915   35.2866  100.5061
 Diagonal vibrational polarizability:
       17.3289106      42.5817108     102.2780207
 Harmonic frequencies (cm**-1), IR intensities (KM/Mole), Raman scattering
 activities (A**4/AMU), depolarization ratios for plane and unpolarized
 incident light, reduced masses (AMU), force constants (mDyne/A),
 and normal coordinates:
                      1                      2                      3
                      A                      A                      A
 Frequencies --     30.1266                35.2647               100.5056
 Red. masses --      4.5604                 4.7900                 4.7058
 Frc consts  --      0.0024                 0.0035                 0.0280
 IR Inten    --      3.9274                 0.4018                 2.2051
  Atom  AN      X      Y      Z        X      Y      Z        X      Y      Z
     1   8     0.04  -0.18   0.15    -0.02   0.06  -0.12     0.12   0.00   0.31
     2   6     0.01  -0.06   0.02     0.00   0.02  -0.03     0.03   0.05   0.02
     3   6     0.03   0.04  -0.12    -0.00   0.02  -0.04    -0.08   0.06  -0.09
     4   6     0.03   0.11  -0.08     0.01   0.01  -0.02    -0.05  -0.05  -0.07
     5   6    -0.02   0.07  -0.04     0.00  -0.08   0.01    -0.04  -0.08  -0.07
     6   6     0.00  -0.02   0.05     0.00  -0.03   0.04    -0.04  -0.02  -0.02
     7   8    -0.01  -0.07   0.23     0.09  -0.01   0.26     0.04   0.02   0.05
     8   8     0.05  -0.04  -0.10    -0.10   0.00  -0.20    -0.12   0.01  -0.02
     9   6     0.07  -0.13  -0.01    -0.11   0.06  -0.21    -0.10   0.12   0.15
    10   6     0.02   0.10  -0.07    -0.01  -0.13   0.09    -0.02  -0.08  -0.04
    11   6    -0.07   0.02  -0.01     0.04  -0.03   0.08     0.07   0.03  -0.10
    12   6    -0.16   0.07  -0.03     0.11   0.04   0.13     0.15  -0.02  -0.09
    13   6     0.00   0.15  -0.02     0.02   0.05   0.04     0.04  -0.07  -0.09
    14   1     0.04  -0.04  -0.22    -0.02   0.01  -0.05    -0.17   0.01  -0.18
    15   1     0.04   0.14  -0.15     0.01   0.04  -0.05    -0.08   0.20  -0.12
    16   1     0.06   0.14  -0.11    -0.01   0.03  -0.06    -0.10  -0.09  -0.06
    17   1    -0.11   0.07  -0.05     0.01  -0.12  -0.06    -0.04  -0.08  -0.08
    18   1     0.13  -0.28   0.07    -0.06  -0.12  -0.12     0.08   0.06   0.22
    19   1     0.11  -0.13  -0.16    -0.21   0.08  -0.44    -0.20   0.14   0.10
    20   1     0.00  -0.04   0.11    -0.08   0.28  -0.09    -0.16   0.23   0.28
    21   1     0.11   0.17  -0.02    -0.07  -0.22   0.04    -0.13  -0.12  -0.09
    22   1     0.01   0.13  -0.20    -0.01  -0.16   0.20     0.01  -0.13   0.07
    23   1    -0.10  -0.02   0.02     0.05  -0.05   0.12     0.12   0.07  -0.12
    24   1    -0.28   0.19  -0.07     0.17  -0.04   0.22     0.23  -0.10  -0.06
    25   1    -0.25  -0.07  -0.02     0.16   0.16   0.15     0.21   0.08  -0.10
    26   1     0.02   0.24   0.09     0.02   0.03   0.01     0.05  -0.15  -0.11
    27   1     0.11   0.14  -0.09    -0.03   0.12   0.06     0.01  -0.03  -0.08
                      4                      5                      6
                      A                      A                      A
 Frequencies --    114.0974               137.2581               194.7726
 Red. masses --      2.5613                 1.2002                 2.3236
 Frc consts  --      0.0196                 0.0133                 0.0519
 IR Inten    --      1.9500                 0.0317                 0.1222
  Atom  AN      X      Y      Z        X      Y      Z        X      Y      Z
     1   8    -0.04   0.07  -0.06    -0.00   0.02  -0.00     0.01  -0.10   0.03
     2   6    -0.02   0.00   0.03    -0.00   0.00   0.01    -0.01  -0.03  -0.04
     3   6    -0.02  -0.03   0.08    -0.01  -0.00   0.01     0.02  -0.04   0.02
     4   6    -0.05  -0.01  -0.03    -0.01  -0.00  -0.02     0.00   0.01  -0.00
     5   6     0.03  -0.01  -0.08     0.01  -0.01  -0.03    -0.02   0.07   0.00
     6   6     0.04   0.00  -0.07     0.01  -0.00  -0.01    -0.02   0.08  -0.00
     7   8     0.07   0.01   0.03     0.03  -0.00   0.07    -0.06   0.05   0.01
     8   8     0.03   0.01  -0.11    -0.01   0.00  -0.05     0.05   0.05  -0.03
     9   6     0.09   0.01   0.19     0.01   0.01   0.03     0.08  -0.11  -0.01
    10   6     0.05  -0.03  -0.03     0.01  -0.01  -0.01    -0.10  -0.00   0.04
    11   6     0.01  -0.02   0.04     0.01  -0.00   0.00    -0.04   0.02  -0.04
    12   6    -0.06  -0.00   0.02    -0.01   0.00  -0.00     0.16   0.05   0.05
    13   6    -0.14  -0.01  -0.04    -0.04  -0.00  -0.02    -0.09  -0.01  -0.04
    14   1     0.06   0.02   0.16     0.01   0.01   0.03     0.06  -0.00   0.07
    15   1    -0.08  -0.12   0.14    -0.02  -0.02   0.03     0.03  -0.11   0.03
    16   1    -0.08  -0.00  -0.07    -0.02  -0.00  -0.03     0.04   0.02   0.02
    17   1     0.07  -0.02  -0.09     0.01  -0.01  -0.03     0.03   0.05  -0.01
    18   1     0.36  -0.25   0.37    -0.04   0.52  -0.21     0.04  -0.15   0.00
    19   1     0.03   0.02  -0.05     0.12  -0.02   0.59     0.20  -0.13  -0.02
    20   1    -0.08   0.25   0.48    -0.04  -0.47  -0.26    -0.00  -0.18   0.01
    21   1     0.10  -0.05  -0.02     0.03  -0.02  -0.01    -0.17  -0.09  -0.01
    22   1     0.05  -0.02  -0.05     0.02  -0.01  -0.02    -0.13   0.01   0.16
    23   1     0.04  -0.03   0.07     0.01  -0.00   0.01    -0.08   0.01  -0.06
    24   1    -0.03  -0.03  -0.01    -0.00  -0.01  -0.01     0.36  -0.18   0.22
    25   1    -0.09   0.03   0.08    -0.02   0.01   0.02     0.34   0.34   0.03
    26   1    -0.17  -0.01  -0.14    -0.05  -0.00  -0.05    -0.14  -0.09  -0.29
    27   1    -0.23  -0.01   0.02    -0.06  -0.00  -0.00    -0.31  -0.01   0.09
                      7                      8                      9
                      A                      A                      A
 Frequencies --    221.1144               255.3081               315.9697
 Red. masses --      3.6258                 3.6993                 3.2240
 Frc consts  --      0.1044                 0.1421                 0.1896
 IR Inten    --      5.1864                 5.3658                 6.8196
  Atom  AN      X      Y      Z        X      Y      Z        X      Y      Z
     1   8     0.02   0.03   0.01    -0.08   0.08   0.07    -0.12  -0.06   0.02
     2   6     0.01   0.01   0.00    -0.10   0.03   0.01    -0.12   0.00  -0.02
     3   6     0.01  -0.02   0.03    -0.12   0.05  -0.07    -0.10   0.05  -0.07
     4   6    -0.02   0.02  -0.09    -0.05  -0.04  -0.01    -0.04  -0.02   0.06
     5   6     0.01  -0.02  -0.09     0.02  -0.04  -0.04     0.02   0.03   0.02
     6   6     0.05  -0.05   0.08     0.06   0.10   0.00     0.09  -0.06  -0.02
     7   8     0.07  -0.03   0.09     0.12   0.13   0.04     0.02  -0.12  -0.00
     8   8     0.06  -0.04   0.28     0.12   0.09   0.06     0.13  -0.07  -0.02
     9   6    -0.04   0.05  -0.10     0.14  -0.10  -0.07     0.11   0.19  -0.02
    10   6     0.03  -0.02  -0.07    -0.09  -0.14   0.02    -0.01   0.07  -0.04
    11   6     0.02   0.00  -0.02    -0.04  -0.04  -0.00    -0.09  -0.00  -0.01
    12   6    -0.02   0.04  -0.02    -0.07  -0.08  -0.03     0.08  -0.00   0.05
    13   6    -0.19   0.02  -0.12     0.05  -0.05   0.01     0.00  -0.04   0.05
    14   1     0.09   0.03   0.10    -0.24  -0.01  -0.17    -0.26  -0.03  -0.19
    15   1    -0.06  -0.11   0.09    -0.07   0.19  -0.14     0.00   0.20  -0.17
    16   1    -0.04   0.04  -0.14    -0.12  -0.08  -0.01    -0.08  -0.05   0.07
    17   1    -0.06  -0.04  -0.13     0.13  -0.07  -0.06     0.02   0.07   0.09
    18   1    -0.28  -0.01  -0.14    -0.02  -0.20  -0.07     0.20   0.29  -0.04
    19   1    -0.13   0.07  -0.25     0.28  -0.13  -0.14    -0.11   0.23   0.03
    20   1     0.23   0.18  -0.23     0.13  -0.15  -0.10     0.21   0.29  -0.03
    21   1     0.05  -0.03  -0.06    -0.20  -0.28  -0.06     0.11   0.15   0.03
    22   1     0.04  -0.03  -0.07    -0.12  -0.15   0.22    -0.04   0.14  -0.19
    23   1     0.04  -0.01   0.01     0.03  -0.01   0.00    -0.07   0.02  -0.02
    24   1     0.07  -0.05  -0.01    -0.15   0.01  -0.08     0.19  -0.14   0.21
    25   1    -0.00   0.16   0.05    -0.12  -0.19  -0.04     0.23   0.17  -0.03
    26   1    -0.25   0.00  -0.35     0.10  -0.03   0.18     0.00  -0.09   0.01
    27   1    -0.39  -0.01   0.01     0.20  -0.02  -0.08    -0.04  -0.02   0.07
                     10                     11                     12
                      A                      A                      A
 Frequencies --    329.1189               360.7081               402.3427
 Red. masses --      2.2269                 2.8045                 4.3358
 Frc consts  --      0.1421                 0.2150                 0.4135
 IR Inten    --      2.0583                 2.8557                 4.6671
  Atom  AN      X      Y      Z        X      Y      Z        X      Y      Z
     1   8    -0.02  -0.01   0.04    -0.08  -0.05   0.01    -0.02  -0.10  -0.01
     2   6    -0.04   0.04  -0.02    -0.08  -0.01   0.00    -0.02   0.09  -0.05
     3   6     0.05  -0.02   0.15    -0.04  -0.03   0.09     0.04   0.12  -0.02
     4   6     0.01   0.04  -0.01    -0.05  -0.01  -0.02     0.07   0.04   0.13
     5   6     0.01  -0.01  -0.03    -0.01  -0.05  -0.05     0.06  -0.05   0.14
     6   6     0.03  -0.04  -0.01     0.00  -0.02  -0.02     0.09  -0.11   0.04
     7   8    -0.01  -0.07  -0.01     0.15   0.09  -0.01     0.25   0.03  -0.10
     8   8     0.04  -0.05  -0.02    -0.07   0.00   0.04    -0.07  -0.08  -0.04
     9   6     0.03   0.06  -0.01    -0.07  -0.11   0.01    -0.07  -0.09   0.03
    10   6    -0.13  -0.09  -0.01     0.06   0.06  -0.14    -0.07   0.01   0.05
    11   6    -0.05   0.05  -0.08    -0.05   0.00  -0.03    -0.03   0.12  -0.05
    12   6    -0.01   0.06  -0.06     0.09   0.06   0.04    -0.07   0.07  -0.08
    13   6     0.08   0.07   0.01     0.09   0.05   0.06    -0.12  -0.01   0.02
    14   1     0.26   0.13   0.38     0.08   0.05   0.21    -0.16   0.08  -0.10
    15   1    -0.02  -0.34   0.28    -0.09  -0.20   0.16     0.18   0.25  -0.13
    16   1    -0.02   0.05  -0.06    -0.11  -0.01  -0.07     0.05   0.05   0.09
    17   1     0.02  -0.04  -0.07    -0.05  -0.01   0.00    -0.02  -0.04   0.15
    18   1     0.08   0.11  -0.02    -0.13  -0.16   0.02    -0.02  -0.09   0.04
    19   1    -0.06   0.08   0.02     0.02  -0.12  -0.02    -0.05  -0.09   0.05
    20   1     0.07   0.11  -0.01    -0.10  -0.15  -0.00    -0.12  -0.11   0.05
    21   1    -0.32  -0.24  -0.12     0.26   0.23  -0.01    -0.26  -0.02  -0.02
    22   1    -0.16  -0.12   0.26     0.08   0.10  -0.42    -0.08  -0.01   0.21
    23   1    -0.02   0.05  -0.06    -0.02   0.00   0.00     0.01   0.13  -0.03
    24   1    -0.07   0.12  -0.05     0.14  -0.03   0.21    -0.05   0.06  -0.16
    25   1    -0.02  -0.00  -0.10     0.22   0.18  -0.05    -0.08   0.05  -0.08
    26   1     0.12   0.07   0.16     0.15  -0.02   0.22    -0.21   0.03  -0.27
    27   1     0.21   0.09  -0.07     0.21   0.16  -0.03    -0.32  -0.22   0.18
                     13                     14                     15
                      A                      A                      A
 Frequencies --    450.6837               501.9969               560.5872
 Red. masses --      5.2301                 5.1181                 3.9198
 Frc consts  --      0.6259                 0.7599                 0.7258
 IR Inten    --      9.0963                 0.7221                 8.5091
  Atom  AN      X      Y      Z        X      Y      Z        X      Y      Z
     1   8     0.13   0.27   0.11     0.16  -0.17  -0.10     0.06  -0.01  -0.06
     2   6     0.03  -0.13  -0.16     0.14   0.07  -0.11     0.09  -0.10   0.08
     3   6    -0.02  -0.26  -0.11    -0.13  -0.04   0.02    -0.11  -0.10  -0.00
     4   6     0.01  -0.03   0.07    -0.18  -0.15   0.07    -0.16   0.03  -0.07
     5   6    -0.00  -0.02   0.09    -0.06  -0.10  -0.02    -0.09   0.16  -0.04
     6   6     0.03  -0.02   0.03    -0.04   0.04  -0.06     0.02  -0.07  -0.07
     7   8     0.06   0.01  -0.03    -0.04   0.02   0.05     0.16   0.01  -0.01
     8   8     0.01  -0.02  -0.03     0.05   0.04   0.03     0.01  -0.09   0.01
     9   6     0.02   0.00  -0.00     0.07   0.04  -0.02    -0.02  -0.01  -0.00
    10   6    -0.09   0.04  -0.05     0.03  -0.03  -0.07    -0.06   0.17   0.20
    11   6    -0.07  -0.11  -0.13     0.09   0.17  -0.03     0.03   0.03   0.04
    12   6    -0.06   0.12   0.05    -0.03   0.18  -0.00     0.04  -0.03  -0.01
    13   6    -0.07   0.08   0.13    -0.10  -0.02   0.21     0.02   0.00  -0.08
    14   1    -0.04  -0.26  -0.11    -0.37   0.04   0.09    -0.00  -0.16  -0.07
    15   1     0.13  -0.30  -0.20    -0.16   0.06   0.02    -0.26   0.01   0.07
    16   1     0.16   0.10  -0.02    -0.18  -0.07  -0.06    -0.08   0.01   0.04
    17   1     0.00   0.02   0.16     0.09  -0.05   0.09    -0.16   0.18  -0.03
    18   1     0.05   0.02   0.00     0.04   0.03  -0.03     0.00   0.02  -0.01
    19   1    -0.00   0.01   0.02     0.06   0.04  -0.03    -0.09   0.00   0.01
    20   1     0.01   0.01   0.01     0.10   0.05  -0.03     0.04   0.03  -0.02
    21   1    -0.12   0.13  -0.04    -0.08  -0.03  -0.10    -0.22  -0.06   0.08
    22   1    -0.13   0.09  -0.11     0.16  -0.16   0.03    -0.09   0.14   0.47
    23   1    -0.31  -0.30  -0.04     0.07   0.06   0.12    -0.18   0.03  -0.15
    24   1    -0.04   0.08   0.16    -0.05   0.24  -0.22     0.03  -0.01  -0.06
    25   1    -0.01   0.17   0.01    -0.11   0.02  -0.02    -0.00  -0.04   0.04
    26   1    -0.08   0.07   0.10    -0.03  -0.14   0.37     0.12  -0.10   0.21
    27   1    -0.08   0.06   0.14     0.04   0.07   0.11     0.22   0.17  -0.24
                     16                     17                     18
                      A                      A                      A
 Frequencies --    604.4794               611.2295               645.8019
 Red. masses --      3.0552                 3.6016                 3.9415
 Frc consts  --      0.6577                 0.7928                 0.9685
 IR Inten    --      0.9840                 0.9728                 1.8302
  Atom  AN      X      Y      Z        X      Y      Z        X      Y      Z
     1   8     0.03   0.05  -0.05    -0.10   0.00  -0.05     0.06   0.01  -0.05
     2   6     0.09  -0.02   0.18    -0.02  -0.16   0.20     0.10   0.01   0.12
     3   6     0.11   0.02   0.06    -0.05  -0.09   0.08     0.03   0.04   0.04
     4   6     0.08  -0.08  -0.00    -0.05   0.09   0.08    -0.00  -0.04  -0.12
     5   6     0.04   0.04  -0.13     0.04  -0.06   0.08    -0.19  -0.18   0.10
     6   6     0.01   0.00  -0.10     0.00   0.01   0.05    -0.04  -0.03   0.23
     7   8     0.00  -0.03   0.03    -0.04  -0.00  -0.00     0.02   0.09  -0.07
     8   8    -0.02  -0.01   0.03    -0.00   0.03  -0.01     0.05  -0.02  -0.07
     9   6    -0.05  -0.02   0.01     0.01   0.00  -0.00     0.13   0.04  -0.03
    10   6    -0.12   0.02  -0.14     0.08  -0.06  -0.02    -0.12  -0.01  -0.03
    11   6    -0.12   0.07  -0.00     0.11  -0.05  -0.12    -0.07   0.03   0.02
    12   6    -0.03  -0.01   0.05     0.05   0.15  -0.16    -0.01  -0.03   0.01
    13   6    -0.00  -0.05   0.09     0.00   0.10  -0.04     0.01   0.02  -0.07
    14   1    -0.10  -0.26  -0.35    -0.11  -0.44  -0.41     0.10  -0.02  -0.04
    15   1     0.08   0.56  -0.05    -0.03   0.43  -0.07    -0.19   0.18   0.15
    16   1     0.05  -0.07  -0.05    -0.05   0.14  -0.00    -0.03  -0.05  -0.14
    17   1     0.09   0.10  -0.03     0.06  -0.09   0.03    -0.35  -0.21   0.03
    18   1    -0.08  -0.03   0.00     0.01  -0.01   0.00     0.23   0.10  -0.03
    19   1    -0.03  -0.02  -0.01     0.04  -0.00  -0.00     0.02   0.06   0.03
    20   1    -0.03  -0.02  -0.01    -0.01  -0.01   0.01     0.13   0.08   0.00
    21   1    -0.16  -0.17  -0.22    -0.10  -0.03  -0.06     0.02   0.33   0.13
    22   1    -0.16   0.01   0.06     0.11  -0.11   0.10     0.04  -0.09  -0.40
    23   1    -0.13   0.06   0.01     0.17  -0.04  -0.08    -0.07   0.06  -0.03
    24   1     0.06  -0.12   0.18     0.05   0.14  -0.10     0.03  -0.10   0.11
    25   1     0.13   0.10  -0.07     0.04   0.18  -0.12     0.05   0.07   0.00
    26   1    -0.02   0.02   0.09     0.02  -0.02  -0.06     0.00   0.07  -0.04
    27   1     0.01  -0.03   0.09     0.01   0.00  -0.02     0.01   0.07  -0.08
                     19                     20                     21
                      A                      A                      A
 Frequencies --    735.7703               762.5370               815.0251
 Red. masses --      4.3551                 4.2693                 3.9110
 Frc consts  --      1.3891                 1.4626                 1.5307
 IR Inten    --      2.9278                 5.9980                 5.4972
  Atom  AN      X      Y      Z        X      Y      Z        X      Y      Z
     1   8    -0.16   0.02   0.05     0.01  -0.02  -0.01    -0.03  -0.01   0.00
     2   6    -0.13   0.04   0.06     0.01   0.03  -0.02    -0.03  -0.00  -0.01
     3   6     0.08  -0.23  -0.12    -0.11  -0.02   0.01     0.01  -0.00  -0.00
     4   6     0.13  -0.17  -0.13    -0.01  -0.13  -0.12    -0.02   0.11   0.03
     5   6    -0.05  -0.03  -0.04     0.18   0.08   0.01    -0.06   0.16  -0.11
     6   6    -0.02  -0.00   0.03     0.19  -0.01   0.31    -0.05   0.01   0.22
     7   8    -0.00   0.02  -0.01    -0.04  -0.12  -0.09    -0.01   0.13  -0.05
     8   8     0.01  -0.01  -0.01    -0.05   0.13  -0.06     0.03  -0.15  -0.06
     9   6     0.02   0.00  -0.00    -0.07  -0.01   0.01    -0.01  -0.02  -0.00
    10   6     0.04   0.06   0.06     0.02   0.03  -0.05     0.03  -0.03  -0.17
    11   6     0.04   0.26   0.11     0.00   0.02   0.01     0.14  -0.04  -0.04
    12   6     0.03   0.10  -0.00    -0.04   0.01   0.04     0.04  -0.10   0.06
    13   6     0.01  -0.04   0.03    -0.04   0.00  -0.06    -0.05  -0.03   0.15
    14   1     0.13  -0.24  -0.13    -0.25   0.03   0.06     0.05  -0.03  -0.03
    15   1     0.08  -0.25  -0.12    -0.19   0.03   0.05     0.12  -0.02  -0.07
    16   1     0.32  -0.07  -0.14    -0.04  -0.14  -0.12     0.04   0.15   0.04
    17   1    -0.07   0.01   0.02     0.04   0.14   0.07    -0.27   0.19  -0.11
    18   1     0.04   0.02  -0.01    -0.09  -0.10   0.05     0.13   0.10  -0.02
    19   1    -0.02   0.01   0.01     0.18  -0.05  -0.00    -0.25   0.03   0.07
    20   1     0.03   0.02  -0.00    -0.22  -0.12   0.05     0.07   0.09   0.01
    21   1    -0.02  -0.05   0.00    -0.11  -0.17  -0.16    -0.15  -0.29  -0.32
    22   1     0.19  -0.11   0.21    -0.12   0.11   0.24    -0.03  -0.04   0.19
    23   1     0.12   0.31   0.11     0.02  -0.01   0.06     0.31   0.03   0.01
    24   1    -0.02   0.21  -0.30     0.07  -0.11   0.10    -0.02  -0.02  -0.07
    25   1    -0.06  -0.12  -0.05     0.02   0.18   0.08    -0.05  -0.23   0.09
    26   1    -0.03  -0.02  -0.08     0.04   0.07   0.26    -0.04  -0.10   0.15
    27   1    -0.08   0.03   0.07     0.20   0.20  -0.24    -0.06   0.00   0.15
                     22                     23                     24
                      A                      A                      A
 Frequencies --    828.2732               844.9782               872.6930
 Red. masses --      1.3995                 3.2397                 2.4485
 Frc consts  --      0.5657                 1.3628                 1.0987
 IR Inten    --      2.7613                 6.1779                 2.5735
  Atom  AN      X      Y      Z        X      Y      Z        X      Y      Z
     1   8    -0.00   0.01   0.01    -0.01   0.01  -0.00     0.03   0.02   0.01
     2   6    -0.01   0.02  -0.01    -0.00  -0.02   0.03     0.01  -0.04  -0.05
     3   6     0.07  -0.01  -0.02     0.05  -0.01  -0.05     0.02   0.00   0.04
     4   6    -0.01   0.04   0.02    -0.07   0.16  -0.03    -0.04   0.06   0.05
     5   6    -0.01  -0.01   0.00    -0.05  -0.07  -0.05    -0.02   0.05  -0.13
     6   6    -0.02   0.00   0.00     0.08  -0.05   0.01     0.04  -0.01   0.11
     7   8    -0.00   0.02   0.00     0.02  -0.13  -0.02     0.00  -0.01  -0.03
     8   8     0.00  -0.02  -0.00    -0.05   0.18   0.01    -0.00   0.01  -0.02
     9   6     0.01  -0.00  -0.00     0.04   0.03  -0.01    -0.01  -0.00   0.00
    10   6     0.06  -0.03   0.04    -0.03   0.03   0.04     0.01  -0.08   0.05
    11   6    -0.02   0.03   0.02     0.01   0.05  -0.05    -0.13   0.01   0.11
    12   6    -0.07  -0.01  -0.07     0.07  -0.14  -0.01     0.04   0.14  -0.07
    13   6    -0.09  -0.04  -0.00    -0.07  -0.01   0.19     0.05  -0.11  -0.01
    14   1     0.07  -0.01  -0.03     0.31  -0.05  -0.08    -0.02  -0.07  -0.07
    15   1     0.16  -0.04  -0.07     0.04  -0.09  -0.02     0.16   0.07  -0.07
    16   1     0.05   0.07   0.02    -0.08   0.28  -0.23    -0.10  -0.01   0.11
    17   1    -0.02  -0.05  -0.07    -0.17  -0.14  -0.18    -0.12  -0.02  -0.26
    18   1     0.02   0.02  -0.01    -0.08  -0.10   0.02    -0.00  -0.01   0.01
    19   1    -0.03   0.01   0.01     0.33  -0.02  -0.07     0.02  -0.01   0.01
    20   1     0.02   0.02  -0.00    -0.09  -0.10   0.01    -0.03  -0.01   0.01
    21   1     0.06  -0.04   0.03    -0.01   0.13   0.08     0.35  -0.11   0.15
    22   1     0.10  -0.06   0.05     0.06  -0.03  -0.07     0.01  -0.04  -0.18
    23   1     0.01   0.03   0.05     0.01   0.17  -0.24    -0.33  -0.18   0.23
    24   1     0.28  -0.38   0.08     0.03  -0.08  -0.15    -0.05   0.26  -0.21
    25   1     0.16   0.44  -0.04     0.05  -0.27  -0.09    -0.00  -0.10  -0.19
    26   1     0.03   0.07   0.47    -0.06  -0.13   0.15     0.08  -0.36  -0.09
    27   1     0.36  -0.11  -0.26    -0.10  -0.03   0.21    -0.03  -0.16   0.04
                     25                     26                     27
                      A                      A                      A
 Frequencies --    904.0225               913.1693               956.7734
 Red. masses --      1.8329                 2.8802                 2.7753
 Frc consts  --      0.8826                 1.4150                 1.4969
 IR Inten    --      4.4558                 2.3039                13.9793
  Atom  AN      X      Y      Z        X      Y      Z        X      Y      Z
     1   8    -0.00  -0.01   0.02     0.01   0.01  -0.01    -0.03   0.01   0.02
     2   6    -0.03   0.07  -0.10     0.02  -0.03   0.02    -0.04  -0.05  -0.08
     3   6     0.06  -0.07   0.13    -0.04   0.05  -0.02     0.09   0.10   0.10
     4   6     0.00  -0.02  -0.01     0.00  -0.02  -0.12     0.01  -0.09  -0.03
     5   6     0.02   0.01  -0.03     0.16  -0.06  -0.01    -0.06  -0.06  -0.08
     6   6     0.01   0.02  -0.00    -0.00   0.08   0.05    -0.08  -0.07   0.03
     7   8    -0.01   0.01   0.00    -0.06   0.08   0.01     0.01   0.01  -0.01
     8   8     0.01  -0.02  -0.00     0.06  -0.11  -0.02    -0.07   0.04   0.01
     9   6    -0.03  -0.01   0.00    -0.07  -0.03   0.01     0.12   0.02  -0.03
    10   6    -0.05  -0.03   0.08     0.08   0.03   0.13     0.15   0.12   0.07
    11   6     0.02   0.01  -0.05    -0.11   0.01  -0.07    -0.00  -0.07  -0.10
    12   6     0.05  -0.05   0.05     0.02  -0.04  -0.08    -0.04   0.04   0.04
    13   6    -0.06   0.06  -0.04    -0.02   0.02   0.14     0.01  -0.01   0.01
    14   1    -0.33  -0.24  -0.17     0.07   0.08   0.04    -0.09   0.02  -0.05
    15   1     0.25   0.36  -0.10    -0.23   0.01   0.11     0.24   0.21  -0.03
    16   1     0.03   0.02  -0.06    -0.10   0.09  -0.39    -0.21  -0.23  -0.01
    17   1     0.05  -0.07  -0.15     0.33  -0.12  -0.07    -0.25  -0.00  -0.02
    18   1    -0.01   0.01   0.00     0.02   0.06  -0.01     0.09   0.01  -0.02
    19   1    -0.05  -0.00   0.01    -0.27   0.00   0.06     0.13   0.02  -0.02
    20   1    -0.01   0.01   0.00     0.02   0.06   0.01     0.08   0.01  -0.01
    21   1     0.18   0.18   0.23     0.12   0.00   0.14    -0.13  -0.22  -0.13
    22   1    -0.04   0.04  -0.28     0.05   0.06   0.09     0.15   0.03   0.49
    23   1     0.05   0.13  -0.21    -0.30   0.00  -0.24    -0.27  -0.16  -0.20
    24   1    -0.04   0.07  -0.13    -0.01  -0.03   0.00    -0.08   0.06   0.15
    25   1    -0.12  -0.18   0.19     0.15  -0.07  -0.29    -0.01   0.03  -0.00
    26   1     0.00   0.03   0.18    -0.07  -0.02  -0.04    -0.01   0.00  -0.05
    27   1     0.08   0.24  -0.16    -0.14   0.02   0.22    -0.07   0.07   0.04
                     28                     29                     30
                      A                      A                      A
 Frequencies --    961.8299               998.7611              1041.3946
 Red. masses --      2.4545                 2.7782                 3.0676
 Frc consts  --      1.3379                 1.6328                 1.9601
 IR Inten    --      0.8340                 4.3315                17.7509
  Atom  AN      X      Y      Z        X      Y      Z        X      Y      Z
     1   8    -0.04   0.02   0.01    -0.02  -0.01  -0.00    -0.01   0.00  -0.00
     2   6    -0.02  -0.05   0.03     0.01   0.03   0.04    -0.00  -0.04   0.03
     3   6     0.15   0.12  -0.05    -0.05   0.05   0.01    -0.01   0.03  -0.03
     4   6    -0.09  -0.07  -0.07     0.16  -0.09  -0.06     0.02  -0.02   0.06
     5   6     0.05  -0.00   0.06    -0.09   0.11  -0.07    -0.11  -0.02  -0.11
     6   6     0.02   0.02  -0.02    -0.01  -0.03  -0.01     0.09   0.04   0.03
     7   8    -0.01   0.00   0.01     0.03  -0.02  -0.01    -0.00  -0.02  -0.01
     8   8     0.02  -0.02  -0.00    -0.03   0.02   0.01     0.17   0.03  -0.04
     9   6    -0.04  -0.01   0.01     0.03   0.01  -0.01    -0.19  -0.01   0.04
    10   6    -0.09   0.04  -0.01    -0.06  -0.04   0.09    -0.00   0.00   0.08
    11   6     0.09  -0.09  -0.00     0.08  -0.16  -0.03     0.07   0.03  -0.13
    12   6     0.05   0.12   0.01     0.00   0.08  -0.12    -0.10   0.05   0.09
    13   6    -0.08  -0.09   0.01    -0.05  -0.00   0.13     0.06  -0.05  -0.00
    14   1     0.39   0.08  -0.07    -0.25   0.18   0.17     0.11   0.05   0.02
    15   1     0.15  -0.04  -0.01    -0.29   0.09   0.15     0.03  -0.10  -0.01
    16   1    -0.30  -0.15  -0.13     0.45   0.06  -0.05    -0.04  -0.20   0.28
    17   1     0.13   0.04   0.13    -0.18   0.09  -0.12    -0.07  -0.13  -0.26
    18   1    -0.02   0.00   0.01    -0.00  -0.02  -0.00    -0.16  -0.04   0.05
    19   1    -0.05  -0.01   0.01     0.08   0.00  -0.02    -0.04  -0.04   0.01
    20   1    -0.02   0.00   0.00     0.00  -0.02  -0.00    -0.15  -0.03   0.01
    21   1    -0.13   0.21   0.04     0.14   0.13   0.21    -0.08   0.21   0.12
    22   1    -0.18   0.14  -0.11    -0.13   0.09  -0.23     0.26  -0.20  -0.06
    23   1     0.11  -0.16   0.14     0.15  -0.17   0.04     0.02   0.11  -0.32
    24   1    -0.00   0.21  -0.20     0.11  -0.02  -0.09    -0.07  -0.01   0.30
    25   1    -0.15  -0.05   0.16     0.01   0.17  -0.06    -0.09   0.23   0.20
    26   1     0.03  -0.28   0.27    -0.08   0.13   0.12     0.00   0.07  -0.11
    27   1     0.11   0.09  -0.14     0.03  -0.13   0.11    -0.02  -0.16   0.07
                     31                     32                     33
                      A                      A                      A
 Frequencies --   1060.6267              1073.5934              1081.6134
 Red. masses --      2.5139                 3.1398                 2.6768
 Frc consts  --      1.6662                 2.1322                 1.8451
 IR Inten    --      0.7699                30.3017                30.4415
  Atom  AN      X      Y      Z        X      Y      Z        X      Y      Z
     1   8     0.00  -0.01   0.00    -0.00   0.01   0.01     0.00   0.01  -0.02
     2   6    -0.02  -0.03  -0.05    -0.02  -0.05  -0.05     0.03  -0.07   0.10
     3   6    -0.09  -0.03   0.05     0.02   0.02   0.05    -0.02   0.04  -0.09
     4   6     0.09   0.13  -0.01     0.03  -0.04   0.04     0.00  -0.08   0.16
     5   6     0.09  -0.13  -0.08    -0.08  -0.11  -0.04     0.06  -0.04  -0.16
     6   6    -0.01   0.02   0.01     0.03   0.01  -0.00     0.02   0.02   0.07
     7   8    -0.03   0.02   0.00    -0.01  -0.00  -0.00    -0.02   0.01  -0.01
     8   8    -0.04  -0.02   0.01     0.15   0.04  -0.03    -0.11  -0.04   0.01
     9   6     0.04  -0.01  -0.01    -0.14  -0.00   0.03     0.10  -0.00  -0.02
    10   6    -0.09   0.14  -0.00    -0.04   0.12  -0.05    -0.09   0.03   0.03
    11   6     0.09   0.00   0.05     0.03  -0.06   0.18     0.03   0.03   0.01
    12   6    -0.04   0.04   0.06     0.07  -0.07  -0.14     0.04  -0.02  -0.04
    13   6     0.04  -0.11  -0.02    -0.03   0.14   0.01    -0.03   0.10  -0.02
    14   1    -0.17  -0.04   0.01    -0.31   0.09   0.10    -0.03   0.23   0.18
    15   1    -0.07   0.06   0.02     0.29  -0.02  -0.11     0.29  -0.39  -0.18
    16   1     0.01   0.22  -0.25    -0.15  -0.00  -0.18    -0.20  -0.23   0.23
    17   1     0.09  -0.27  -0.29    -0.14   0.01   0.13     0.25  -0.05  -0.13
    18   1     0.05   0.03  -0.02    -0.10  -0.02   0.04     0.07   0.02  -0.03
    19   1    -0.06   0.01   0.01    -0.01  -0.02   0.00    -0.05   0.02   0.01
    20   1     0.05   0.03   0.00    -0.10  -0.02   0.00     0.08   0.02   0.00
    21   1    -0.28   0.24  -0.03    -0.17  -0.06  -0.15     0.12   0.05   0.11
    22   1    -0.09   0.14   0.04     0.01   0.02   0.21    -0.04   0.02  -0.15
    23   1     0.01  -0.10   0.14    -0.11  -0.21   0.28    -0.03   0.17  -0.26
    24   1     0.09  -0.05  -0.07     0.18  -0.15  -0.30     0.04  -0.00  -0.09
    25   1    -0.11   0.13   0.24     0.12  -0.05  -0.18    -0.06   0.02   0.13
    26   1     0.05  -0.08   0.00    -0.06   0.23  -0.03    -0.05   0.25   0.03
    27   1     0.14  -0.46  -0.00    -0.01   0.07   0.02     0.02   0.12  -0.05
                     34                     35                     36
                      A                      A                      A
 Frequencies --   1091.8075              1140.6387              1173.6703
 Red. masses --      1.8761                 1.4570                 1.1384
 Frc consts  --      1.3177                 1.1169                 0.9239
 IR Inten    --     10.2395                 9.2435                 5.7001
  Atom  AN      X      Y      Z        X      Y      Z        X      Y      Z
     1   8     0.01  -0.02  -0.00     0.00   0.01   0.01    -0.00   0.01   0.00
     2   6     0.00   0.12  -0.01    -0.03  -0.08  -0.09    -0.01  -0.05  -0.01
     3   6     0.05  -0.07   0.01    -0.02   0.03   0.05    -0.00   0.02   0.02
     4   6    -0.11  -0.03  -0.01     0.00  -0.01  -0.03     0.00   0.01  -0.03
     5   6     0.01   0.02  -0.05    -0.00   0.06   0.01     0.01   0.04   0.02
     6   6     0.00  -0.00   0.03     0.01   0.00   0.01     0.02   0.02  -0.01
     7   8    -0.00  -0.00  -0.00     0.01  -0.01  -0.00     0.00  -0.01   0.00
     8   8    -0.02  -0.01   0.00    -0.03  -0.01   0.00    -0.03  -0.01   0.00
     9   6     0.02  -0.00  -0.00     0.02   0.00  -0.00     0.02  -0.00   0.00
    10   6    -0.03   0.02   0.05    -0.03  -0.04   0.01    -0.00  -0.01   0.00
    11   6     0.05  -0.06   0.04     0.05   0.07   0.01     0.02   0.03  -0.01
    12   6    -0.10  -0.01  -0.08    -0.03  -0.02   0.00    -0.03  -0.02   0.01
    13   6     0.10   0.04   0.04     0.04   0.02   0.04    -0.00  -0.01   0.01
    14   1     0.08  -0.16  -0.11     0.32  -0.19  -0.21    -0.13   0.05   0.05
    15   1     0.23  -0.01  -0.12    -0.18   0.13   0.11     0.09  -0.01  -0.04
    16   1    -0.26  -0.02  -0.16    -0.33  -0.23   0.03     0.05  -0.12   0.23
    17   1     0.07   0.06   0.03     0.10   0.14   0.14     0.05  -0.18  -0.31
    18   1     0.02   0.00  -0.01    -0.01  -0.01  -0.00    -0.04  -0.00  -0.01
    19   1    -0.00   0.00   0.00     0.01   0.00  -0.00    -0.02   0.00  -0.01
    20   1     0.02   0.00  -0.00     0.01  -0.01  -0.00     0.04  -0.00  -0.01
    21   1    -0.05   0.12   0.08     0.08   0.04   0.07    -0.31   0.34   0.01
    22   1    -0.17   0.17  -0.05     0.10  -0.13  -0.12     0.19  -0.17  -0.04
    23   1     0.40   0.10   0.12    -0.06  -0.05   0.09     0.07  -0.15   0.33
    24   1    -0.06  -0.13   0.37     0.23  -0.20  -0.32    -0.02  -0.04   0.05
    25   1     0.10   0.24  -0.17    -0.01   0.10   0.07     0.20  -0.09  -0.36
    26   1     0.04  -0.11  -0.29    -0.09   0.42  -0.11    -0.00  -0.04  -0.00
    27   1    -0.17  -0.06   0.22    -0.02  -0.16   0.11    -0.10   0.37  -0.01
                     37                     38                     39
                      A                      A                      A
 Frequencies --   1185.1793              1196.7181              1218.1618
 Red. masses --      1.2743                 1.2538                 1.4742
 Frc consts  --      1.0546                 1.0580                 1.2889
 IR Inten    --      1.3717                 4.0571                 5.2993
  Atom  AN      X      Y      Z        X      Y      Z        X      Y      Z
     1   8     0.00   0.00  -0.00     0.00  -0.01  -0.00     0.00  -0.00  -0.00
     2   6     0.00  -0.00   0.00     0.00   0.09  -0.01     0.00   0.02   0.00
     3   6    -0.00   0.00   0.00    -0.01  -0.02  -0.02    -0.01  -0.00  -0.00
     4   6     0.00   0.00  -0.00    -0.01  -0.00   0.04     0.00   0.00   0.01
     5   6     0.00   0.00  -0.00     0.01  -0.07  -0.03     0.02  -0.01  -0.01
     6   6    -0.00  -0.00  -0.01    -0.00  -0.00   0.01    -0.04  -0.02   0.01
     7   8     0.00   0.00   0.00    -0.01   0.00  -0.00    -0.01   0.04   0.00
     8   8     0.02  -0.00   0.06     0.01   0.02  -0.01     0.02  -0.10  -0.01
     9   6    -0.03   0.00  -0.13    -0.01  -0.02   0.01    -0.00   0.15   0.01
    10   6     0.00  -0.00   0.00     0.03   0.03   0.01     0.00   0.01   0.00
    11   6     0.00   0.00  -0.00    -0.02  -0.03  -0.01    -0.01  -0.00  -0.00
    12   6    -0.00  -0.00   0.00     0.03   0.00  -0.00     0.01   0.00   0.00
    13   6    -0.00  -0.00   0.00    -0.03  -0.00   0.00    -0.00  -0.00  -0.00
    14   1     0.01  -0.00  -0.00     0.39  -0.18  -0.18     0.05  -0.02  -0.02
    15   1     0.00  -0.01  -0.00    -0.26   0.09   0.12    -0.01  -0.01   0.00
    16   1    -0.01  -0.03   0.04     0.11  -0.19   0.44    -0.00  -0.02   0.04
    17   1    -0.02  -0.02  -0.04    -0.08  -0.18  -0.21     0.09  -0.05  -0.05
    18   1     0.67   0.01   0.03     0.00   0.04  -0.02    -0.27  -0.33   0.16
    19   1     0.05  -0.01   0.28    -0.08  -0.00   0.00     0.70   0.02  -0.15
    20   1    -0.59  -0.01   0.30     0.07   0.04  -0.01    -0.32  -0.32  -0.06
    21   1    -0.01   0.01   0.00    -0.02  -0.04  -0.03    -0.02   0.00  -0.01
    22   1    -0.02   0.02  -0.00    -0.28   0.30   0.08    -0.04   0.05   0.00
    23   1     0.02  -0.01   0.03     0.06  -0.10   0.17     0.01  -0.02   0.04
    24   1     0.01  -0.01  -0.01     0.02   0.03  -0.09     0.00   0.01  -0.01
    25   1     0.01  -0.01  -0.02     0.03  -0.08  -0.08     0.00  -0.02  -0.01
    26   1    -0.01   0.02  -0.00    -0.07   0.25   0.05    -0.01   0.04   0.01
    27   1    -0.01   0.03   0.00    -0.01   0.11  -0.03     0.00   0.00  -0.01
                     40                     41                     42
                      A                      A                      A
 Frequencies --   1230.3283              1252.4544              1266.6575
 Red. masses --      1.6338                 1.4911                 1.2155
 Frc consts  --      1.4571                 1.3781                 1.1490
 IR Inten    --    125.1203                 9.2431                 3.2052
  Atom  AN      X      Y      Z        X      Y      Z        X      Y      Z
     1   8     0.02   0.01  -0.02     0.02   0.03   0.01    -0.02  -0.00   0.00
     2   6     0.01  -0.05   0.04    -0.03  -0.15  -0.09     0.00   0.01   0.01
     3   6    -0.06   0.00   0.01     0.04   0.03  -0.01     0.03  -0.00  -0.01
     4   6     0.03   0.03  -0.06     0.01  -0.00   0.02    -0.05  -0.01  -0.02
     5   6     0.06   0.02   0.05     0.00  -0.03  -0.00     0.03  -0.00   0.03
     6   6    -0.10  -0.08  -0.02     0.00   0.01  -0.00    -0.02  -0.01  -0.00
     7   8     0.01   0.02   0.00    -0.00   0.00   0.00     0.00   0.00   0.00
     8   8     0.05   0.05  -0.01     0.00  -0.00  -0.00     0.01   0.00  -0.00
     9   6    -0.03  -0.00   0.01    -0.00   0.01   0.00    -0.00   0.00   0.00
    10   6     0.00  -0.03   0.02    -0.02   0.02  -0.00    -0.01  -0.00  -0.03
    11   6    -0.02   0.04  -0.05    -0.02   0.02   0.06     0.03   0.01   0.01
    12   6    -0.01   0.02   0.03    -0.02   0.01  -0.02    -0.06  -0.02  -0.02
    13   6     0.01  -0.04   0.02    -0.01   0.02   0.00     0.07   0.02   0.03
    14   1    -0.18   0.05   0.07    -0.09   0.08   0.05    -0.09   0.06   0.05
    15   1     0.35  -0.22  -0.19    -0.34   0.19   0.20    -0.01   0.02   0.01
    16   1    -0.31  -0.17  -0.04     0.07  -0.04   0.13     0.22   0.01   0.19
    17   1    -0.35  -0.08  -0.17    -0.03  -0.07  -0.06    -0.04  -0.13  -0.18
    18   1     0.01   0.03   0.00    -0.01  -0.01   0.01    -0.00  -0.00   0.00
    19   1     0.04  -0.01  -0.03     0.02   0.00  -0.01     0.02  -0.00  -0.01
    20   1     0.08   0.03  -0.04    -0.01  -0.01  -0.00     0.01  -0.00  -0.01
    21   1     0.19  -0.13   0.05     0.16  -0.15   0.00     0.09  -0.09  -0.02
    22   1    -0.31   0.26  -0.04    -0.11   0.10   0.04    -0.09   0.07  -0.01
    23   1     0.26   0.10   0.12     0.55   0.46  -0.11    -0.29  -0.09  -0.12
    24   1     0.07  -0.03  -0.14    -0.06   0.02   0.11     0.25  -0.25  -0.32
    25   1     0.02  -0.02  -0.05     0.02   0.06  -0.05    -0.17   0.23   0.33
    26   1    -0.05   0.20  -0.02     0.05  -0.26   0.02     0.09  -0.32  -0.13
    27   1    -0.01   0.02   0.02    -0.03   0.11  -0.00    -0.17   0.32   0.11
                     43                     44                     45
                      A                      A                      A
 Frequencies --   1289.5940              1294.5425              1315.9362
 Red. masses --      1.6720                 3.0773                 1.4840
 Frc consts  --      1.6383                 3.0385                 1.5141
 IR Inten    --      1.0632               238.8211                 2.8662
  Atom  AN      X      Y      Z        X      Y      Z        X      Y      Z
     1   8    -0.01   0.01  -0.00     0.01  -0.00  -0.01     0.00  -0.00  -0.00
     2   6     0.00  -0.04   0.02     0.01  -0.00   0.02    -0.00  -0.01  -0.01
     3   6     0.08  -0.01  -0.03    -0.02  -0.00   0.03    -0.08   0.04   0.03
     4   6    -0.07  -0.01   0.04     0.03   0.03  -0.05     0.09   0.02   0.04
     5   6    -0.05  -0.02  -0.06    -0.11  -0.06   0.06    -0.00  -0.06  -0.07
     6   6     0.01   0.01   0.02     0.25   0.24  -0.07    -0.01  -0.01   0.00
     7   8     0.00  -0.00  -0.00    -0.04  -0.02   0.01    -0.00   0.01  -0.00
     8   8    -0.00  -0.00  -0.00    -0.09  -0.11   0.01     0.01   0.01  -0.00
     9   6    -0.00  -0.00  -0.00     0.06   0.01  -0.01    -0.01   0.00   0.00
    10   6     0.06  -0.03   0.05     0.05  -0.02  -0.01    -0.03  -0.01   0.04
    11   6    -0.05   0.05  -0.11    -0.00  -0.00  -0.01     0.06   0.04  -0.03
    12   6    -0.01  -0.02   0.08    -0.01   0.02   0.01    -0.06  -0.01   0.02
    13   6     0.03   0.04  -0.04     0.01  -0.04   0.02    -0.01  -0.02  -0.03
    14   1    -0.26   0.18   0.17    -0.11  -0.00   0.02     0.27  -0.11  -0.13
    15   1    -0.12   0.10   0.08     0.24  -0.10  -0.12     0.07  -0.08  -0.04
    16   1     0.15   0.20  -0.12    -0.13  -0.09   0.00     0.10   0.11  -0.10
    17   1     0.19   0.13   0.21    -0.56   0.00   0.06    -0.01   0.27   0.44
    18   1     0.00  -0.00  -0.00    -0.18  -0.12   0.01     0.01   0.00   0.00
    19   1    -0.01  -0.00   0.01    -0.14   0.03   0.02     0.02  -0.00  -0.00
    20   1    -0.00   0.00   0.00    -0.15  -0.12   0.05     0.01   0.00  -0.01
    21   1    -0.11   0.12   0.04     0.14  -0.14  -0.01     0.17  -0.10   0.08
    22   1    -0.24   0.26  -0.00    -0.30   0.28   0.11    -0.10   0.08  -0.07
    23   1     0.18  -0.17   0.44     0.04   0.06  -0.07    -0.05  -0.12   0.12
    24   1     0.15  -0.10  -0.33     0.06  -0.03  -0.11     0.01  -0.08   0.03
    25   1     0.03  -0.07  -0.02     0.00   0.04  -0.01     0.12   0.00  -0.22
[...]
 0.00006184,0.00002642,-0.00001061,0.00000563,0.00000067,0.00000014,-0.
 00001327,0.00000403,0.00000072,0.00000990,-0.00003177,-0.00003395,0.00
 010937,-0.00006281,0.00003471,0.00695955,0.00292884,-0.02162682,-0.010
 00355,0.00006817,0.02893241,0.00821080,0.05049204,0.00005764,-0.000006
 27,0.00000061,-0.00006004,0.00001978,0.00000349,-0.00000773,-0.0000156
 9,0.00000189,0.00005205,-0.00001389,-0.00001395,-0.00007130,-0.0003547
 8,-0.00040208,-0.00021449,0.00339048,-0.00011477,-0.00185995,-0.000305
 20,0.00055872,0.00486642,-0.00214405,0.00817013,0.08023107,0.02438403,
 -0.29600477,-0.00008038,0.00003428,0.00001298,-0.00000383,-0.00004057,
 -0.00001004,-0.00002566,0.00000953,-0.00000782,-0.00010552,0.00003582,
 0.00000963,0.00001340,-0.00000396,0.00000733,0.00000443,0.00000199,-0.
 00000214,0.00000271,0.00000391,-0.00000652,0.00002082,0.00001066,-0.00
 000109,0.00541050,0.00325363,-0.01705253,0.00134760,-0.00017861,-0.006
 97878,-0.08962987,-0.02799190,0.31177537,0.00001103,-0.00029970,-0.000
 22714,0.00177833,-0.00023234,0.00045359,-0.00020069,0.00003728,-0.0000
 9269,-0.00133939,-0.00080300,0.00092121,-0.00995951,0.00003639,-0.0134
 4517,0.00059428,-0.00158964,-0.00123148,-0.00125185,-0.00038054,0.0007
 8598,-0.00107578,0.00017206,0.00021370,0.00046446,-0.00035547,-0.00007
 378,-0.13127125,0.00028266,-0.12198129,0.01237404,0.00082198,0.0182953
 0,-0.00294789,0.00033403,0.00347225,-0.00022641,-0.00011722,0.00002253
 ,-0.00000237,-0.00001848,0.00004487,0.00008169,0.00000931,0.00001406,0
 .00017082,-0.00021994,-0.00041689,0.00118927,-0.00008809,0.00025875,-0
 .00013829,-0.00000948,0.00001939,-0.00001855,0.00003870,-0.00001371,-0
 .00009923,-0.00002875,0.00002252,0.13999483,-0.00008923,0.00017753,0.0
 0017177,-0.00027047,-0.00021375,-0.00098441,-0.00017074,0.00018053,-0.
 00004657,-0.00247932,-0.00209771,0.00052326,-0.01743096,-0.00337651,-0
 .02150223,0.00139866,-0.00384848,-0.00122547,-0.00122316,0.00020270,0.
 00075746,0.00060530,0.00099041,-0.00017423,-0.00007088,0.00019894,-0.0
 0004721,0.00129065,-0.04941552,-0.00210695,0.00102848,-0.00048668,0.00
 011332,-0.00030578,0.00035368,0.00049057,0.00013948,-0.00009268,0.0004
 3522,0.00007328,-0.00020643,-0.00001187,0.00013279,-0.00000613,0.00003
 508,0.00026825,-0.00054821,-0.00074022,-0.00028927,0.00125868,-0.00037
 418,0.00005810,-0.00000683,0.00001564,-0.00004542,0.00001213,0.0000044
 3,0.00004437,-0.00000782,-0.00001963,0.00342256,0.05448523,0.00149283,
 -0.00011974,0.00034181,-0.00279624,0.00126254,-0.00037818,-0.00024237,
 -0.00001762,-0.00023541,-0.00004998,-0.00021862,0.00034116,0.00167818,
 0.00111575,0.00194596,0.00062665,0.00014980,0.00021329,-0.00003735,-0.
 00000619,-0.00013939,-0.00002256,-0.00010741,0.00000812,0.00004977,-0.
 00002284,-0.00003057,-0.12180590,-0.00289506,-0.22994513,-0.01332169,-
 0.00091138,-0.02122329,0.00500504,0.00013245,-0.00412749,0.00041789,0.
 00059973,0.00046569,0.00001306,-0.00017500,0.00005483,0.00004342,-0.00
 003976,0.00005390,0.00004510,-0.00007987,-0.00004726,0.00058562,0.0000
 2889,0.00176710,0.00000445,0.00000650,0.00000225,0.00000478,-0.0000028
 9,-0.00000912,-0.00000837,-0.00000489,0.00001123,0.12937086,0.00051920
 ,0.25009746,-0.00095976,0.00120519,-0.00065039,-0.00096922,-0.00363300
 ,0.00358843,-0.00009202,0.00043355,-0.00060651,-0.00150623,-0.00165767
 ,0.00037233,0.01169589,-0.01629504,0.00060348,0.00089413,-0.00105223,0
 .00046599,0.00040364,0.00051164,-0.00055025,-0.00439185,-0.00121059,-0
 .00050396,-0.00051663,0.00041461,0.00007015,-0.13486233,0.13002606,-0.
 00267358,-0.01332332,0.01717916,0.00354918,0.00112940,-0.00074942,-0.0
 0181838,0.00016843,0.00004098,-0.00000403,0.00003124,0.00014137,0.0000
 5485,0.00002988,-0.00008827,-0.00000459,0.00018915,-0.00038100,-0.0007
 3022,-0.00125910,-0.00219128,0.00015242,0.00022620,-0.00001965,0.00000
 018,-0.00001180,-0.00001160,0.00000044,0.00012324,-0.00001268,-0.00003
 288,-0.00998554,0.01396085,-0.00002053,0.15229368,-0.00019346,0.000059
 66,-0.00037260,0.00008339,0.00049295,0.00101344,-0.00037954,0.00069840
 ,0.00014947,-0.00196576,-0.00220241,0.00095023,0.01225659,-0.02073492,
 0.00155433,0.00249396,-0.00320732,0.00101815,0.00005339,0.00122061,-0.
 00049016,0.00135637,0.00230066,-0.00018737,-0.00071632,0.00098946,-0.0
 0005724,0.12595609,-0.22896033,0.00013274,-0.00079503,0.00236676,0.000
 33297,-0.00046707,0.00030597,0.00009550,0.00022182,-0.00028842,0.00020
 796,-0.00002698,0.00012977,0.00001415,0.00004211,-0.00002396,-0.000055
 71,0.00019558,-0.00048477,-0.00099009,-0.00163336,-0.00264772,-0.00098
 348,0.00033534,0.00000677,0.00003536,-0.00006055,-0.00005420,0.0000200
 4,0.00014245,-0.00001378,-0.00003723,-0.00068292,0.00160449,0.00071641
 ,-0.13597534,0.24748163,0.00232752,-0.00165700,0.00146251,0.00107975,0
 .00381840,-0.00555257,-0.00029481,0.00013466,0.00093108,-0.00036346,-0
 .00061891,-0.00037385,0.00070184,-0.00021639,-0.00092084,-0.00002119,0
 .00054903,0.00138336,0.00017094,0.00012841,-0.00013759,-0.00032128,-0.
 00049701,-0.00015679,-0.00013346,0.00007047,-0.00013091,-0.00375889,0.
 00059387,-0.04847577,0.01860832,-0.02495344,-0.00478994,0.00083330,-0.
 00129629,0.00240665,-0.00018835,-0.00018669,0.00001061,-0.00015848,-0.
 00025627,0.00002235,-0.00000806,0.00016245,0.00001864,-0.00015023,-0.0
 0006981,-0.00024423,0.00062904,0.00050488,0.00008385,0.00002847,0.0000
 0730,-0.00001194,-0.00001719,0.00000001,0.00002079,0.00013098,0.000012
 35,-0.00001094,-0.01671599,0.02401420,0.00098178,-0.00092605,-0.001776
 34,0.05254066,0.00199674,-0.00223360,-0.00004237,0.01177459,0.01820548
 ,0.00043528,-0.00227776,0.00270383,-0.00005752,-0.00010921,0.00079216,
 0.00002017,-0.00085139,0.00100571,0.00307862,0.00061451,-0.00097750,0.
 00009126,-0.00062336,0.00004624,0.00005087,-0.00026456,0.00033171,-0.0
 0001067,0.00015964,-0.00007069,0.00000653,-0.01080384,-0.01488650,-0.0
 0042107,-0.14121282,-0.12922658,-0.00330132,-0.00986323,-0.01422192,-0
 .00032489,-0.00055532,0.00104795,-0.00296643,0.00029190,0.00054115,0.0
 0000942,0.00031151,0.00057437,-0.00000157,0.00003999,-0.00002266,-0.00
 000502,-0.00041685,-0.00042686,0.00002435,-0.00001854,0.00000007,0.000
 00326,-0.00002872,0.00002349,-0.00001163,-0.00003192,-0.00000221,0.000
 00307,0.00082400,0.00023904,-0.00001382,0.00017424,0.00020666,-0.00062
 862,0.15062374,0.00069107,0.00575740,0.00012489,-0.02069353,-0.0258577
 5,-0.00057979,0.00369221,-0.00277024,-0.00004192,0.00104678,0.00033231
 ,-0.00003505,0.00058674,0.00099052,-0.00053308,0.00023680,0.00003418,0
 .00012432,0.00000467,0.00001071,-0.00004263,-0.00010896,0.00008810,-0.
 00003988,0.00004659,-0.00001942,-0.00001247,0.00150346,0.00166839,0.00
 031765,-0.12486469,-0.22490336,-0.00475184,0.00185851,0.00228531,-0.00
 026526,0.00050612,0.00090699,0.00069897,-0.00035883,-0.00083582,0.0000
 1192,-0.00040677,-0.00090597,-0.00000229,-0.00009397,0.00011280,0.0000
 0317,0.00007758,0.00008209,-0.00004107,-0.00000694,0.00000256,0.000001
 81,-0.00000639,0.00000669,-0.00000339,-0.00000655,-0.00000188,0.000003
 62,-0.00009808,0.00010078,0.00046008,-0.00023354,0.00054163,0.00042604
 ,0.13680538,0.24153742,0.00012330,0.00002164,-0.00110389,-0.00013401,0
 .00021168,-0.00054103,0.00002870,0.00008548,0.00213384,0.00003522,-0.0
 0002336,-0.00081241,0.00303400,-0.00141518,-0.00387717,-0.00091065,0.0
 0159309,-0.00030383,0.00101175,-0.00003212,-0.00007054,0.00031708,-0.0
 0036781,0.00020631,-0.00012495,0.00000018,-0.00002990,0.01570331,0.022
 41803,0.00041929,-0.00333045,-0.00498459,-0.04880763,-0.01585798,-0.02
 339119,-0.00085628,-0.00279910,0.00172428,-0.00416613,-0.00011315,-0.0
 0033231,-0.00005455,0.00011364,0.00033039,-0.00004684,0.00002328,0.000
 00893,0.00014829,0.00047123,0.00072481,0.00000646,0.00004655,0.0000144
 2,-0.00001322,0.00002815,-0.00002382,0.00000494,0.00002427,0.00000776,
 0.00001446,-0.00095257,0.00022670,0.00080171,-0.00053849,-0.00039310,0
 .00099699,0.00353704,0.00515524,0.05436105,-0.00109717,0.00132361,0.00
 066925,-0.00071376,-0.00401416,-0.00372205,-0.00010938,0.00041748,0.00
 072259,-0.00095999,-0.00158869,-0.00075075,0.00008667,0.00010032,0.000
 01702,0.00019055,-0.00034517,0.00008362,0.00004639,0.00017686,-0.00001
 319,-0.00019718,0.00011621,-0.00015351,-0.00015466,0.00005882,0.000002
 54,0.00113166,-0.00086425,0.00188977,-0.01356907,0.01709321,-0.0031172
 0,-0.14209645,0.12850947,0.00698467,0.00999873,-0.01720687,-0.00049971
 ,0.00007207,-0.00009567,0.00002277,0.00006081,0.00015210,-0.00004980,0
 .00011417,-0.00029318,0.00055536,-0.00002793,0.00000175,0.00004049,0.0
 0000702,-0.00000912,0.00000880,0.00000620,-0.00000244,0.00001880,0.000
 02659,-0.00000158,-0.00001446,-0.00001439,-0.00028991,0.00025398,0.000
 64065,-0.00011118,-0.00073404,0.00009719,-0.00026095,0.00046683,0.1570
 0414,-0.00002730,-0.00004421,0.00026984,0.00010778,0.00076464,-0.00063
 018,-0.00034328,0.00072091,-0.00023930,-0.00185833,-0.00224172,-0.0014
 5596,-0.00002851,-0.00021801,0.00005196,0.00067607,-0.00138650,0.00056
 420,-0.00004347,0.00054944,-0.00012920,0.00004250,0.00079769,-0.000663
 22,-0.00024660,0.00007799,-0.00007814,-0.00033842,0.00035329,-0.000262
 83,-0.00003511,0.00117066,-0.00002663,0.12649493,-0.21525461,-0.004819
 28,0.01352847,-0.02035245,-0.00159423,0.00005434,-0.00001468,0.0000754
 7,-0.00006783,0.00011992,-0.00001244,0.00010383,-0.00045750,0.00093340
 ,-0.00002607,0.00009619,0.00008277,0.00002255,-0.00000692,0.00001460,-
 0.00004065,0.00002954,0.00003134,0.00006783,0.00000285,-0.00003401,-0.
 00022020,0.00026393,0.00000374,-0.00013195,0.00008913,0.00075524,0.000
 23659,0.00047170,0.00046047,-0.13482466,0.23312063,-0.00243407,0.00169
 707,0.00152687,-0.00089537,-0.00390667,-0.00577198,0.00023654,-0.00009
 833,0.00098953,0.00016437,0.00049707,-0.00031165,0.00025634,0.00016001
 ,-0.00007810,-0.00015453,0.00071100,-0.00034263,-0.00005480,-0.0002971
 9,0.00008190,-0.00000268,-0.00031378,0.00018661,0.00030293,-0.00011003
 ,0.00008271,-0.00077706,0.00108780,0.00242328,-0.01984675,0.02508237,-
 0.00474024,0.00800759,-0.00506079,-0.04845995,0.00012071,-0.00110866,-
 0.00073503,0.00002448,-0.00017094,0.00001568,0.00015728,0.00024777,0.0
 0002299,0.00017981,0.00001662,-0.00013057,-0.00003092,-0.00006564,0.00
 001617,-0.00004571,-0.00002127,-0.00000244,0.00000687,0.00002152,0.000
 00308,-0.00007271,0.00000775,0.00001061,-0.00001143,-0.00030349,0.0004
 9320,0.00060975,-0.00068228,-0.00043702,0.00059491,-0.00044859,0.00093
 353,-0.00279236,0.00654165,0.05254442,0.00006439,-0.00029904,0.0002143
 1,0.00169677,-0.00023044,-0.00037089,-0.00019843,0.00005899,0.00006055
 ,-0.00158630,-0.00092208,-0.00113675,-0.00021640,-0.00006967,-0.000083
 73,-0.00004617,0.00034079,-0.00031214,0.00001929,-0.00009241,0.0000830
 8,-0.00012589,-0.00008387,0.00025990,0.00019361,-0.00008349,0.00000653
 ,-0.00260977,0.00044132,-0.00345797,0.01236341,0.00190974,-0.01720221,
 -0.13956740,-0.00881972,0.12538223,-0.00916196,-0.00115625,0.01189265,
 0.00008386,0.00000959,0.00000478,-0.00000564,-0.00001016,-0.00003102,0
 .00023672,-0.00023468,0.00052264,0.00001972,0.00003122,0.00007043,-0.0
 0000151,-0.00000413,-0.00000474,0.00000944,0.00000673,-0.00000790,-0.0
 0004157,-0.00000135,0.00001916,0.00091298,-0.00012947,-0.00120070,-0.0
 0005192,-0.00019457,-0.00003790,0.00087207,-0.00008710,0.00093979,-0.0
 1157696,-0.00148659,0.01710465,0.14801219,0.00011852,0.00019541,-0.000
 23735,-0.00058910,-0.00028658,0.00096346,-0.00024543,0.00023620,0.0000
 7539,-0.00295791,-0.00261572,-0.00099894,0.00014147,-0.00010853,-0.000
 37255,0.00017127,-0.00054315,0.00001296,0.00007129,0.00026069,-0.00001
 222,0.00005420,0.00032996,-0.00016646,-0.00006439,-0.00001080,-0.00004
 242,-0.00025489,0.00037131,-0.00053561,0.00074889,-0.00061247,-0.00005
 345,-0.00831868,-0.05102154,0.01569880,-0.01609099,-0.00446685,0.02141
 209,0.00014853,-0.00001634,-0.00001085,0.00006325,-0.00017371,0.000007
 34,0.00034737,-0.00062060,0.00099377,0.00008834,0.00009053,0.00004355,
 0.00002619,0.00000550,-0.00000045,-0.00002250,0.00001519,0.00000593,0.
 00002144,0.00000663,-0.00000380,-0.00013178,0.00038184,-0.00022133,-0.
 00025646,0.00024914,0.00031335,0.00029880,0.00016914,-0.00023720,0.014
 95420,0.00270027,-0.02265459,0.01311197,0.05597486,-0.00150416,0.00007
 331,0.00037072,0.00291866,-0.00119391,-0.00031102,0.00021357,0.0000340
 2,-0.00020357,-0.00020911,0.00001404,0.00026799,-0.00041277,-0.0005922
 2,0.00047670,-0.00036954,0.00011047,0.00000625,0.00024826,0.00004626,-
 0.00004490,0.00021443,-0.00006207,0.00008237,-0.00012894,0.00004317,-0
 .00001870,-0.00490961,0.00007315,-0.00444720,0.01453815,0.00238389,-0.
 02134220,0.12431930,0.01604172,-0.22067865,-0.00249742,-0.00136483,0.0
 0321107,-0.00003855,0.00003269,0.00003555,-0.00000623,0.00013654,0.000
 02880,0.00000166,0.00000730,0.00000918,0.00001827,0.00006937,0.0000754
 3,0.00003273,0.00000711,-0.00000107,0.00000990,-0.00001429,-0.00000055
 ,0.00001793,0.00000015,0.00000037,0.00127482,0.00022937,-0.00151434,-0
 .00031080,-0.00000722,0.00047102,0.00006707,-0.00050126,0.00089060,0.0
 0038263,-0.00065552,0.00037605,-0.13266001,-0.01489009,0.24052261,-0.0
 0027608,0.00002950,-0.00003057,0.00095162,-0.00000716,0.00036660,0.000
 98081,0.00082993,-0.00122434,-0.00360049,0.00119816,-0.00023671,0.0002
 2260,-0.00010278,0.00006204,-0.00069792,0.00090139,-0.00095168,0.00032
 996,-0.00014104,0.00014923,-0.00029580,0.00021672,0.00190769,0.0003483
 9,-0.00012594,0.00014163,-0.00020940,-0.00000350,0.00021328,-0.0007818
 8,-0.00177027,0.00108108,-0.01370192,0.00253610,-0.00058467,-0.2988942
 4,0.05695831,-0.01975418,-0.00032963,-0.00006669,0.00000987,0.00020708
 ,-0.00016080,0.00006263,0.00051587,0.00040391,-0.00030026,0.00013565,0
 .00000182,-0.00004056,0.00004543,-0.00000139,-0.00007776,0.00000197,-0
 .00000721,-0.00001234,-0.00008063,0.00000094,0.00002262,0.00010306,0.0
 0002481,-0.00007233,-0.00002342,-0.00010896,-0.00007103,-0.00032261,0.
 00008397,-0.00063702,0.00172293,0.00007207,-0.00003515,-0.00093241,-0.
 00150277,-0.00075545,0.32246844,0.00012218,0.00065155,-0.00001230,-0.0
 0004459,-0.00179046,0.00010480,-0.00012131,-0.00149216,0.00422663,0.01
 865999,-0.00480919,0.00017201,-0.00048894,0.00042251,-0.00078430,0.000
 19547,0.00161621,0.00006193,-0.00035735,-0.00063515,-0.00013547,0.0001
 8379,-0.00065580,0.00014932,0.00032401,0.00003530,-0.00003727,-0.00009
 053,0.00005538,0.00018982,-0.00221492,-0.00261343,0.00086085,-0.027568
 72,0.00340779,-0.00256490,0.05788342,-0.05983759,0.00384595,0.00139357
 ,-0.00001754,0.00039193,-0.00047718,0.00022669,0.00002056,-0.00006247,
 0.00026827,-0.00065167,0.00003189,-0.00011555,-0.00014273,-0.00007039,
 0.00002953,-0.00000865,-0.00000546,-0.00003251,-0.00004286,-0.00006027
 ,-0.00001774,0.00001598,0.00008173,-0.00000515,-0.00008547,-0.00001123
 ,-0.00001923,-0.00005776,-0.00056469,0.00009268,-0.00100412,-0.0005151
 3,0.00154833,-0.00015543,-0.00199149,-0.00204017,-0.00003264,-0.061611
 43,0.06981496,-0.00031518,-0.00034912,0.00007874,0.00076349,0.00072553
 ,-0.00012144,0.00030862,0.00267721,-0.00505890,-0.02906422,0.00659339,
 -0.00185622,-0.00049488,-0.00032349,0.00155752,-0.00037774,0.00106925,
 -0.00216955,0.00015939,-0.00031526,0.00015952,0.00055117,-0.00060549,0
 .00042098,0.00075592,-0.00031933,-0.00007513,-0.00017156,-0.00024698,0
 .00005273,-0.00044085,-0.00057660,-0.00031129,-0.00087860,0.00027509,-
 0.00067666,-0.01755540,0.00280048,-0.05210291,-0.00189948,0.00046994,0
 .00005634,-0.00003306,0.00028011,0.00015873,0.00062850,-0.00042755,0.0
 0111119,0.00014147,0.00018603,0.00038787,-0.00000171,-0.00004560,-0.00
 001993,-0.00001855,0.00006137,0.00000299,-0.00012717,0.00000530,0.0000
 2661,0.00006653,0.00003467,0.00000085,-0.00004985,-0.00011708,-0.00009
 780,-0.00006046,-0.00007067,-0.00015494,0.00002045,0.00004756,0.001221
 86,0.00013191,0.00049559,-0.00006831,0.02069494,-0.00607148,0.05434492
 ,-0.00009954,0.00027741,0.00007082,-0.00000197,-0.00068083,-0.00010162
 ,0.00055128,-0.00053172,-0.00114227,0.00055249,-0.00271215,-0.00478687
 ,0.00027041,0.00014546,-0.00120495,-0.00025349,0.00092028,-0.00082981,
 0.00007648,-0.00022134,0.00005406,-0.00008384,-0.00017444,0.00085306,0
 .00032829,-0.00015173,0.00000310,-0.00005682,0.00020821,0.00031273,-0.
 00086185,-0.00188828,0.00018011,0.00322515,-0.01137043,-0.01439628,-0.
 06814882,0.03783269,0.05290668,0.00011350,-0.00005682,0.00012080,0.000
 05246,0.00024033,0.00004841,0.00005268,-0.00001025,0.00041102,0.000337
 86,-0.00013925,-0.00018728,0.00003987,0.00000830,-0.00002581,-0.000008
 46,0.00001346,-0.00000680,-0.00006059,0.00001288,0.00003212,0.00003238
 ,0.00010799,0.00000023,-0.00004665,-0.00003270,0.00001887,-0.00039999,
 0.00008641,-0.00050575,-0.00068883,-0.00168800,-0.00061269,0.00163791,
 0.00006919,-0.00045476,-0.00788738,0.01738005,0.02726633,0.07132749,-0
 .00032995,0.00032435,0.00012703,0.00052762,-0.00081911,-0.00026125,-0.
 00056550,0.00087191,0.00007329,-0.00462595,0.01062985,0.01594907,0.000
 77727,-0.00177463,0.00357751,0.00081334,-0.00074794,0.00031255,-0.0001
 5075,0.00013801,-0.00009740,-0.00004670,0.00028866,-0.00037363,-0.0001
 0267,0.00005117,-0.00000302,-0.00004990,-0.00025350,0.00020478,-0.0006
 8963,-0.00239521,0.00077541,0.00593771,-0.01567802,-0.01913408,0.03762
 061,-0.12486586,-0.11432550,-0.00032456,0.00015030,-0.00000548,-0.0000
 3011,0.00014955,-0.00011176,-0.00031630,0.00075934,-0.00080021,-0.0002
 6127,0.00063255,0.00105234,-0.00000689,0.00000171,0.00000944,-0.000021
 93,0.00000760,0.00000153,0.00002184,-0.00000274,-0.00001411,0.00003896
 ,0.00010104,-0.00008701,-0.00000247,0.00010004,0.00009527,-0.00042541,
 0.00010306,-0.00077829,-0.00248107,-0.00290053,-0.00067294,-0.00001387
 ,0.00152977,0.00001150,0.00235229,-0.00408757,-0.00625288,-0.03764472,
 0.13768619,-0.00016318,0.00025278,0.00005386,-0.00012072,-0.00099880,-
 0.00020054,0.00148646,-0.00122311,0.00116612,0.00728374,-0.01515160,-0
 .02410383,-0.00101457,0.00458391,-0.00395805,-0.00182269,0.00072419,0.
 00021845,0.00064066,0.00008698,0.00001161,0.00044119,-0.00039415,0.000
 23720,-0.00021391,0.00001687,-0.00001856,0.00038914,0.00067329,0.00054
 986,-0.00030349,-0.00005160,0.00022089,0.00029771,0.00193287,0.0012830
 2,0.05156061,-0.11410193,-0.21357444,0.00023727,0.00018955,0.00049211,
 -0.00099745,0.00074550,0.00027484,0.00041469,0.00018830,0.00082401,0.0
 0039979,-0.00103890,-0.00164169,0.00004578,0.00001002,-0.00001010,0.00
 003515,-0.00002764,0.00000540,0.00003139,0.00000836,0.00000202,-0.0000
 7424,-0.00003444,0.00006983,-0.00004668,-0.00009084,0.00000989,-0.0000
 7648,0.00004148,-0.00007910,-0.00029249,0.00076873,0.00008112,-0.00018
 665,0.00041509,0.00180580,0.00007243,0.00174725,0.00313223,-0.05802346
 ,0.12072782,0.23314805\\0.00002787,-0.00002749,-0.00002024,-0.00010412
 ,0.00002974,-0.00001884,0.00004479,0.00000447,-0.00005868,-0.00003613,
 -0.00001016,-0.00000354,0.00000679,0.00012046,0.00008327,0.00002366,-0
 .00002452,-0.00002022,-0.00002416,-0.00001258,-0.00002199,0.00013389,-
 0.00003343,-0.00009027,-0.00011423,0.00000562,0.00002025,0.00001150,-0
 .00001072,-0.00001607,0.00004404,-0.00011762,0.00010673,-0.00005420,0.
 00002325,-0.00002627,-0.00001710,-0.00004027,0.00000933,-0.00000611,0.
 00002218,0.00002427,0.00000502,-0.00000155,0.00003107,0.00001923,0.000
 00866,0.00001130,0.00000924,0.00001398,-0.00000040,0.00001584,0.000013
 52,0.00001708,0.00000042,0.00000090,0.00000929,0.00001317,0.00000276,-
 0.00000583,-0.00000684,0.00000910,0.00000779,0.00001504,-0.00000832,-0
 .00000586,-0.00001068,0.00000593,-0.00000564,-0.00000057,-0.00000096,0
 .00000532,-0.00000566,0.00000663,-0.00000184,0.00000516,-0.00000164,-0
 .00001424,0.00000417,0.00002208,-0.00001576\\\@


 My opinions may have changed, but not the fact that I am right.
                       -- Ashleigh Brilliant
 Job cpu time:       0 days  0 hours  2 minutes 51.5 seconds.
 Elapsed time:       0 days  0 hours  2 minutes 56.3 seconds.
 File lengths (MBytes):  RWF=    165 Int=      0 D2E=      0 Chk=     16 Scr=      1
 Normal termination of Gaussian 16 at Sat Feb 24 03:18:50 2024.
