 Entering Gaussian System, Link 0=g16
 Input=/Volumes/SSD-PMU3/b3lyp_6-31gd_freq/DOPKSKFPVYAYCF-BIIVOSGPSA-N_calculating/gaussianinput0.gjf
 Output=/Volumes/SSD-PMU3/b3lyp_6-31gd_freq/DOPKSKFPVYAYCF-BIIVOSGPSA-N_calculating/gaussianinput0.log
 Initial command:
 /Applications/g16/l1.exe "/Users/macmini_m1_2022/PycharmProjects/sphere_model/sphere_model_lib/Gau-88528.inp" -scrdir="/Users/macmini_m1_2022/PycharmProjects/sphere_model/sphere_model_lib/"
 Entering Link 1 = /Applications/g16/l1.exe PID=     88529.
  
 Copyright (c) 1988,1990,1992,1993,1995,1998,2003,2009,2016,
            Gaussian, Inc.  All Rights Reserved.
  
 This is part of the Gaussian(R) 16 program.  It is based on
 the Gaussian(R) 09 system (copyright 2009, Gaussian, Inc.),
 the Gaussian(R) 03 system (copyright 2003, Gaussian, Inc.),
 the Gaussian(R) 98 system (copyright 1998, Gaussian, Inc.),
 the Gaussian(R) 94 system (copyright 1995, Gaussian, Inc.),
 the Gaussian 92(TM) system (copyright 1992, Gaussian, Inc.),
 the Gaussian 90(TM) system (copyright 1990, Gaussian, Inc.),
 the Gaussian 88(TM) system (copyright 1988, Gaussian, Inc.),
 the Gaussian 86(TM) system (copyright 1986, Carnegie Mellon
 University), and the Gaussian 82(TM) system (copyright 1983,
 Carnegie Mellon University). Gaussian is a federally registered
 trademark of Gaussian, Inc.
  
 This software contains proprietary and confidential information,
 including trade secrets, belonging to Gaussian, Inc.
  
 This software is provided under written license and may be
 used, copied, transmitted, or stored only in accord with that
 written license.
  
 The following legend is applicable only to US Government
 contracts under FAR:
  
                    RESTRICTED RIGHTS LEGEND
  
 Use, reproduction and disclosure by the US Government is
 subject to restrictions as set forth in subparagraphs (a)
 and (c) of the Commercial Computer Software - Restricted
 Rights clause in FAR 52.227-19.
  
 Gaussian, Inc.
 340 Quinnipiac St., Bldg. 40, Wallingford CT 06492
  
  
 ---------------------------------------------------------------
 Warning -- This program may not be used in any manner that
 competes with the business of Gaussian, Inc. or will provide
 assistance to any competitor of Gaussian, Inc.  The licensee
 of this program is prohibited from giving any competitor of
 Gaussian, Inc. access to this program.  By using this program,
 the user acknowledges that Gaussian, Inc. is engaged in the
 business of creating and licensing software in the field of
 computational chemistry and represents and warrants to the
 licensee that it is not a competitor of Gaussian, Inc. and that
 it will not use this program in any manner prohibited above.
 ---------------------------------------------------------------
  

 Cite this work as:
 Gaussian 16, Revision A.03,
 M. J. Frisch, G. W. Trucks, H. B. Schlegel, G. E. Scuseria, 
 M. A. Robb, J. R. Cheeseman, G. Scalmani, V. Barone, 
 G. A. Petersson, H. Nakatsuji, X. Li, M. Caricato, A. V. Marenich, 
 J. Bloino, B. G. Janesko, R. Gomperts, B. Mennucci, H. P. Hratchian, 
 J. V. Ortiz, A. F. Izmaylov, J. L. Sonnenberg, D. Williams-Young, 
 F. Ding, F. Lipparini, F. Egidi, J. Goings, B. Peng, A. Petrone, 
 T. Henderson, D. Ranasinghe, V. G. Zakrzewski, J. Gao, N. Rega, 
 G. Zheng, W. Liang, M. Hada, M. Ehara, K. Toyota, R. Fukuda, 
 J. Hasegawa, M. Ishida, T. Nakajima, Y. Honda, O. Kitao, H. Nakai, 
 T. Vreven, K. Throssell, J. A. Montgomery, Jr., J. E. Peralta, 
 F. Ogliaro, M. J. Bearpark, J. J. Heyd, E. N. Brothers, K. N. Kudin, 
 V. N. Staroverov, T. A. Keith, R. Kobayashi, J. Normand, 
 K. Raghavachari, A. P. Rendell, J. C. Burant, S. S. Iyengar, 
 J. Tomasi, M. Cossi, J. M. Millam, M. Klene, C. Adamo, R. Cammi, 
 J. W. Ochterski, R. L. Martin, K. Morokuma, O. Farkas, 
 J. B. Foresman, and D. J. Fox, Gaussian, Inc., Wallingford CT, 2016.
 
 ******************************************
 Gaussian 16:  EM64M-G16RevA.03 25-Dec-2016
                24-Feb-2024 
 ******************************************
 %nprocshared=10
 Will use up to   10 processors via shared memory.
 %mem=12GB
 %chk= 0.chk
 ---------------------
 # freq b3lyp/6-31g(d)
 ---------------------
 1/10=4,30=1,38=1/1,3;
 2/12=2,17=6,18=5,40=1/2;
 3/5=1,6=6,7=1,11=2,25=1,30=1,71=2,74=-5,140=1/1,2,3;
 4//1;
 5/5=2,38=5,98=1/2;
 8/6=4,10=90,11=11/1;
 11/6=1,8=1,9=11,15=111,16=1/1,2,10;
 10/6=1/2;
 6/7=2,8=2,9=2,10=2,28=1/1;
 7/8=1,10=1,25=1/1,2,3,16;
 1/10=4,30=1/3;
 99//99;
 ---------
 good luck
 ---------
 Symbolic Z-matrix:
 Charge =  0 Multiplicity = 1
 O                     1.21487   0.        0. 
 C                     0.        0.        0. 
 C                    -0.83977  -1.28183  -0.00038 
 C                    -2.33636  -0.92109  -0.01155 
 C                    -2.63206  -0.08717   1.27381 
 C                    -4.12111   0.20522   1.37812 
 O                    -4.66883   1.24534   1.07652 
 O                    -4.79172  -0.88217   1.82185 
 C                    -6.2199   -0.73822   1.90295 
 C                    -1.77496   1.21014   1.25429 
 C                    -0.86889   1.24814  -0.00038 
 C                    -1.76584   1.21286  -1.26308 
 C                    -2.6348   -0.08024  -1.27014 
 H                    -0.56585  -1.87793  -0.88076 
 H                    -0.56797  -1.88131   0.87849 
 H                    -2.94816  -1.82937  -0.0033 
 H                    -2.37174  -0.71253   2.13514 
 H                    -6.48507   0.0728    2.58618 
 H                    -6.58898  -1.69298   2.27856 
 H                    -6.64149  -0.52346   0.91731 
 H                    -1.16644   1.27623   2.16264 
 H                    -2.43459   2.0832    1.2367 
 H                    -0.22718   2.13366   0.00721 
 H                    -2.40359   2.10362  -1.25624 
 H                    -1.14432   1.27293  -2.16332 
 H                    -3.69874   0.17374  -1.3127 
 H                    -2.42087  -0.68549  -2.15901 
 

 GradGradGradGradGradGradGradGradGradGradGradGradGradGradGradGradGradGrad
 Berny optimization.
 Initialization pass.
 Trust Radius=3.00D-01 FncErr=1.00D-07 GrdErr=1.00D-07 EigMax=2.50D+02 EigMin=1.00D-04
 Number of steps in this run=      2 maximum allowed number of steps=      2.
 GradGradGradGradGradGradGradGradGradGradGradGradGradGradGradGradGradGrad

                          Input orientation:                          
 ---------------------------------------------------------------------
 Center     Atomic      Atomic             Coordinates (Angstroms)
 Number     Number       Type             X           Y           Z
 ---------------------------------------------------------------------
      1          8           0        1.214869    0.000000    0.000000
      2          6           0        0.000000    0.000000    0.000000
      3          6           0       -0.839768   -1.281834   -0.000378
      4          6           0       -2.336363   -0.921093   -0.011548
      5          6           0       -2.632057   -0.087166    1.273806
      6          6           0       -4.121108    0.205216    1.378124
      7          8           0       -4.668833    1.245337    1.076515
      8          8           0       -4.791718   -0.882171    1.821853
      9          6           0       -6.219902   -0.738221    1.902954
     10          6           0       -1.774957    1.210138    1.254286
     11          6           0       -0.868890    1.248143   -0.000378
     12          6           0       -1.765841    1.212862   -1.263075
     13          6           0       -2.634804   -0.080242   -1.270141
     14          1           0       -0.565850   -1.877933   -0.880764
     15          1           0       -0.567971   -1.881310    0.878494
     16          1           0       -2.948163   -1.829374   -0.003303
     17          1           0       -2.371739   -0.712527    2.135138
     18          1           0       -6.485065    0.072799    2.586179
     19          1           0       -6.588982   -1.692982    2.278561
     20          1           0       -6.641495   -0.523460    0.917313
     21          1           0       -1.166438    1.276225    2.162637
     22          1           0       -2.434590    2.083202    1.236701
     23          1           0       -0.227178    2.133659    0.007208
     24          1           0       -2.403592    2.103619   -1.256243
     25          1           0       -1.144324    1.272933   -2.163322
     26          1           0       -3.698740    0.173736   -1.312696
     27          1           0       -2.420868   -0.685494   -2.159012
 ---------------------------------------------------------------------
                    Distance matrix (angstroms):
                    1          2          3          4          5
     1  O    0.000000
     2  C    1.214869   0.000000
     3  C    2.421700   1.532419   0.000000
     4  C    3.668759   2.511402   1.539498   0.000000
     5  C    4.053273   2.925389   2.502614   1.560450   0.000000
     6  C    5.514888   4.350272   3.857302   2.526871   1.521066
     7  O    6.109640   4.950530   4.712540   3.364181   2.441914
     8  O    6.338490   5.201724   4.370145   3.064579   2.365697
     9  C    7.709865   6.546250   5.732716   4.333663   3.700315
    10  C    3.460741   2.487597   2.942564   2.541586   1.554992
    11  C    2.428974   1.520799   2.530145   2.619005   2.552519
    12  C    3.457025   2.486883   2.945424   2.538815   2.979290
    13  C    4.054587   2.926071   2.505649   1.542775   2.543958
    14  H    2.733741   2.150015   1.097927   2.192212   3.481125
    15  H    2.736713   2.152596   1.098026   2.200319   2.763273
    16  H    4.547247   3.469623   2.178334   1.095145   2.183167
    17  H    4.234414   3.269810   2.689140   2.157084   1.095780
    18  H    8.122968   6.982098   6.355681   4.994771   4.073522
    19  H    8.304103   7.174449   6.198070   4.891337   4.386962
    20  H    7.927038   6.724948   5.922611   4.422110   4.048831
    21  H    3.460690   2.768813   3.365860   3.305149   2.190181
    22  H    4.380378   3.434587   3.923938   3.254775   2.179648
    23  H    2.575277   2.145731   3.470002   3.712213   3.509954
    24  H    4.369968   3.432290   3.934976   3.271493   3.354532
    25  H    3.444722   2.758586   3.361237   3.296185   3.984604
    26  H    5.088901   3.928617   3.466206   2.178924   2.809960
    27  H    4.283669   3.315394   2.741386   2.162001   3.490965
                    6          7          8          9         10
     6  C    0.000000
     7  O    1.213599   0.000000
     8  O    1.352414   2.257636   0.000000
     9  C    2.360181   2.650154   1.437709   0.000000
    10  C    2.555314   2.899545   3.714934   4.896367   0.000000
    11  C    3.683054   3.949592   4.821550   6.016780   1.548090
    12  C    3.679479   3.728552   4.802278   5.802510   2.517379
    13  C    3.050228   3.376570   3.854322   4.832639   2.962625
    14  H    4.699143   5.515453   5.114063   6.404400   3.944181
    15  H    4.150663   5.160640   4.441649   5.856662   3.339923
    16  H    2.724646   3.685181   2.761717   3.940648   3.492360
    17  H    2.115565   3.198524   2.446063   3.855247   2.197428
    18  H    2.658049   2.636784   2.088920   1.093097   5.025196
    19  H    3.241041   3.710203   2.023896   1.090353   5.714200
    20  H    2.663769   2.654314   2.090106   1.093321   5.177075
    21  H    3.239228   3.667068   4.232902   5.446368   1.095338
    22  H    2.528077   2.391552   3.833000   4.767904   1.094379
    23  H    4.556423   4.654120   5.763956   6.910448   2.191738
    24  H    3.673375   3.362993   4.908438   5.711462   2.737927
    25  H    4.747958   4.787428   5.816320   6.807410   3.475872
    26  H    2.723949   2.792443   3.483524   4.186685   3.371122
    27  H    4.024365   4.387492   4.637553   5.561925   3.957427
                   11         12         13         14         15
    11  C    0.000000
    12  C    1.549248   0.000000
    13  C    2.548599   1.557968   0.000000
    14  H    3.261788   3.337537   2.768371   0.000000
    15  H    3.264421   3.949065   3.483142   1.759263   0.000000
    16  H    3.714094   3.498587   2.182323   2.539234   2.538814
    17  H    3.265457   3.952479   3.473458   3.703386   2.489736
    18  H    6.293896   6.195771   5.451526   7.131771   6.461171
    19  H    6.823726   6.652053   5.552453   6.803944   6.184515
    20  H    6.107676   5.616129   4.586390   6.479285   6.223581
    21  H    2.183565   3.478333   3.972413   4.423992   3.460811
    22  H    2.163124   2.730128   3.317353   4.864816   4.396582
    23  H    1.093613   2.197492   3.511359   4.122628   4.122530
    24  H    2.159710   1.095546   2.196110   4.401254   4.879166
    25  H    2.180552   1.095599   2.202359   3.450731   4.419737
    26  H    3.299179   2.195073   1.094658   3.769736   4.338922
    27  H    3.287444   2.198981   1.096444   2.548906   3.753618
                   16         17         18         19         20
    16  H    0.000000
    17  H    2.480432   0.000000
    18  H    4.778426   4.211844   0.000000
    19  H    4.298961   4.332090   1.795386   0.000000
    20  H    4.024133   4.444059   1.779075   1.795421   0.000000
    21  H    4.184565   2.325649   5.469499   6.183333   5.896266
    22  H    4.136377   2.937216   4.719021   5.709992   4.959309
    23  H    4.807234   4.150663   7.075266   7.763683   7.002288
    24  H    4.163514   4.408306   5.962119   6.665321   5.439275
    25  H    4.188535   4.891355   7.247178   7.627010   6.552574
    26  H    2.508052   3.799204   4.793227   4.973456   3.757503
    27  H    2.496714   4.294516   6.293611   6.170921   5.225296
                   21         22         23         24         25
    21  H    0.000000
    22  H    1.765440   0.000000
    23  H    2.502654   2.527225   0.000000
    24  H    3.728790   2.493220   2.516742   0.000000
    25  H    4.326017   3.725786   2.508626   1.760280   0.000000
    26  H    4.439141   3.426888   4.199427   2.324875   2.908065
    27  H    4.909031   4.381408   4.177608   2.931628   2.337738
                   26         27
    26  H    0.000000
    27  H    1.757124   0.000000
 Stoichiometry    C10H14O3
 Framework group  C1[X(C10H14O3)]
 Deg. of freedom    75
 Full point group                 C1      NOp   1
 Largest Abelian subgroup         C1      NOp   1
 Largest concise Abelian subgroup C1      NOp   1
                         Standard orientation:                         
 ---------------------------------------------------------------------
 Center     Atomic      Atomic             Coordinates (Angstroms)
 Number     Number       Type             X           Y           Z
 ---------------------------------------------------------------------
      1          8           0       -3.633754   -0.617968   -0.660418
      2          6           0       -2.496394   -0.398014   -0.294441
      3          6           0       -1.601882   -1.461051    0.352173
      4          6           0       -0.235101   -0.845184    0.702421
      5          6           0        0.409650   -0.337538   -0.624830
      6          6           0        1.814548    0.181929   -0.360146
      7          8           0        2.136439    1.346078   -0.241973
      8          8           0        2.685743   -0.843648   -0.225107
      9          6           0        4.038295   -0.469838    0.087743
     10          6           0       -0.509184    0.742235   -1.263446
     11          6           0       -1.788668    0.942638   -0.415304
     12          6           0       -1.376706    1.402108    1.005732
     13          6           0       -0.456190    0.335423    1.670637
     14          1           0       -2.108220   -1.845297    1.247394
     15          1           0       -1.505807   -2.308615   -0.339250
     16          1           0        0.417324   -1.597625    1.157961
     17          1           0        0.512679   -1.202972   -1.289017
     18          1           0        4.450995    0.168177   -0.698054
     19          1           0        4.592738   -1.406446    0.152758
     20          1           0        4.078585    0.068085    1.038725
     21          1           0       -0.774602    0.456944   -2.287129
     22          1           0        0.028499    1.693930   -1.316731
     23          1           0       -2.461770    1.663938   -0.887163
     24          1           0       -0.852676    2.360222    0.918383
     25          1           0       -2.270757    1.582176    1.612844
     26          1           0        0.503862    0.779960    1.951640
     27          1           0       -0.908493   -0.044420    2.594396
 ---------------------------------------------------------------------
 Rotational constants (GHZ):           1.8239276           0.5017511           0.4825321
 Standard basis: 6-31G(d) (6D, 7F)
 There are   223 symmetry adapted cartesian basis functions of A   symmetry.
 There are   223 symmetry adapted basis functions of A   symmetry.
   223 basis functions,   420 primitive gaussians,   223 cartesian basis functions
    49 alpha electrons       49 beta electrons
       nuclear repulsion energy       850.3010514121 Hartrees.
 NAtoms=   27 NActive=   27 NUniq=   27 SFac= 1.00D+00 NAtFMM=   60 NAOKFM=F Big=F
 Integral buffers will be    131072 words long.
 Raffenetti 2 integral format.
 Two-electron integral symmetry is turned on.
 One-electron integrals computed using PRISM.
 NBasis=   223 RedAO= T EigKep=  1.36D-03  NBF=   223
 NBsUse=   223 1.00D-06 EigRej= -1.00D+00 NBFU=   223
 ExpMin= 1.61D-01 ExpMax= 5.48D+03 ExpMxC= 8.25D+02 IAcc=3 IRadAn=         5 AccDes= 0.00D+00
 Harris functional with IExCor=  402 and IRadAn=       5 diagonalized for initial guess.
 HarFok:  IExCor=  402 AccDes= 0.00D+00 IRadAn=         5 IDoV= 1 UseB2=F ITyADJ=14
 ICtDFT=  3500011 ScaDFX=  1.000000  1.000000  1.000000  1.000000
 FoFCou: FMM=F IPFlag=           0 FMFlag=      100000 FMFlg1=           0
         NFxFlg=           0 DoJE=T BraDBF=F KetDBF=T FulRan=T
         wScrn=  0.000000 ICntrl=       500 IOpCl=  0 I1Cent=   200000004 NGrid=           0
         NMat0=    1 NMatS0=      1 NMatT0=    0 NMatD0=    1 NMtDS0=    0 NMtDT0=    0
 Petite list used in FoFCou.
 Requested convergence on RMS density matrix=1.00D-08 within 128 cycles.
 Requested convergence on MAX density matrix=1.00D-06.
 Requested convergence on             energy=1.00D-06.
 No special actions if energy rises.
 Integral accuracy reduced to 1.0D-05 until final iterations.
 Initial convergence to 1.0D-05 achieved.  Increase integral accuracy.
 SCF Done:  E(RB3LYP) =  -615.178432867     A.U. after   14 cycles
            NFock= 14  Conv=0.60D-08     -V/T= 2.0092
 DoSCS=F DFT=T ScalE2(SS,OS)=  1.000000  1.000000
 Range of M.O.s used for correlation:     1   223
 NBasis=   223 NAE=    49 NBE=    49 NFC=     0 NFV=     0
 NROrb=    223 NOA=    49 NOB=    49 NVA=   174 NVB=   174
 Symmetrizing basis deriv contribution to polar:
 IMax=3 JMax=2 DiffMx= 0.00D+00
 G2DrvN: will do    28 centers at a time, making    1 passes.
 Calling FoFCou, ICntrl=  3107 FMM=F I1Cent=   0 AccDes= 0.00D+00.
 End of G2Drv F.D. properties file   721 does not exist.
 End of G2Drv F.D. properties file   722 does not exist.
 End of G2Drv F.D. properties file   788 does not exist.
          IDoAtm=111111111111111111111111111
          Differentiating once with respect to electric field.
                with respect to dipole field.
          Differentiating once with respect to nuclear coordinates.
 Keep R1 ints in memory in canonical form, NReq=322414334.
          There are    84 degrees of freedom in the 1st order CPHF.  IDoFFX=6 NUNeed=     3.
     81 vectors produced by pass  0 Test12= 1.02D-14 1.19D-09 XBig12= 7.87D+01 2.94D+00.
 AX will form    81 AO Fock derivatives at one time.
     81 vectors produced by pass  1 Test12= 1.02D-14 1.19D-09 XBig12= 2.15D+01 1.80D+00.
     81 vectors produced by pass  2 Test12= 1.02D-14 1.19D-09 XBig12= 1.42D-01 5.28D-02.
     81 vectors produced by pass  3 Test12= 1.02D-14 1.19D-09 XBig12= 4.65D-04 2.72D-03.
     81 vectors produced by pass  4 Test12= 1.02D-14 1.19D-09 XBig12= 6.45D-07 6.92D-05.
     51 vectors produced by pass  5 Test12= 1.02D-14 1.19D-09 XBig12= 6.41D-10 2.34D-06.
      6 vectors produced by pass  6 Test12= 1.02D-14 1.19D-09 XBig12= 4.84D-13 7.14D-08.
      2 vectors produced by pass  7 Test12= 1.02D-14 1.19D-09 XBig12= 3.66D-16 2.12D-09.
 InvSVY:  IOpt=1 It=  1 EMax= 7.11D-15
 Solved reduced A of dimension   464 with    84 vectors.
 Isotropic polarizability for W=    0.000000      103.51 Bohr**3.
 End of Minotr F.D. properties file   721 does not exist.
 End of Minotr F.D. properties file   722 does not exist.
 End of Minotr F.D. properties file   788 does not exist.

 **********************************************************************

            Population analysis using the SCF density.

 **********************************************************************

 Orbital symmetries:
       Occupied  (A) (A) (A) (A) (A) (A) (A) (A) (A) (A) (A) (A)
                 (A) (A) (A) (A) (A) (A) (A) (A) (A) (A) (A) (A)
                 (A) (A) (A) (A) (A) (A) (A) (A) (A) (A) (A) (A)
                 (A) (A) (A) (A) (A) (A) (A) (A) (A) (A) (A) (A)
                 (A)
       Virtual   (A) (A) (A) (A) (A) (A) (A) (A) (A) (A) (A) (A)
                 (A) (A) (A) (A) (A) (A) (A) (A) (A) (A) (A) (A)
                 (A) (A) (A) (A) (A) (A) (A) (A) (A) (A) (A) (A)
                 (A) (A) (A) (A) (A) (A) (A) (A) (A) (A) (A) (A)
                 (A) (A) (A) (A) (A) (A) (A) (A) (A) (A) (A) (A)
                 (A) (A) (A) (A) (A) (A) (A) (A) (A) (A) (A) (A)
                 (A) (A) (A) (A) (A) (A) (A) (A) (A) (A) (A) (A)
                 (A) (A) (A) (A) (A) (A) (A) (A) (A) (A) (A) (A)
                 (A) (A) (A) (A) (A) (A) (A) (A) (A) (A) (A) (A)
                 (A) (A) (A) (A) (A) (A) (A) (A) (A) (A) (A) (A)
                 (A) (A) (A) (A) (A) (A) (A) (A) (A) (A) (A) (A)
                 (A) (A) (A) (A) (A) (A) (A) (A) (A) (A) (A) (A)
                 (A) (A) (A) (A) (A) (A) (A) (A) (A) (A) (A) (A)
                 (A) (A) (A) (A) (A) (A) (A) (A) (A) (A) (A) (A)
                 (A) (A) (A) (A) (A) (A)
 The electronic state is 1-A.
 Alpha  occ. eigenvalues --  -19.19927 -19.14301 -19.13264 -10.31824 -10.26789
 Alpha  occ. eigenvalues --  -10.24638 -10.21037 -10.20739 -10.19448 -10.19411
 Alpha  occ. eigenvalues --  -10.19355 -10.19192 -10.19053  -1.10751  -1.03205
 Alpha  occ. eigenvalues --   -1.01927  -0.86795  -0.77664  -0.76514  -0.73775
 Alpha  occ. eigenvalues --   -0.71803  -0.63321  -0.61724  -0.58615  -0.56228
 Alpha  occ. eigenvalues --   -0.52353  -0.51116  -0.49320  -0.48037  -0.47481
 Alpha  occ. eigenvalues --   -0.46812  -0.45006  -0.42116  -0.41412  -0.41366
 Alpha  occ. eigenvalues --   -0.40610  -0.39461  -0.38866  -0.38594  -0.38108
 Alpha  occ. eigenvalues --   -0.36481  -0.36353  -0.34042  -0.32432  -0.31926
 Alpha  occ. eigenvalues --   -0.30752  -0.30264  -0.27688  -0.23285
 Alpha virt. eigenvalues --   -0.01217   0.00314   0.06917   0.09609   0.11262
 Alpha virt. eigenvalues --    0.12058   0.12388   0.13008   0.14443   0.15224
 Alpha virt. eigenvalues --    0.15314   0.16457   0.16742   0.17000   0.17584
 Alpha virt. eigenvalues --    0.18174   0.18711   0.19934   0.20388   0.22228
 Alpha virt. eigenvalues --    0.22859   0.23539   0.24732   0.26963   0.29083
 Alpha virt. eigenvalues --    0.32124   0.33849   0.35561   0.35721   0.38047
 Alpha virt. eigenvalues --    0.49364   0.50096   0.51001   0.52574   0.53350
 Alpha virt. eigenvalues --    0.54343   0.55108   0.59497   0.59757   0.60773
 Alpha virt. eigenvalues --    0.61681   0.62477   0.63866   0.64497   0.65389
 Alpha virt. eigenvalues --    0.66779   0.67153   0.69584   0.70020   0.70954
 Alpha virt. eigenvalues --    0.72127   0.74742   0.75761   0.79104   0.80537
 Alpha virt. eigenvalues --    0.80994   0.83237   0.83488   0.83919   0.84683
 Alpha virt. eigenvalues --    0.85562   0.85955   0.86919   0.87637   0.88885
 Alpha virt. eigenvalues --    0.90073   0.90630   0.91906   0.92994   0.93209
 Alpha virt. eigenvalues --    0.94121   0.94862   0.96081   0.97309   0.98567
 Alpha virt. eigenvalues --    1.02147   1.05011   1.08055   1.09174   1.11221
 Alpha virt. eigenvalues --    1.12380   1.14076   1.20120   1.23112   1.24533
 Alpha virt. eigenvalues --    1.26964   1.29093   1.33763   1.37278   1.42223
 Alpha virt. eigenvalues --    1.46116   1.47655   1.49581   1.51404   1.55494
 Alpha virt. eigenvalues --    1.60458   1.61935   1.63112   1.66607   1.67477
 Alpha virt. eigenvalues --    1.69441   1.70928   1.72802   1.73517   1.74632
 Alpha virt. eigenvalues --    1.77520   1.78694   1.82477   1.82917   1.84794
 Alpha virt. eigenvalues --    1.85746   1.87992   1.89455   1.92183   1.93997
 Alpha virt. eigenvalues --    1.95122   1.96133   1.99093   2.01311   2.02638
 Alpha virt. eigenvalues --    2.04798   2.05764   2.07665   2.09007   2.10405
 Alpha virt. eigenvalues --    2.10870   2.13370   2.14337   2.16455   2.18317
 Alpha virt. eigenvalues --    2.23310   2.24736   2.26276   2.29145   2.30412
 Alpha virt. eigenvalues --    2.37190   2.37615   2.38484   2.41155   2.43018
 Alpha virt. eigenvalues --    2.45417   2.46377   2.48476   2.52059   2.56275
 Alpha virt. eigenvalues --    2.56723   2.61447   2.65241   2.66645   2.69508
 Alpha virt. eigenvalues --    2.70260   2.73406   2.75647   2.77967   2.79540
 Alpha virt. eigenvalues --    2.87450   2.95070   3.00300   3.02634   3.05790
 Alpha virt. eigenvalues --    3.15376   3.99477   4.05695   4.11707   4.21498
 Alpha virt. eigenvalues --    4.24180   4.29044   4.35627   4.42552   4.50899
 Alpha virt. eigenvalues --    4.58054   4.64559   4.69446   4.92639
          Condensed to atoms (all electrons):
               1          2          3          4          5          6
     1  O    8.020176   0.567584  -0.077766   0.003461   0.000045  -0.000001
     2  C    0.567584   4.510786   0.301501  -0.025441  -0.017187   0.000182
     3  C   -0.077766   0.301501   5.416270   0.292891  -0.040842   0.003312
     4  C    0.003461  -0.025441   0.292891   4.976656   0.369361  -0.027296
     5  C    0.000045  -0.017187  -0.040842   0.369361   5.202565   0.348516
     6  C   -0.000001   0.000182   0.003312  -0.027296   0.348516   4.367178
     7  O    0.000000  -0.000000  -0.000059  -0.003191  -0.074983   0.533939
     8  O   -0.000000  -0.000005   0.000044   0.000218  -0.091992   0.247339
     9  C   -0.000000   0.000000   0.000008  -0.000077   0.007575  -0.019110
    10  C    0.000562  -0.032270  -0.007583  -0.045683   0.324498  -0.027167
    11  C   -0.062615   0.358964  -0.147548   0.028186  -0.036780   0.000008
    12  C    0.000458  -0.034510  -0.006465  -0.050454  -0.016166  -0.000378
    13  C    0.000058  -0.017347  -0.044309   0.379432  -0.046526  -0.003939
    14  H   -0.000299  -0.021278   0.349261  -0.029020   0.004743  -0.000098
    15  H   -0.000316  -0.021766   0.349834  -0.030137  -0.004111   0.000062
    16  H   -0.000064   0.003211  -0.028641   0.367364  -0.043897  -0.005325
    17  H   -0.000014   0.000464  -0.007330  -0.033595   0.351522  -0.029056
    18  H    0.000000  -0.000000   0.000000   0.000002  -0.000036  -0.005575
    19  H   -0.000000  -0.000000  -0.000000   0.000003  -0.000068   0.004837
    20  H    0.000000   0.000000  -0.000001  -0.000076   0.000176  -0.004842
    21  H    0.000739  -0.002753   0.001135   0.001972  -0.029927   0.002567
    22  H   -0.000065   0.003453  -0.000466   0.001944  -0.040483  -0.007433
    23  H    0.003605  -0.032305   0.008728  -0.000586   0.004591  -0.000061
    24  H   -0.000073   0.003983  -0.000537   0.001654   0.000725   0.000053
    25  H    0.000764  -0.003057   0.001475   0.001802  -0.000082   0.000021
    26  H    0.000002   0.000296   0.004816  -0.030092  -0.008886   0.006920
    27  H   -0.000016   0.000709  -0.005933  -0.034160   0.005608   0.000147
               7          8          9         10         11         12
     1  O    0.000000  -0.000000  -0.000000   0.000562  -0.062615   0.000458
     2  C   -0.000000  -0.000005   0.000000  -0.032270   0.358964  -0.034510
     3  C   -0.000059   0.000044   0.000008  -0.007583  -0.147548  -0.006465
     4  C   -0.003191   0.000218  -0.000077  -0.045683   0.028186  -0.050454
     5  C   -0.074983  -0.091992   0.007575   0.324498  -0.036780  -0.016166
     6  C    0.533939   0.247339  -0.019110  -0.027167   0.000008  -0.000378
     7  O    8.077210  -0.082673   0.003879  -0.006214  -0.000640   0.000217
     8  O   -0.082673   8.257018   0.207896   0.002390  -0.000052   0.000017
     9  C    0.003879   0.207896   4.894993  -0.000160   0.000003   0.000000
    10  C   -0.006214   0.002390  -0.000160   5.151807   0.340039  -0.039256
    11  C   -0.000640  -0.000052   0.000003   0.340039   5.150377   0.353364
    12  C    0.000217   0.000017   0.000000  -0.039256   0.353364   5.086711
    13  C    0.000556  -0.000380  -0.000039  -0.019106  -0.044440   0.344287
    14  H    0.000001  -0.000000  -0.000000   0.000216   0.003768  -0.000185
    15  H   -0.000000  -0.000000  -0.000000  -0.000330   0.003977   0.000110
    16  H   -0.000078   0.006705  -0.000218   0.006294  -0.000582   0.005592
    17  H    0.002634   0.003647  -0.000246  -0.037299   0.001367  -0.000051
    18  H    0.005662  -0.030645   0.374472   0.000027   0.000000   0.000000
    19  H    0.000739  -0.032594   0.377755   0.000001   0.000000  -0.000000
    20  H    0.006129  -0.031787   0.372927   0.000002  -0.000000  -0.000001
    21  H    0.000452  -0.000031   0.000001   0.361826  -0.035332   0.005376
    22  H    0.016144   0.000509  -0.000035   0.363494  -0.026685  -0.007505
    23  H   -0.000012   0.000000  -0.000000  -0.032295   0.350072  -0.032793
    24  H    0.000964   0.000003  -0.000001  -0.008160  -0.029049   0.368387
    25  H    0.000006   0.000000  -0.000000   0.005435  -0.036432   0.371030
    26  H    0.003446  -0.000316   0.000024   0.001348   0.001489  -0.029305
    27  H    0.000056  -0.000018  -0.000001   0.000037   0.001570  -0.032839
              13         14         15         16         17         18
     1  O    0.000058  -0.000299  -0.000316  -0.000064  -0.000014   0.000000
     2  C   -0.017347  -0.021278  -0.021766   0.003211   0.000464  -0.000000
     3  C   -0.044309   0.349261   0.349834  -0.028641  -0.007330   0.000000
     4  C    0.379432  -0.029020  -0.030137   0.367364  -0.033595   0.000002
     5  C   -0.046526   0.004743  -0.004111  -0.043897   0.351522  -0.000036
     6  C   -0.003939  -0.000098   0.000062  -0.005325  -0.029056  -0.005575
     7  O    0.000556   0.000001  -0.000000  -0.000078   0.002634   0.005662
     8  O   -0.000380  -0.000000  -0.000000   0.006705   0.003647  -0.030645
     9  C   -0.000039  -0.000000  -0.000000  -0.000218  -0.000246   0.374472
    10  C   -0.019106   0.000216  -0.000330   0.006294  -0.037299   0.000027
    11  C   -0.044440   0.003768   0.003977  -0.000582   0.001367   0.000000
    12  C    0.344287  -0.000185   0.000110   0.005592  -0.000051   0.000000
    13  C    5.088361  -0.003999   0.004821  -0.039838   0.006083  -0.000001
    14  H   -0.003999   0.544918  -0.021275  -0.002924   0.000092  -0.000000
    15  H    0.004821  -0.021275   0.547271  -0.002800   0.004877   0.000000
    16  H   -0.039838  -0.002924  -0.002800   0.602911  -0.003086   0.000018
    17  H    0.006083   0.000092   0.004877  -0.003086   0.588139  -0.000019
    18  H   -0.000001  -0.000000   0.000000   0.000018  -0.000019   0.551242
    19  H   -0.000001   0.000000   0.000000  -0.000008  -0.000043  -0.031202
    20  H    0.000010   0.000000  -0.000000   0.000005   0.000020  -0.037138
    21  H    0.000059   0.000000  -0.000044  -0.000138  -0.008483  -0.000001
    22  H    0.000919   0.000012   0.000048  -0.000179   0.004063  -0.000003
    23  H    0.004948  -0.000178  -0.000172   0.000011  -0.000135   0.000000
    24  H   -0.028590   0.000054   0.000008  -0.000176   0.000017  -0.000000
    25  H   -0.032369  -0.000068  -0.000007  -0.000111   0.000012   0.000000
    26  H    0.367778  -0.000073  -0.000166  -0.001935   0.000038  -0.000003
    27  H    0.368414   0.004484   0.000024  -0.003028  -0.000154  -0.000000
              19         20         21         22         23         24
     1  O   -0.000000   0.000000   0.000739  -0.000065   0.003605  -0.000073
     2  C   -0.000000   0.000000  -0.002753   0.003453  -0.032305   0.003983
     3  C   -0.000000  -0.000001   0.001135  -0.000466   0.008728  -0.000537
     4  C    0.000003  -0.000076   0.001972   0.001944  -0.000586   0.001654
     5  C   -0.000068   0.000176  -0.029927  -0.040483   0.004591   0.000725
     6  C    0.004837  -0.004842   0.002567  -0.007433  -0.000061   0.000053
     7  O    0.000739   0.006129   0.000452   0.016144  -0.000012   0.000964
     8  O   -0.032594  -0.031787  -0.000031   0.000509   0.000000   0.000003
     9  C    0.377755   0.372927   0.000001  -0.000035  -0.000000  -0.000001
    10  C    0.000001   0.000002   0.361826   0.363494  -0.032295  -0.008160
    11  C    0.000000  -0.000000  -0.035332  -0.026685   0.350072  -0.029049
    12  C   -0.000000  -0.000001   0.005376  -0.007505  -0.032793   0.368387
    13  C   -0.000001   0.000010   0.000059   0.000919   0.004948  -0.028590
    14  H    0.000000   0.000000   0.000000   0.000012  -0.000178   0.000054
    15  H    0.000000  -0.000000  -0.000044   0.000048  -0.000172   0.000008
    16  H   -0.000008   0.000005  -0.000138  -0.000179   0.000011  -0.000176
    17  H   -0.000043   0.000020  -0.008483   0.004063  -0.000135   0.000017
    18  H   -0.031202  -0.037138  -0.000001  -0.000003   0.000000  -0.000000
    19  H    0.545466  -0.031421  -0.000000  -0.000000   0.000000  -0.000000
    20  H   -0.031421   0.555988   0.000000  -0.000005  -0.000000  -0.000000
    21  H   -0.000000   0.000000   0.582035  -0.029326  -0.002302   0.000030
    22  H   -0.000000  -0.000005  -0.029326   0.538293  -0.002785   0.006233
    23  H    0.000000  -0.000000  -0.002302  -0.002785   0.593039  -0.002855
    24  H   -0.000000  -0.000000   0.000030   0.006233  -0.002855   0.568176
    25  H   -0.000000   0.000000  -0.000182   0.000061  -0.002090  -0.034436
    26  H   -0.000001   0.000175   0.000001  -0.000268  -0.000124  -0.010160
    27  H   -0.000000   0.000002   0.000011   0.000014  -0.000130   0.003985
              25         26         27
     1  O    0.000764   0.000002  -0.000016
     2  C   -0.003057   0.000296   0.000709
     3  C    0.001475   0.004816  -0.005933
     4  C    0.001802  -0.030092  -0.034160
     5  C   -0.000082  -0.008886   0.005608
     6  C    0.000021   0.006920   0.000147
     7  O    0.000006   0.003446   0.000056
     8  O    0.000000  -0.000316  -0.000018
     9  C   -0.000000   0.000024  -0.000001
    10  C    0.005435   0.001348   0.000037
    11  C   -0.036432   0.001489   0.001570
    12  C    0.371030  -0.029305  -0.032839
    13  C   -0.032369   0.367778   0.368414
    14  H   -0.000068  -0.000073   0.004484
    15  H   -0.000007  -0.000166   0.000024
    16  H   -0.000111  -0.001935  -0.003028
    17  H    0.000012   0.000038  -0.000154
    18  H    0.000000  -0.000003  -0.000000
    19  H   -0.000000  -0.000001  -0.000000
    20  H    0.000000   0.000175   0.000002
    21  H   -0.000182   0.000001   0.000011
    22  H    0.000061  -0.000268   0.000014
    23  H   -0.002090  -0.000124  -0.000130
    24  H   -0.034436  -0.010160   0.003985
    25  H    0.584486   0.003659  -0.010352
    26  H    0.003659   0.568081  -0.034141
    27  H   -0.010352  -0.034141   0.594236
 Mulliken charges:
               1
     1  O   -0.456225
     2  C    0.456786
     3  C   -0.361796
     4  C   -0.115137
     5  C   -0.167960
     6  C    0.615198
     7  O   -0.484185
     8  O   -0.455292
     9  C   -0.219647
    10  C   -0.302455
    11  C   -0.173029
    12  C   -0.285642
    13  C   -0.284844
    14  H    0.171847
    15  H    0.170092
    16  H    0.140916
    17  H    0.156535
    18  H    0.173200
    19  H    0.166537
    20  H    0.169836
    21  H    0.152316
    22  H    0.180050
    23  H    0.143829
    24  H    0.159763
    25  H    0.150436
    26  H    0.157396
    27  H    0.141475
 Sum of Mulliken charges =  -0.00000
 Mulliken charges with hydrogens summed into heavy atoms:
               1
     1  O   -0.456225
     2  C    0.456786
     3  C   -0.019857
     4  C    0.025779
     5  C   -0.011425
     6  C    0.615198
     7  O   -0.484185
     8  O   -0.455292
     9  C    0.289926
    10  C    0.029911
    11  C   -0.029201
    12  C    0.024557
    13  C    0.014027
 APT charges:
               1
     1  O   -0.667407
     2  C    0.740908
     3  C   -0.045047
     4  C    0.128510
     5  C   -0.061324
     6  C    1.053867
     7  O   -0.669266
     8  O   -0.844840
     9  C    0.495713
    10  C    0.090890
    11  C   -0.054137
    12  C    0.107598
    13  C    0.071703
    14  H   -0.017017
    15  H   -0.009134
    16  H   -0.044088
    17  H   -0.028908
    18  H   -0.022786
    19  H   -0.010539
    20  H   -0.024878
    21  H   -0.037671
    22  H    0.020699
    23  H   -0.041885
    24  H   -0.023637
    25  H   -0.038274
    26  H   -0.025814
    27  H   -0.043236
 Sum of APT charges =  -0.00000
 APT charges with hydrogens summed into heavy atoms:
               1
     1  O   -0.667407
     2  C    0.740908
     3  C   -0.071198
     4  C    0.084422
     5  C   -0.090232
     6  C    1.053867
     7  O   -0.669266
     8  O   -0.844840
     9  C    0.437510
    10  C    0.073919
    11  C   -0.096021
    12  C    0.045687
    13  C    0.002653
 Electronic spatial extent (au):  <R**2>=           2498.3430
 Charge=              0.0000 electrons
 Dipole moment (field-independent basis, Debye):
    X=              3.1202    Y=             -1.0045    Z=              1.1275  Tot=              3.4664
 Quadrupole moment (field-independent basis, Debye-Ang):
   XX=            -84.3125   YY=            -78.3725   ZZ=            -74.0098
   XY=             -6.9091   XZ=             -3.2389   YZ=             -0.6642
 Traceless Quadrupole moment (field-independent basis, Debye-Ang):
   XX=             -5.4143   YY=              0.5258   ZZ=              4.8884
   XY=             -6.9091   XZ=             -3.2389   YZ=             -0.6642
 Octapole moment (field-independent basis, Debye-Ang**2):
  XXX=            125.5708  YYY=             -6.0214  ZZZ=             -4.4592  XYY=             -7.0320
  XXY=              0.7148  XXZ=             19.1980  XZZ=              4.2772  YZZ=             -0.6388
  YYZ=             -0.2959  XYZ=              3.1542
 Hexadecapole moment (field-independent basis, Debye-Ang**3):
 XXXX=          -2273.7657 YYYY=           -499.4681 ZZZZ=           -413.7170 XXXY=            -91.3267
 XXXZ=            -52.3240 YYYX=             -4.9351 YYYZ=              0.8593 ZZZX=              1.1930
 ZZZY=             -0.4921 XXYY=           -472.6352 XXZZ=           -437.9409 YYZZ=           -151.5061
 XXYZ=            -13.7930 YYXZ=              3.4125 ZZXY=              5.1658
 N-N= 8.503010514121D+02 E-N=-3.133804111498D+03  KE= 6.095415724938D+02
  Exact polarizability: 123.778  -0.706  97.849   3.512  -1.155  88.898
 Approx polarizability: 160.956   4.107 154.763   6.909   0.080 130.604
 Calling FoFJK, ICntrl=    100127 FMM=F ISym2X=0 I1Cent= 0 IOpClX= 0 NMat=1 NMatS=1 NMatT=0.
 Full mass-weighted force constant matrix:
 Low frequencies ---   -4.1469   -0.0012   -0.0010    0.0001    1.9390    2.6616
 Low frequencies ---   25.4599   43.7658  101.9183
 Diagonal vibrational polarizability:
       45.5690015      28.4103335      66.3769083
 Harmonic frequencies (cm**-1), IR intensities (KM/Mole), Raman scattering
 activities (A**4/AMU), depolarization ratios for plane and unpolarized
 incident light, reduced masses (AMU), force constants (mDyne/A),
 and normal coordinates:
                      1                      2                      3
                      A                      A                      A
 Frequencies --     25.4333                43.7619               101.9180
 Red. masses --      4.1816                 4.9872                 4.0560
 Frc consts  --      0.0016                 0.0056                 0.0248
 IR Inten    --      1.5510                 2.6316                 1.4875
  Atom  AN      X      Y      Z        X      Y      Z        X      Y      Z
     1   8    -0.10   0.14   0.19    -0.04   0.05   0.06    -0.07  -0.05   0.26
     2   6    -0.03   0.05   0.04    -0.01   0.02   0.00     0.00  -0.05   0.01
     3   6    -0.02  -0.04  -0.11    -0.04   0.01   0.02     0.10  -0.02  -0.08
     4   6     0.00  -0.10  -0.09    -0.04  -0.00   0.04     0.05   0.07  -0.07
     5   6     0.02  -0.06  -0.07     0.02  -0.08   0.04     0.03   0.09  -0.07
     6   6    -0.02   0.01  -0.01    -0.01  -0.03   0.09     0.04   0.04  -0.03
     7   8    -0.07   0.03  -0.07    -0.11  -0.03   0.35     0.08   0.01   0.09
     8   8     0.01   0.06   0.10     0.09   0.02  -0.18    -0.02  -0.02  -0.08
     9   6    -0.02   0.13   0.17     0.07   0.07  -0.15    -0.04  -0.15   0.15
    10   6    -0.02  -0.10  -0.09     0.03  -0.13  -0.07     0.01   0.09  -0.03
    11   6     0.05  -0.00  -0.01     0.04  -0.02  -0.09    -0.04  -0.03  -0.08
    12   6     0.18  -0.02  -0.04     0.05   0.06  -0.12    -0.12  -0.01  -0.06
    13   6     0.04  -0.14  -0.04    -0.06   0.04  -0.01    -0.02   0.07  -0.08
    14   1     0.00  -0.13  -0.13    -0.05   0.01   0.01     0.14  -0.13  -0.10
    15   1    -0.06   0.04  -0.21    -0.03   0.01   0.02     0.17   0.04  -0.14
    16   1    -0.02  -0.14  -0.13    -0.07   0.00   0.10     0.10   0.11  -0.06
    17   1     0.08  -0.05  -0.08     0.07  -0.11   0.10     0.01   0.10  -0.09
    18   1     0.00   0.10   0.15    -0.04   0.32   0.00     0.08   0.02   0.35
    19   1     0.01   0.15   0.26     0.16   0.11  -0.43    -0.08  -0.18  -0.00
    20   1    -0.11   0.19   0.14     0.06  -0.18  -0.01    -0.12  -0.37   0.28
    21   1    -0.10  -0.19  -0.05     0.03  -0.23  -0.04     0.08   0.16  -0.07
    22   1    -0.01  -0.11  -0.22     0.04  -0.13  -0.16    -0.03   0.12   0.07
    23   1     0.07   0.04   0.03     0.07  -0.03  -0.14    -0.09  -0.08  -0.09
    24   1     0.33  -0.11  -0.10     0.15   0.00  -0.20    -0.22   0.05  -0.03
    25   1     0.23   0.14  -0.01     0.06   0.20  -0.15    -0.15  -0.12  -0.08
    26   1     0.05  -0.24   0.06    -0.06  -0.00   0.06    -0.04   0.14  -0.11
    27   1    -0.06  -0.16  -0.10    -0.16   0.08  -0.04     0.04   0.05  -0.06
                      4                      5                      6
                      A                      A                      A
 Frequencies --    113.6839               135.5170               184.0173
 Red. masses --      2.5827                 1.2726                 2.5086
 Frc consts  --      0.0197                 0.0138                 0.0500
 IR Inten    --      2.2713                 0.0137                 0.6667
  Atom  AN      X      Y      Z        X      Y      Z        X      Y      Z
     1   8     0.07  -0.05  -0.11     0.01  -0.02  -0.01    -0.05   0.09   0.02
     2   6     0.02   0.00   0.03     0.01  -0.00   0.01    -0.03   0.03  -0.03
     3   6     0.00   0.03   0.09     0.01   0.00   0.02    -0.06   0.03   0.03
     4   6     0.04   0.00  -0.02     0.02   0.01  -0.01    -0.02  -0.02  -0.00
     5   6    -0.04  -0.01  -0.07    -0.01   0.00  -0.03     0.01  -0.07  -0.01
     6   6    -0.05  -0.01  -0.06    -0.01   0.00  -0.01     0.03  -0.09  -0.04
     7   8    -0.08  -0.01   0.03    -0.03  -0.00   0.08    -0.02  -0.08  -0.02
     8   8    -0.03  -0.00  -0.10    -0.01   0.00  -0.07     0.10  -0.03  -0.06
     9   6    -0.09  -0.01   0.16    -0.03  -0.01   0.03     0.04   0.14   0.06
    10   6    -0.06  -0.01  -0.03    -0.02   0.00  -0.01     0.07   0.01   0.04
    11   6    -0.00   0.02   0.06    -0.00   0.00   0.01     0.02  -0.00  -0.03
    12   6     0.09   0.02   0.03     0.02   0.01  -0.00    -0.14  -0.08   0.05
    13   6     0.13   0.02  -0.02     0.03   0.01  -0.01     0.07   0.03  -0.05
    14   1     0.03   0.14   0.15     0.02   0.02   0.03    -0.08   0.12   0.07
    15   1    -0.07  -0.04   0.17    -0.00  -0.01   0.03    -0.11  -0.03   0.10
    16   1     0.06  -0.00  -0.06     0.03   0.01  -0.02    -0.06  -0.04   0.02
    17   1    -0.06  -0.02  -0.07    -0.01   0.01  -0.03    -0.05  -0.07  -0.02
    18   1    -0.07   0.32   0.44     0.21  -0.46  -0.21     0.04   0.16   0.08
    19   1    -0.02   0.02  -0.13    -0.15  -0.05   0.59     0.14   0.21   0.15
    20   1    -0.23  -0.36   0.36    -0.15   0.46  -0.24    -0.12   0.18   0.04
    21   1    -0.13  -0.02  -0.00    -0.03   0.00  -0.01     0.11   0.12  -0.00
    22   1    -0.05  -0.02  -0.08    -0.02   0.01  -0.02     0.11  -0.01   0.16
    23   1    -0.02   0.02   0.09    -0.01  -0.00   0.02     0.06   0.02  -0.05
    24   1     0.10   0.01  -0.01     0.02   0.01  -0.02    -0.36   0.06   0.21
    25   1     0.14   0.03   0.08     0.03   0.01   0.01    -0.22  -0.38   0.02
    26   1     0.16   0.02  -0.10     0.04   0.01  -0.03     0.10   0.13  -0.28
    27   1     0.20   0.04   0.02     0.05   0.01  -0.01     0.29   0.09   0.08
                      7                      8                      9
                      A                      A                      A
 Frequencies --    213.3712               275.4568               307.1339
 Red. masses --      3.3252                 3.1245                 4.7301
 Frc consts  --      0.0892                 0.1397                 0.2629
 IR Inten    --      5.9159                 6.1314                 3.8757
  Atom  AN      X      Y      Z        X      Y      Z        X      Y      Z
     1   8    -0.01  -0.01   0.02    -0.07   0.06  -0.05    -0.14  -0.13  -0.05
     2   6     0.00  -0.01  -0.01    -0.07   0.02  -0.01    -0.19  -0.03   0.04
     3   6    -0.00   0.02   0.02    -0.08   0.03   0.04    -0.13   0.04   0.04
     4   6     0.03  -0.01  -0.09    -0.01  -0.03   0.01    -0.05  -0.01  -0.10
     5   6    -0.01   0.01  -0.08     0.05  -0.00   0.05     0.01   0.06  -0.05
     6   6    -0.05   0.02   0.09     0.05   0.13   0.02     0.11  -0.02   0.02
     7   8    -0.05   0.01   0.12     0.03   0.15  -0.02     0.24  -0.05   0.06
     8   8    -0.09  -0.00   0.23     0.05   0.12  -0.05     0.12  -0.03   0.03
     9   6    -0.01  -0.03  -0.12     0.10  -0.17   0.03     0.12   0.08   0.03
    10   6    -0.01   0.02  -0.05    -0.05  -0.15  -0.04    -0.12   0.06   0.03
    11   6     0.00  -0.01  -0.03    -0.01  -0.04   0.00    -0.16  -0.01   0.06
    12   6     0.00  -0.05  -0.01    -0.05  -0.09   0.03     0.09   0.06  -0.04
    13   6     0.19   0.04  -0.12     0.05  -0.02   0.01     0.03  -0.02  -0.07
    14   1     0.03   0.11   0.08    -0.06   0.11   0.09    -0.02   0.17   0.16
    15   1    -0.07  -0.05   0.09    -0.13  -0.03   0.10    -0.27  -0.06   0.14
    16   1     0.05  -0.02  -0.13    -0.06  -0.07   0.01    -0.08  -0.05  -0.12
    17   1     0.05   0.04  -0.12     0.18  -0.01   0.08     0.01   0.12  -0.12
    18   1    -0.21  -0.04  -0.24     0.29  -0.23   0.08     0.06   0.10   0.02
    19   1    -0.01  -0.04  -0.26    -0.11  -0.29   0.02     0.18   0.12   0.04
    20   1     0.27  -0.02  -0.14     0.16  -0.23   0.07     0.07   0.10   0.02
    21   1    -0.03   0.04  -0.05    -0.14  -0.35   0.04    -0.09   0.10   0.01
    22   1    -0.01   0.02  -0.05    -0.09  -0.13  -0.28    -0.20   0.11   0.09
    23   1    -0.01  -0.00   0.00     0.04   0.01   0.00    -0.15   0.02   0.08
    24   1    -0.15   0.04   0.05    -0.16  -0.02   0.12     0.26  -0.05  -0.26
    25   1    -0.00  -0.24   0.03    -0.09  -0.23   0.02     0.24   0.31   0.11
    26   1     0.23   0.10  -0.38     0.06   0.03  -0.12     0.06  -0.08  -0.06
    27   1     0.41   0.10   0.02     0.16   0.02   0.07     0.01  -0.01  -0.08
                     10                     11                     12
                      A                      A                      A
 Frequencies --    327.4486               362.5270               389.7421
 Red. masses --      2.0908                 2.9074                 3.6520
 Frc consts  --      0.1321                 0.2251                 0.3268
 IR Inten    --      1.5207                14.0753                 2.9882
  Atom  AN      X      Y      Z        X      Y      Z        X      Y      Z
     1   8     0.00   0.00   0.04     0.04   0.05   0.01    -0.06   0.04  -0.02
     2   6     0.03  -0.02  -0.02     0.04   0.02   0.00    -0.03  -0.07  -0.05
     3   6    -0.07   0.01   0.16     0.02   0.04   0.07    -0.04  -0.08  -0.04
     4   6    -0.00  -0.05  -0.03     0.04   0.03  -0.02    -0.05  -0.06   0.10
     5   6    -0.00   0.02  -0.03     0.01   0.06  -0.03    -0.00   0.03   0.15
     6   6    -0.01   0.04  -0.00     0.01   0.02  -0.00    -0.03   0.08   0.07
     7   8    -0.03   0.04  -0.02     0.20  -0.04   0.05     0.16   0.04  -0.01
     8   8    -0.02   0.04  -0.01    -0.08  -0.05  -0.01    -0.12   0.01  -0.09
     9   6    -0.01  -0.03  -0.00    -0.12   0.10  -0.03    -0.18   0.06  -0.02
    10   6     0.10   0.11   0.00    -0.05  -0.07  -0.14     0.08  -0.01   0.08
    11   6     0.05  -0.03  -0.09     0.04   0.01  -0.03     0.03  -0.09  -0.04
    12   6     0.03  -0.06  -0.07    -0.06  -0.08   0.04     0.10  -0.04  -0.07
    13   6    -0.05  -0.10   0.01    -0.06  -0.07   0.06     0.13   0.03  -0.00
    14   1    -0.05   0.35   0.32     0.04   0.19   0.16    -0.11  -0.20  -0.13
    15   1    -0.26  -0.21   0.40    -0.07  -0.06   0.19     0.10  -0.01  -0.10
    16   1     0.02  -0.05  -0.07     0.08   0.03  -0.07    -0.08  -0.09   0.08
    17   1    -0.01   0.05  -0.07     0.07   0.03   0.02     0.09   0.05   0.14
    18   1     0.03  -0.04   0.01    -0.22   0.14  -0.04    -0.17   0.09   0.01
    19   1    -0.05  -0.06  -0.01     0.00   0.18  -0.00    -0.13   0.10   0.02
    20   1     0.02  -0.04   0.01    -0.19   0.14  -0.05    -0.27   0.07  -0.03
    21   1     0.25   0.29  -0.09    -0.21  -0.31  -0.03     0.26   0.06   0.01
    22   1     0.11   0.11   0.25    -0.09  -0.06  -0.44     0.05   0.01   0.23
    23   1     0.03  -0.04  -0.06     0.01   0.01   0.01     0.04  -0.07  -0.04
    24   1     0.10  -0.10  -0.07    -0.13  -0.03   0.19     0.10  -0.05  -0.19
    25   1     0.03   0.02  -0.09    -0.15  -0.20  -0.05     0.14   0.03  -0.04
    26   1    -0.08  -0.11   0.15    -0.12  -0.03   0.19     0.21   0.02  -0.27
    27   1    -0.18  -0.14  -0.07    -0.13  -0.17  -0.02     0.28   0.26   0.16
                     13                     14                     15
                      A                      A                      A
 Frequencies --    448.9706               506.5615               545.2161
 Red. masses --      5.2120                 5.0217                 3.8565
 Frc consts  --      0.6190                 0.7592                 0.6754
 IR Inten    --      9.4637                 2.0333                 1.9952
  Atom  AN      X      Y      Z        X      Y      Z        X      Y      Z
     1   8     0.06   0.32  -0.09    -0.19   0.12  -0.08    -0.08   0.00  -0.07
     2   6     0.07  -0.14   0.14    -0.11  -0.09  -0.13    -0.12   0.05   0.07
     3   6     0.04  -0.28   0.10     0.12   0.06   0.02     0.08   0.11   0.00
     4   6     0.01  -0.03  -0.05     0.13   0.19   0.10     0.17   0.03  -0.09
     5   6    -0.02   0.01  -0.07    -0.00   0.09  -0.03     0.16  -0.13  -0.07
     6   6     0.01   0.01  -0.02     0.01  -0.05  -0.08     0.03   0.04  -0.06
     7   8     0.03  -0.00   0.02    -0.09  -0.04   0.02     0.00   0.04   0.02
     8   8     0.02   0.01   0.02     0.03  -0.04   0.05    -0.08   0.00   0.01
     9   6     0.04  -0.00   0.01     0.04  -0.00   0.01    -0.12   0.00  -0.03
    10   6    -0.09   0.02   0.04    -0.04   0.04  -0.07     0.10  -0.17   0.19
    11   6    -0.04  -0.15   0.10    -0.04  -0.17  -0.04    -0.03  -0.04   0.06
    12   6    -0.07   0.09  -0.06     0.08  -0.16  -0.01    -0.06   0.04   0.01
    13   6    -0.08   0.06  -0.11     0.10   0.03   0.23    -0.03   0.01  -0.07
    14   1     0.17  -0.28   0.18     0.13  -0.01  -0.01     0.27   0.10   0.10
    15   1     0.05  -0.29   0.11     0.39   0.03   0.09    -0.05   0.10  -0.00
    16   1     0.13   0.13   0.03     0.15   0.12  -0.05     0.06   0.02   0.04
    17   1    -0.01   0.05  -0.13    -0.17  -0.02   0.09     0.22  -0.13  -0.06
    18   1     0.03  -0.01  -0.00    -0.01  -0.00  -0.02    -0.16   0.01  -0.04
    19   1     0.02  -0.01  -0.01     0.07   0.01  -0.01    -0.08   0.02  -0.03
    20   1     0.06  -0.00   0.01     0.06   0.01  -0.00    -0.10   0.02  -0.04
    21   1    -0.12   0.09   0.03     0.07   0.10  -0.12     0.16   0.07   0.11
    22   1    -0.15   0.06   0.10    -0.15   0.11   0.07     0.10  -0.15   0.41
    23   1    -0.23  -0.38   0.02    -0.05  -0.07   0.12     0.17   0.02  -0.13
    24   1    -0.05   0.06  -0.17     0.10  -0.19  -0.22    -0.02   0.01  -0.06
    25   1    -0.04   0.15  -0.02     0.11   0.00  -0.02    -0.01   0.08   0.07
    26   1    -0.07   0.06  -0.12     0.01   0.11   0.40    -0.14   0.06   0.23
    27   1    -0.06   0.07  -0.10    -0.03  -0.08   0.12    -0.19  -0.22  -0.24
                     16                     17                     18
                      A                      A                      A
 Frequencies --    607.4613               611.2232               667.2547
 Red. masses --      2.9247                 3.8344                 4.3168
 Frc consts  --      0.6359                 0.8440                 1.1324
 IR Inten    --      0.7324                 1.2116                 3.0351
  Atom  AN      X      Y      Z        X      Y      Z        X      Y      Z
     1   8    -0.02  -0.06  -0.06     0.09   0.04  -0.04    -0.06  -0.01  -0.05
     2   6    -0.11  -0.00   0.21    -0.02   0.15   0.19    -0.09  -0.04   0.09
     3   6    -0.10  -0.04   0.07     0.05   0.11   0.08     0.02  -0.04   0.03
     4   6    -0.09   0.06  -0.01     0.10  -0.09   0.08     0.02   0.06  -0.12
     5   6    -0.00  -0.01  -0.11    -0.05   0.03   0.09     0.12   0.20   0.13
     6   6     0.01   0.02  -0.06    -0.02  -0.01   0.04     0.01  -0.05   0.27
     7   8     0.03   0.01   0.02    -0.00  -0.02  -0.01    -0.15   0.02  -0.11
     8   8    -0.01   0.03   0.02     0.02  -0.01  -0.01     0.03  -0.16  -0.07
     9   6    -0.00   0.00  -0.00     0.03   0.00   0.01    -0.03  -0.01  -0.01
    10   6     0.12   0.02  -0.14    -0.10   0.03   0.02     0.09   0.06  -0.02
    11   6     0.13  -0.04  -0.01    -0.14   0.03  -0.12     0.05   0.00   0.01
    12   6     0.02   0.01   0.04    -0.02  -0.15  -0.19     0.01   0.02   0.01
    13   6    -0.01   0.03   0.08     0.03  -0.10  -0.06     0.00  -0.02  -0.08
    14   1     0.09  -0.59  -0.06     0.14  -0.36  -0.08     0.27  -0.08   0.15
    15   1     0.02   0.31  -0.36     0.02   0.47  -0.36    -0.04  -0.03   0.02
    16   1    -0.05   0.06  -0.06     0.11  -0.13  -0.01     0.05   0.08  -0.14
    17   1    -0.01  -0.07  -0.03    -0.08   0.06   0.04     0.25   0.27   0.06
    18   1     0.00  -0.01  -0.01     0.04   0.00   0.01    -0.09   0.05   0.01
    19   1    -0.03  -0.02  -0.02     0.02  -0.00   0.01     0.15   0.10   0.07
    20   1     0.03  -0.00  -0.00     0.02  -0.00   0.01    -0.20   0.04  -0.02
    21   1     0.13   0.18  -0.18     0.10   0.06  -0.04     0.03  -0.34   0.11
    22   1     0.14   0.03   0.03    -0.13   0.06   0.17    -0.07   0.13  -0.40
    23   1     0.14  -0.03  -0.01    -0.18   0.02  -0.09     0.04  -0.02  -0.02
    24   1    -0.09   0.08   0.18    -0.01  -0.16  -0.14    -0.04   0.06   0.10
    25   1    -0.10  -0.14  -0.09     0.02  -0.16  -0.13    -0.01  -0.07   0.02
    26   1     0.02  -0.02   0.08    -0.04   0.02  -0.03    -0.00  -0.05  -0.02
    27   1    -0.01   0.01   0.07    -0.03  -0.01  -0.05    -0.01  -0.10  -0.12
                     19                     20                     21
                      A                      A                      A
 Frequencies --    736.6661               762.9598               819.6234
 Red. masses --      4.4519                 4.2624                 3.4833
 Frc consts  --      1.4234                 1.4619                 1.3787
 IR Inten    --      3.6713                 5.9850                 2.9606
  Atom  AN      X      Y      Z        X      Y      Z        X      Y      Z
     1   8    -0.16  -0.02  -0.05    -0.02   0.02  -0.01     0.02   0.02   0.01
     2   6    -0.13   0.01  -0.06    -0.00  -0.03  -0.02     0.03   0.01  -0.01
     3   6     0.13  -0.21   0.11     0.09   0.04   0.01    -0.02  -0.00  -0.01
     4   6     0.17  -0.15   0.12    -0.02   0.13  -0.11     0.06  -0.12   0.02
     5   6    -0.04  -0.05   0.03    -0.16  -0.11   0.00     0.08  -0.11  -0.12
     6   6    -0.02  -0.00  -0.05    -0.18  -0.05   0.29     0.02   0.03   0.19
     7   8     0.02  -0.02   0.02     0.10  -0.11  -0.07    -0.00   0.07  -0.05
     8   8    -0.01   0.04   0.01    -0.00   0.17  -0.06     0.02  -0.08  -0.04
     9   6     0.00   0.00   0.00     0.04   0.02   0.01    -0.02  -0.01  -0.01
    10   6     0.02   0.07  -0.05    -0.02  -0.04  -0.04    -0.03   0.01  -0.16
    11   6    -0.02   0.27  -0.09     0.00  -0.01   0.00    -0.15  -0.00  -0.05
    12   6     0.00   0.11   0.01     0.04  -0.00   0.04    -0.08   0.11   0.07
    13   6     0.01  -0.04  -0.03     0.04   0.01  -0.05     0.06   0.03   0.17
    14   1     0.13  -0.22   0.11     0.18   0.01   0.05    -0.13   0.02  -0.06
    15   1     0.17  -0.22   0.12     0.24   0.02   0.06    -0.11   0.01  -0.04
    16   1     0.33  -0.00   0.15     0.02   0.15  -0.12     0.02  -0.19  -0.03
    17   1    -0.07  -0.01  -0.02    -0.00  -0.15   0.07     0.35  -0.08  -0.13
    18   1     0.03  -0.02   0.00     0.25  -0.05   0.06    -0.08   0.03   0.00
    19   1    -0.05  -0.03  -0.02    -0.21  -0.13  -0.01     0.11   0.07   0.04
    20   1     0.05  -0.01   0.01     0.12  -0.07   0.05    -0.13   0.02  -0.03
    21   1    -0.01  -0.05  -0.01     0.08   0.20  -0.13     0.11   0.35  -0.29
    22   1     0.20  -0.04  -0.20     0.15  -0.12   0.24     0.03   0.00   0.23
    23   1     0.05   0.34  -0.09    -0.01   0.00   0.05    -0.28  -0.12  -0.05
    24   1    -0.06   0.17   0.32    -0.09   0.08   0.11    -0.01   0.06  -0.07
    25   1    -0.03  -0.12   0.04     0.02  -0.18   0.06    -0.03   0.24   0.10
    26   1    -0.02  -0.03   0.06    -0.01  -0.08   0.24     0.03   0.11   0.17
    27   1    -0.08   0.03  -0.05    -0.15  -0.22  -0.24     0.08   0.01   0.18
                     22                     23                     24
                      A                      A                      A
 Frequencies --    828.9766               856.6403               873.9536
 Red. masses --      1.4016                 2.6877                 2.5770
 Frc consts  --      0.5675                 1.1621                 1.1597
 IR Inten    --      3.2521                 2.8827                 2.9495
  Atom  AN      X      Y      Z        X      Y      Z        X      Y      Z
     1   8    -0.01   0.01  -0.01    -0.00  -0.01  -0.01     0.03   0.02  -0.00
     2   6    -0.01   0.01   0.01    -0.01   0.01   0.03     0.02  -0.04   0.05
     3   6     0.06   0.01   0.02    -0.05   0.01  -0.05     0.02   0.00  -0.04
     4   6    -0.02   0.03  -0.02     0.10  -0.11  -0.05    -0.05   0.05  -0.07
     5   6     0.00  -0.00   0.00     0.01   0.09  -0.02    -0.06   0.06   0.13
     6   6    -0.01  -0.02  -0.00    -0.07  -0.07   0.00     0.02   0.01  -0.12
     7   8     0.01  -0.03  -0.00     0.01  -0.13  -0.01    -0.01   0.00   0.03
     8   8    -0.00   0.04   0.00    -0.01   0.13  -0.00    -0.01  -0.01   0.02
     9   6    -0.01   0.00  -0.00    -0.00   0.02  -0.00     0.02   0.00   0.01
    10   6     0.06  -0.00  -0.04     0.04   0.02   0.09     0.03  -0.08  -0.02
    11   6    -0.03   0.02  -0.01     0.05  -0.06  -0.02    -0.11  -0.01  -0.13
    12   6    -0.07  -0.03   0.06    -0.09   0.08  -0.04    -0.01   0.16   0.07
    13   6    -0.07  -0.06   0.01     0.07   0.03   0.15     0.09  -0.10   0.03
    14   1     0.15  -0.00   0.07    -0.02   0.05  -0.01     0.16   0.10   0.08
    15   1     0.06   0.01   0.02    -0.29   0.01  -0.09    -0.03  -0.07   0.05
    16   1     0.03   0.06  -0.02     0.12  -0.22  -0.26    -0.07  -0.04  -0.19
    17   1    -0.01  -0.05   0.06    -0.04   0.22  -0.20    -0.15  -0.03   0.23
    18   1     0.03  -0.01   0.00     0.13  -0.05   0.02    -0.01   0.00  -0.01
    19   1    -0.06  -0.03  -0.01    -0.21  -0.11  -0.05     0.02   0.01  -0.01
    20   1     0.02  -0.01   0.01     0.12  -0.05   0.03     0.03   0.01   0.00
    21   1     0.06  -0.04  -0.03    -0.09  -0.28   0.20     0.37  -0.08  -0.10
    22   1     0.09  -0.02  -0.07    -0.10   0.07  -0.25     0.01  -0.06   0.14
    23   1     0.00   0.03  -0.04     0.10  -0.12  -0.20    -0.23  -0.25  -0.32
    24   1     0.36  -0.29  -0.12    -0.07   0.06  -0.18    -0.10   0.22   0.22
    25   1     0.04   0.47   0.07    -0.12   0.18  -0.12    -0.00  -0.07   0.15
    26   1    -0.01   0.11  -0.46     0.01   0.14   0.16     0.17  -0.30   0.06
    27   1     0.39  -0.02   0.25     0.04   0.04   0.15     0.05  -0.18  -0.01
                     25                     26                     27
                      A                      A                      A
 Frequencies --    902.5359               908.7478               961.4756
 Red. masses --      2.3007                 2.3172                 2.6831
 Frc consts  --      1.1042                 1.1275                 1.4614
 IR Inten    --      8.9332                 3.3219                 2.6908
  Atom  AN      X      Y      Z        X      Y      Z        X      Y      Z
     1   8     0.01   0.02   0.01    -0.00   0.00   0.02    -0.06   0.01  -0.02
     2   6     0.04  -0.06  -0.05     0.04  -0.02  -0.12    -0.02  -0.07  -0.01
     3   6    -0.07   0.06   0.07    -0.05   0.01   0.15     0.14   0.19   0.03
     4   6    -0.01   0.00   0.06    -0.01   0.03  -0.04    -0.07  -0.12   0.07
     5   6     0.12  -0.03   0.02    -0.09   0.00  -0.07     0.01  -0.02  -0.04
     6   6     0.03  -0.05  -0.03    -0.01   0.05   0.03    -0.01   0.01   0.01
     7   8    -0.01  -0.06   0.00     0.01   0.06  -0.00     0.00   0.01  -0.00
     8   8     0.02   0.09   0.01    -0.01  -0.08  -0.01     0.00  -0.01  -0.00
     9   6    -0.08  -0.00  -0.02     0.06   0.00   0.01     0.00  -0.00   0.00
    10   6     0.07   0.10  -0.05    -0.01  -0.04   0.13    -0.06   0.06  -0.01
    11   6    -0.10  -0.03   0.01     0.04   0.01  -0.08     0.11  -0.09   0.03
    12   6    -0.02   0.01   0.06    -0.06   0.04   0.04     0.00   0.13  -0.02
    13   6     0.04  -0.01  -0.11     0.06  -0.04  -0.00    -0.05  -0.10  -0.02
    14   1    -0.20  -0.22  -0.12    -0.13  -0.43  -0.09     0.23   0.08   0.03
    15   1     0.17   0.23  -0.10     0.30   0.29  -0.15     0.34   0.16   0.09
    16   1    -0.15  -0.03   0.22     0.07   0.03  -0.16    -0.31  -0.31   0.10
    17   1     0.10  -0.01  -0.03    -0.08   0.08  -0.18     0.02   0.05  -0.12
    18   1     0.00  -0.04  -0.00    -0.02   0.04   0.00     0.00   0.00   0.00
    19   1    -0.18  -0.07  -0.05     0.16   0.06   0.04     0.01   0.01   0.00
    20   1     0.01  -0.04   0.00    -0.02   0.03  -0.01    -0.00   0.00  -0.00
    21   1    -0.02  -0.19   0.06    -0.17  -0.11   0.19    -0.20   0.10   0.01
    22   1     0.03   0.11  -0.34     0.04  -0.08  -0.07    -0.13   0.10  -0.03
    23   1    -0.29  -0.19   0.04     0.19  -0.00  -0.30     0.07  -0.20  -0.08
    24   1    -0.01  -0.01  -0.08     0.10  -0.06  -0.10    -0.09   0.21   0.17
    25   1     0.15   0.02   0.31     0.01   0.22   0.08    -0.14  -0.08  -0.17
    26   1    -0.01  -0.09   0.18     0.02  -0.00   0.09     0.08  -0.24  -0.26
    27   1    -0.15  -0.16  -0.26     0.06  -0.23  -0.08     0.05   0.12   0.12
                     28                     29                     30
                      A                      A                      A
 Frequencies --    984.2558               996.8589              1032.8927
 Red. masses --      4.0425                 2.2253                 3.3473
 Frc consts  --      2.3074                 1.3029                 2.1040
 IR Inten    --      7.8772                 4.5757                 8.6696
  Atom  AN      X      Y      Z        X      Y      Z        X      Y      Z
     1   8    -0.03  -0.01  -0.01     0.00  -0.01   0.01     0.02   0.01   0.00
     2   6    -0.01  -0.00   0.01     0.01   0.05  -0.05    -0.00   0.02   0.02
     3   6    -0.04   0.08  -0.05    -0.05  -0.03   0.04     0.06  -0.01   0.01
     4   6     0.18  -0.10   0.08     0.06   0.01   0.06    -0.12  -0.03   0.05
     5   6    -0.14   0.03   0.08     0.08   0.14  -0.03     0.10   0.08  -0.15
     6   6    -0.12   0.06  -0.04    -0.00  -0.04   0.02    -0.12   0.01  -0.01
     7   8     0.03   0.03   0.01    -0.02  -0.06  -0.01     0.00  -0.04  -0.01
     8   8    -0.11  -0.09  -0.03     0.02   0.04   0.00    -0.16  -0.04  -0.04
     9   6     0.19   0.04   0.04    -0.03   0.01  -0.01     0.19   0.06   0.04
    10   6     0.10   0.01  -0.13    -0.11  -0.10  -0.01     0.10  -0.07   0.06
    11   6     0.06  -0.14   0.10     0.04  -0.06  -0.06    -0.14   0.03  -0.03
    12   6    -0.05   0.04   0.10     0.06   0.04   0.10     0.07  -0.06   0.02
    13   6    -0.02   0.03  -0.15    -0.07  -0.02  -0.07    -0.04   0.05   0.03
    14   1    -0.24   0.14  -0.14    -0.25  -0.07  -0.10     0.06   0.04   0.03
    15   1    -0.29   0.11  -0.12    -0.08   0.07  -0.08     0.19  -0.08   0.11
    16   1     0.31   0.01   0.07     0.23   0.23   0.19    -0.19  -0.04   0.14
    17   1    -0.14   0.01   0.12     0.17   0.14  -0.02     0.29   0.24  -0.32
    18   1     0.10   0.05   0.02     0.04  -0.03   0.00     0.18   0.02   0.02
    19   1     0.20   0.05   0.04    -0.11  -0.04  -0.03     0.05  -0.02   0.01
    20   1     0.11   0.05   0.03     0.03  -0.03   0.01     0.18   0.02   0.06
    21   1     0.16   0.01  -0.15     0.13   0.22  -0.16     0.20  -0.22   0.08
    22   1     0.13  -0.00  -0.05    -0.34   0.06   0.39    -0.01  -0.01  -0.07
    23   1    -0.04  -0.20   0.16     0.22   0.00  -0.21    -0.09   0.05  -0.08
    24   1     0.04  -0.03  -0.10     0.09   0.04   0.27    -0.05   0.01   0.07
    25   1     0.04   0.18   0.19     0.00  -0.05   0.04     0.17  -0.22   0.20
    26   1    -0.13   0.14   0.04    -0.02  -0.04  -0.18     0.04  -0.10  -0.01
    27   1    -0.08  -0.06  -0.22     0.08  -0.01   0.01    -0.15   0.29   0.08
                     31                     32                     33
                      A                      A                      A
 Frequencies --   1068.4686              1069.4726              1086.2575
 Red. masses --      2.6067                 2.3548                 2.7701
 Frc consts  --      1.7534                 1.5869                 1.9258
 IR Inten    --      2.6454                 3.2294                13.9132
  Atom  AN      X      Y      Z        X      Y      Z        X      Y      Z
     1   8     0.00  -0.01   0.01     0.00  -0.00  -0.01    -0.00   0.01   0.01
     2   6     0.01   0.02  -0.04    -0.03  -0.02   0.10     0.04  -0.07  -0.08
     3   6    -0.04  -0.03   0.04    -0.04  -0.04  -0.10    -0.05   0.02   0.07
     4   6    -0.02   0.06   0.03     0.04   0.13   0.08     0.03  -0.03  -0.15
     5   6     0.09   0.07   0.01     0.07  -0.10  -0.02     0.11  -0.08   0.16
     6   6    -0.02  -0.01  -0.02    -0.05   0.01   0.02    -0.02  -0.00  -0.07
     7   8    -0.01  -0.04  -0.00     0.01   0.00  -0.00    -0.01  -0.03   0.01
     8   8    -0.06  -0.00  -0.01    -0.08  -0.02  -0.02    -0.11  -0.01  -0.01
     9   6     0.06   0.03   0.02     0.07   0.02   0.02     0.09   0.04   0.02
    10   6     0.01  -0.06  -0.06    -0.06   0.11   0.05    -0.13   0.06  -0.01
    11   6    -0.00   0.06   0.17     0.05   0.00  -0.09     0.04   0.04  -0.05
    12   6    -0.11   0.06  -0.15    -0.02   0.01  -0.02     0.04  -0.01   0.04
    13   6     0.09  -0.14   0.01     0.05  -0.07   0.00    -0.04   0.08   0.03
    14   1    -0.22  -0.06  -0.08    -0.13   0.18  -0.04     0.39  -0.29   0.18
    15   1     0.27  -0.03   0.08    -0.17  -0.16   0.04    -0.15   0.18  -0.17
    16   1     0.04   0.02  -0.12    -0.04   0.25   0.40    -0.22  -0.21  -0.08
    17   1     0.28  -0.08   0.25     0.06  -0.18   0.08     0.36  -0.08   0.19
    18   1     0.08  -0.01  -0.00     0.06   0.01   0.01     0.09   0.00  -0.00
    19   1    -0.05  -0.03  -0.02     0.03  -0.00   0.01    -0.03  -0.03  -0.01
    20   1     0.09  -0.00   0.03     0.05   0.01   0.02     0.10   0.00   0.04
    21   1     0.00   0.21  -0.13    -0.32   0.03   0.14    -0.03   0.13  -0.06
    22   1     0.05  -0.06   0.20    -0.08   0.11  -0.15    -0.06   0.02   0.11
    23   1     0.05   0.19   0.28     0.01  -0.18  -0.32    -0.07   0.08   0.17
    24   1    -0.17   0.09  -0.27     0.13  -0.06   0.13     0.10  -0.04   0.14
    25   1    -0.18   0.10  -0.26    -0.03   0.04  -0.06    -0.08   0.04  -0.15
    26   1     0.11  -0.17  -0.00     0.06  -0.09  -0.00    -0.10   0.23   0.00
    27   1     0.09  -0.21  -0.02     0.18  -0.32  -0.03     0.05  -0.01   0.04
                     34                     35                     36
                      A                      A                      A
 Frequencies --   1092.1636              1141.6589              1173.2101
 Red. masses --      1.8675                 1.4438                 1.1167
 Frc consts  --      1.3124                 1.1087                 0.9056
 IR Inten    --     14.0520                15.1401                 3.3185
  Atom  AN      X      Y      Z        X      Y      Z        X      Y      Z
     1   8    -0.02   0.01   0.00     0.00   0.01  -0.01     0.00  -0.01  -0.00
     2   6     0.03  -0.11  -0.02    -0.01  -0.10   0.08    -0.01   0.05  -0.00
     3   6    -0.06   0.06   0.02    -0.03   0.03  -0.04     0.01  -0.01   0.01
     4   6     0.10   0.06  -0.01     0.01  -0.01   0.03    -0.00  -0.01  -0.03
     5   6    -0.01  -0.01  -0.05    -0.01   0.05   0.00    -0.01  -0.05   0.02
     6   6     0.00  -0.00   0.03    -0.00  -0.00  -0.01     0.01   0.00  -0.00
     7   8     0.00   0.01  -0.00    -0.01  -0.01  -0.00     0.00   0.01   0.00
     8   8    -0.00   0.00  -0.00     0.02   0.00   0.01    -0.01   0.00   0.01
     9   6     0.00  -0.00   0.00    -0.01  -0.00  -0.00     0.01  -0.00  -0.01
    10   6     0.04  -0.01   0.05    -0.02  -0.04  -0.01     0.00   0.01   0.01
    11   6    -0.06   0.04   0.04     0.03   0.08  -0.01    -0.01  -0.03  -0.01
    12   6     0.09   0.04  -0.07    -0.02  -0.03  -0.00     0.02   0.03   0.01
    13   6    -0.09  -0.06   0.04     0.04   0.03  -0.04     0.00   0.01   0.01
    14   1    -0.23  -0.04  -0.12    -0.21   0.09  -0.11    -0.09   0.00  -0.04
    15   1    -0.11   0.15  -0.11     0.35  -0.12   0.19     0.11  -0.02   0.03
    16   1     0.24   0.09  -0.17    -0.26  -0.30  -0.05    -0.07   0.12   0.27
    17   1    -0.07  -0.07   0.02     0.07   0.17  -0.13    -0.12   0.20  -0.32
    18   1    -0.01   0.00  -0.00     0.01  -0.00   0.00     0.04   0.03   0.03
    19   1     0.01   0.00   0.00    -0.01  -0.00  -0.00     0.02   0.01   0.03
    20   1    -0.01   0.00  -0.00    -0.00  -0.01   0.00    -0.07  -0.01  -0.00
    21   1     0.08  -0.13   0.07     0.09   0.05  -0.06     0.36  -0.25  -0.02
    22   1     0.19  -0.11  -0.07     0.10  -0.11   0.11    -0.19   0.11  -0.03
    23   1    -0.36  -0.19   0.11    -0.04  -0.04  -0.08    -0.11   0.10   0.35
    24   1     0.03   0.11   0.38     0.28  -0.17   0.31    -0.02   0.05   0.02
    25   1    -0.04  -0.24  -0.19    -0.05   0.11  -0.08    -0.21   0.06  -0.34
    26   1    -0.08   0.11  -0.28    -0.18   0.38   0.14     0.00   0.01  -0.00
    27   1     0.16   0.10   0.22     0.01  -0.15  -0.12     0.19  -0.34  -0.03
                     37                     38                     39
                      A                      A                      A
 Frequencies --   1185.0352              1197.7180              1211.1889
 Red. masses --      1.2746                 1.3730                 1.7160
 Frc consts  --      1.0546                 1.1605                 1.4832
 IR Inten    --      1.3679                34.6917               100.8874
  Atom  AN      X      Y      Z        X      Y      Z        X      Y      Z
     1   8     0.00  -0.00  -0.00     0.01  -0.01  -0.00     0.00  -0.00  -0.00
     2   6    -0.00   0.01   0.00    -0.02   0.09   0.02    -0.01   0.03   0.01
     3   6     0.00  -0.00   0.00     0.00  -0.03   0.02    -0.00  -0.00   0.01
     4   6    -0.00  -0.00  -0.00    -0.00  -0.00  -0.04    -0.01   0.00  -0.02
     5   6    -0.00  -0.01   0.00     0.03  -0.07   0.03     0.01  -0.02   0.02
     6   6    -0.01   0.00   0.00     0.06  -0.02   0.01    -0.16   0.05  -0.06
     7   8     0.00  -0.00  -0.00    -0.00   0.01  -0.00     0.02  -0.04   0.01
     8   8     0.02   0.00  -0.06    -0.05   0.00  -0.01     0.06   0.05   0.02
     9   6    -0.03  -0.01   0.13     0.02   0.02   0.01     0.01  -0.13  -0.01
    10   6    -0.00   0.00   0.00     0.02   0.04  -0.01     0.01   0.03   0.01
    11   6    -0.00  -0.00  -0.00    -0.01  -0.05   0.01    -0.01  -0.02   0.00
    12   6     0.00   0.00   0.00     0.03   0.01   0.01     0.02   0.00  -0.00
    13   6     0.00   0.00   0.00    -0.03  -0.00  -0.01    -0.01   0.00   0.01
    14   1    -0.01   0.00  -0.01    -0.32   0.04  -0.13    -0.11   0.02  -0.04
    15   1     0.02  -0.00   0.01     0.44  -0.11   0.18     0.15  -0.02   0.06
    16   1    -0.00   0.01   0.02     0.13  -0.13  -0.43     0.11   0.03  -0.14
    17   1     0.00   0.02  -0.03    -0.18  -0.19   0.15     0.45  -0.02   0.08
    18   1    -0.56  -0.21  -0.30     0.02  -0.01  -0.01    -0.28   0.15   0.06
    19   1     0.07   0.02  -0.27    -0.08  -0.04  -0.02     0.59   0.22   0.15
    20   1     0.62   0.23  -0.03     0.01  -0.01   0.02    -0.27   0.14  -0.15
    21   1     0.04  -0.03   0.00    -0.01  -0.04   0.02     0.00  -0.03   0.03
    22   1    -0.02   0.02  -0.01    -0.33   0.23  -0.05    -0.09   0.08  -0.03
    23   1    -0.01   0.01   0.04     0.08  -0.06  -0.14     0.00  -0.03  -0.05
    24   1     0.00   0.00   0.01     0.01   0.03   0.08    -0.00   0.01   0.03
    25   1    -0.03   0.01  -0.04     0.04  -0.07   0.05     0.00  -0.03  -0.01
    26   1    -0.00   0.01   0.00    -0.12   0.21  -0.03    -0.02   0.04  -0.02
    27   1     0.02  -0.04  -0.01    -0.04   0.10   0.03     0.02  -0.01   0.01
                     40                     41                     42
                      A                      A                      A
 Frequencies --   1228.8578              1249.0770              1252.9573
 Red. masses --      1.8690                 1.4893                 1.5077
 Frc consts  --      1.6629                 1.3690                 1.3946
 IR Inten    --    168.8760               135.3251                10.7404
  Atom  AN      X      Y      Z        X      Y      Z        X      Y      Z
     1   8    -0.01  -0.01  -0.01    -0.02  -0.01  -0.01     0.01   0.03  -0.01
     2   6    -0.01   0.04   0.01    -0.02   0.04   0.04     0.01  -0.16   0.08
     3   6     0.02   0.00   0.01     0.05   0.01   0.02     0.04   0.04   0.01
     4   6    -0.02  -0.01  -0.03    -0.02  -0.03  -0.06     0.01  -0.00  -0.03
     5   6    -0.02  -0.03   0.03    -0.01   0.01   0.05     0.01  -0.03   0.01
     6   6    -0.12   0.06  -0.06     0.10  -0.04  -0.01     0.01   0.00  -0.00
     7   8     0.01   0.02   0.01    -0.02  -0.02   0.00    -0.00  -0.00   0.00
     8   8     0.11  -0.11   0.02    -0.06   0.04  -0.01    -0.01   0.00  -0.00
     9   6    -0.08   0.09  -0.01     0.03  -0.01   0.01     0.00   0.00   0.00
    10   6     0.01   0.03   0.02    -0.03  -0.00   0.01    -0.02   0.02   0.00
    11   6     0.00  -0.02  -0.02     0.04  -0.01  -0.05    -0.03   0.01  -0.06
    12   6     0.02  -0.00   0.01     0.01  -0.02   0.03    -0.02  -0.00   0.03
    13   6    -0.01   0.02   0.01    -0.01   0.03   0.02    -0.02   0.02   0.00
    14   1    -0.17   0.06  -0.07    -0.33   0.11  -0.15    -0.42   0.12  -0.21
    15   1     0.14  -0.01   0.05     0.14   0.00   0.04    -0.10   0.07  -0.05
    16   1     0.18   0.13  -0.09     0.19   0.21   0.03     0.09   0.02  -0.11
    17   1     0.51   0.04   0.02     0.18   0.20  -0.16     0.05  -0.04   0.03
    18   1     0.36  -0.16   0.00    -0.11   0.04  -0.02     0.00  -0.00  -0.00
    19   1    -0.42  -0.13  -0.10     0.04   0.00   0.01    -0.01  -0.00  -0.00
    20   1     0.31  -0.18   0.13    -0.10   0.04  -0.02     0.00  -0.00   0.00
    21   1    -0.06  -0.01   0.05    -0.29   0.16   0.03     0.14  -0.08  -0.01
    22   1     0.09  -0.02  -0.05     0.45  -0.27   0.03    -0.07   0.05  -0.03
    23   1    -0.11  -0.10   0.02    -0.28  -0.23   0.07     0.42   0.56   0.15
    24   1    -0.03   0.02  -0.02    -0.06   0.00  -0.14    -0.10   0.03  -0.16
    25   1    -0.02  -0.02  -0.05    -0.01   0.02  -0.02     0.03   0.04   0.08
    26   1     0.01  -0.02  -0.02     0.10  -0.19  -0.02     0.11  -0.24  -0.05
    27   1     0.04  -0.06   0.01    -0.01   0.01   0.01    -0.03   0.07   0.02
                     43                     44                     45
                      A                      A                      A
 Frequencies --   1267.9870              1290.6061              1315.4936
 Red. masses --      1.2100                 1.6915                 1.4844
 Frc consts  --      1.1463                 1.6600                 1.5135
 IR Inten    --      0.6388                 5.7675                 0.4937
  Atom  AN      X      Y      Z        X      Y      Z        X      Y      Z
     1   8     0.02   0.00   0.00     0.02  -0.01  -0.00     0.01  -0.00   0.00
     2   6    -0.00  -0.00   0.01    -0.01   0.03   0.03     0.00  -0.01   0.01
     3   6    -0.04  -0.01  -0.01    -0.08  -0.01  -0.04    -0.10   0.02  -0.03
     4   6     0.05   0.02  -0.02     0.06   0.03   0.05     0.08   0.05  -0.03
     5   6    -0.03   0.00   0.03     0.03   0.04  -0.07    -0.00  -0.07   0.06
     6   6     0.00  -0.00  -0.01    -0.03   0.01   0.02    -0.01   0.01  -0.01
     7   8    -0.00  -0.00   0.00     0.00  -0.00  -0.00     0.00   0.00   0.00
     8   8     0.00  -0.00   0.00     0.01  -0.00   0.00     0.00  -0.01   0.00
     9   6    -0.00   0.00   0.00    -0.00  -0.00  -0.00    -0.00   0.00   0.00
    10   6     0.01   0.00  -0.03    -0.06   0.02   0.06    -0.03  -0.00  -0.03
    11   6    -0.02  -0.02   0.01     0.05  -0.03  -0.11     0.05   0.05   0.03
    12   6     0.05   0.03  -0.03     0.01   0.02   0.08    -0.06  -0.02  -0.02
    13   6    -0.06  -0.04   0.03    -0.02  -0.04  -0.04    -0.00  -0.04   0.02
    14   1     0.03  -0.03   0.02     0.16  -0.07   0.08     0.13  -0.06   0.06
    15   1     0.13  -0.04   0.06     0.28  -0.13   0.16     0.29  -0.06   0.12
    16   1    -0.21  -0.08   0.18    -0.09  -0.22  -0.14     0.09   0.13   0.09
    17   1     0.03   0.15  -0.15    -0.07  -0.19   0.22    -0.01   0.28  -0.41
    18   1    -0.00  -0.00  -0.00     0.01   0.00   0.01     0.01  -0.01   0.00
    19   1    -0.00  -0.00  -0.01     0.02   0.01   0.01    -0.00   0.00  -0.00
    20   1     0.01   0.00   0.00     0.00  -0.00  -0.00     0.02  -0.00   0.00
    21   1    -0.14   0.09  -0.02     0.15  -0.13   0.05     0.22  -0.06  -0.08
    22   1     0.14  -0.07  -0.00     0.27  -0.18  -0.03    -0.14   0.07   0.06
    23   1     0.22   0.12  -0.13    -0.21   0.10   0.47    -0.00  -0.10  -0.10
    24   1    -0.30   0.20  -0.29    -0.18   0.09  -0.32     0.03  -0.06  -0.04
    25   1     0.23  -0.21   0.31    -0.05   0.06  -0.01     0.11   0.02   0.22
[...]
 002334,0.00001700,-0.00001947,0.00001488,-0.00000071,-0.00001435,-0.00
 001575,-0.00001766,0.00001337,-0.00000097,-0.00000920,-0.00000736,0.00
 000716,0.00000071,0.00000281,-0.00004697,0.00001248,0.00006160,-0.0000
 2196,-0.00002647,-0.00932001,0.00583767,-0.02308030,0.01075872,-0.0029
 3185,0.02633362,-0.02295321,0.05898419,-0.00001119,0.00000195,0.000002
 62,0.00000746,-0.00000688,0.00000155,0.00000310,-0.00003672,-0.0000333
 1,0.00015351,-0.00000998,0.00002252,-0.00006825,-0.00035099,-0.0005928
 5,0.00086561,0.00266522,0.00034485,0.00154256,-0.00068094,0.00038797,-
 0.00198157,-0.00139054,0.01108515,-0.08781284,0.04681597,-0.28066855,-
 0.00004552,0.00002956,-0.00000457,-0.00000882,-0.00000664,-0.00000570,
 -0.00001143,0.00000654,-0.00000124,-0.00002204,0.00000571,-0.00001456,
 0.00001053,-0.00000223,0.00000196,0.00000642,-0.00000567,0.00000086,0.
 00000153,-0.00003023,-0.00002098,-0.00002151,-0.00000895,0.00002773,-0
 .00643732,0.00523730,-0.01761885,-0.00226402,0.00029998,-0.00731709,0.
 09605586,-0.05251512,0.29437498,-0.00000328,-0.00029146,-0.00022985,0.
 00177707,-0.00026916,0.00042269,-0.00020199,0.00002076,-0.00007493,-0.
 00126753,-0.00083203,0.00097317,-0.00917106,-0.00020666,-0.01289812,0.
 00005766,-0.00093408,-0.00106388,-0.00092927,-0.00061017,0.00045825,-0
 .00109796,-0.00039938,0.00042439,0.00025058,-0.00012889,0.00006854,-0.
 13336050,-0.00589855,-0.12282932,0.01224413,0.00166643,0.01783562,-0.0
 0281340,0.00039787,0.00342617,-0.00022760,-0.00009746,0.00005268,0.000
 08729,0.00000800,0.00001052,-0.00000012,-0.00001113,0.00003669,0.00018
 073,-0.00022359,-0.00043951,0.00117257,-0.00003697,0.00029530,-0.00007
 047,0.00003582,-0.00000203,-0.00008798,-0.00002108,0.00002035,-0.00001
 823,0.00001680,0.00001094,0.14185606,-0.00001131,0.00019554,0.00019645
 ,-0.00042212,-0.00026737,-0.00094838,-0.00019929,0.00021175,-0.0000239
 0,-0.00271046,-0.00238362,0.00062965,-0.01746639,-0.00425981,-0.021774
 67,0.00148803,-0.00383739,-0.00090977,0.00045714,0.00143781,-0.0004442
 8,-0.00106131,0.00017300,0.00038520,0.00010041,-0.00010452,0.00018840,
 -0.00468081,-0.04985883,-0.01064510,0.00103091,-0.00054066,0.00018053,
 -0.00032337,0.00036500,0.00055316,0.00014819,-0.00010867,0.00042172,0.
 00012430,-0.00001006,0.00002322,0.00006589,-0.00017755,-0.00000467,0.0
 0028482,-0.00059867,-0.00086566,-0.00002814,0.00129389,-0.00030995,-0.
 00007113,0.00000475,0.00001811,-0.00008503,0.00000523,0.00000879,-0.00
 001015,-0.00000459,-0.00001238,0.00998886,0.05462095,0.00151722,-0.000
 12214,0.00035637,-0.00284458,0.00130665,-0.00034388,-0.00022848,-0.000
 01237,-0.00020399,0.00005917,-0.00015088,0.00033743,0.00229572,0.00129
 723,0.00267210,0.00038266,0.00032538,0.00017780,0.00003766,-0.00022816
 ,0.00002342,0.00002893,-0.00002813,-0.00013619,0.00003182,0.00000689,-
 0.00005500,-0.12271127,-0.01160042,-0.22805416,-0.01365970,-0.00184591
 ,-0.02119821,0.00498686,0.00002278,-0.00422899,0.00043046,0.00060386,0
 .00044417,0.00003136,-0.00002626,0.00004455,0.00001072,-0.00016363,0.0
 0004567,0.00002914,-0.00005542,-0.00001865,0.00052389,0.00001190,0.001
 68710,-0.00000096,0.00000874,0.00000224,0.00000824,-0.00000160,0.00000
 111,0.00000229,0.00000214,0.00000660,0.13039974,0.00990672,0.24807970,
 -0.00084441,0.00109779,-0.00059067,-0.00097406,-0.00336707,0.00338903,
 -0.00007732,0.00038559,-0.00048711,-0.00144708,-0.00138547,0.00032556,
 0.01253573,-0.01467648,0.00109925,-0.00115187,-0.00377128,0.00104902,-
 0.00201811,0.00004830,0.00037842,0.00110265,0.00167759,-0.00102141,-0.
 00038628,0.00001513,-0.00006788,-0.14349724,0.13120228,-0.00627962,-0.
 01335075,0.01629489,0.00322256,0.00120858,-0.00071682,-0.00183059,0.00
 021815,0.00008825,-0.00003426,0.00000778,-0.00007470,-0.00000394,0.000
 00098,0.00012839,0.00004024,0.00013176,-0.00038114,-0.00069917,-0.0014
 3077,-0.00211361,0.00019763,0.00004026,-0.00002694,0.00003762,0.000041
 92,0.00002839,-0.00001197,0.00000375,-0.00007085,0.00000960,-0.0102841
 9,0.01340225,-0.00024553,0.15952150,-0.00022040,0.00006831,-0.00035471
 ,0.00013160,0.00041582,0.00097369,-0.00035969,0.00069561,0.00016072,-0
 .00178393,-0.00207311,0.00091093,0.01231661,-0.02220654,0.00217516,0.0
 0321803,-0.00454303,0.00133627,0.00098133,0.00391952,-0.00062709,0.000
 15502,0.00119480,-0.00045031,-0.00013247,-0.00000467,-0.00002554,0.127
 44348,-0.21708853,0.00441075,-0.00066109,0.00222213,0.00016005,-0.0004
 4005,0.00037240,0.00010511,0.00021180,-0.00031798,0.00016925,0.0000206
 1,-0.00002504,-0.00005261,-0.00002017,0.00012818,0.00001623,0.00012204
 ,-0.00047646,-0.00093557,-0.00167974,-0.00281193,-0.00091486,-0.000032
 75,-0.00001537,0.00003813,0.00000753,0.00004878,-0.00002424,-0.0000397
 1,-0.00003749,-0.00001014,-0.00183908,0.00294418,0.00066451,-0.1371183
 5,0.23670337,0.00233756,-0.00166613,0.00149984,0.00108321,0.00380992,-
 0.00563939,-0.00027834,0.00008901,0.00093285,-0.00024914,-0.00049170,-
 0.00031625,0.00052886,0.00065580,-0.00096940,-0.00035407,0.00053030,0.
 00165504,0.00027208,-0.00032575,-0.00102522,0.00029150,0.00033875,0.00
 000376,-0.00010265,0.00002776,0.00005231,-0.00717093,0.00437968,-0.049
 15555,0.01924652,-0.02466053,-0.00450866,0.00092980,-0.00129063,0.0023
 2607,-0.00020343,-0.00017144,-0.00001783,-0.00000348,0.00016504,0.0000
 2493,-0.00016031,-0.00025239,0.00002200,-0.00017477,-0.00004693,-0.000
 20578,0.00061851,0.00064330,0.00009636,0.00002318,-0.00001481,0.000008
 07,0.00001263,0.00000166,-0.00001015,0.00001795,-0.00000959,-0.0000106
 7,-0.01717990,0.02323165,0.00045901,0.00187588,-0.00649500,0.05391017,
 0.00200544,-0.00226941,-0.00001128,0.01179511,0.01833682,0.00011345,-0
 .00230128,0.00272113,-0.00002319,-0.00008529,0.00078647,0.00000173,-0.
 00081196,0.00103220,0.00300104,0.00057641,-0.00066822,-0.00000556,-0.0
 0023452,0.00019076,0.00006072,-0.00060325,-0.00008116,0.00007300,0.000
 13005,-0.00004421,-0.00000891,-0.01040852,-0.01467223,-0.00014867,-0.1
 4062231,-0.12913191,-0.00083634,-0.01017893,-0.01454628,-0.00003944,-0
 .00059340,0.00098921,-0.00312310,0.00029677,0.00055712,-0.00000120,0.0
 0031050,0.00056410,0.00000644,0.00003872,-0.00002298,-0.00000411,-0.00
 039541,-0.00039740,0.00005270,-0.00002828,0.00001034,0.00000611,-0.000
 04043,-0.00000819,0.00000818,-0.00002374,0.00000624,-0.00000381,0.0008
 6876,0.00025406,-0.00004558,0.00014375,0.00017109,-0.00061907,0.149950
 94,0.00069572,0.00573507,0.00003069,-0.02061221,-0.02585646,-0.0001727
 6,0.00369099,-0.00276566,0.00001184,0.00102802,0.00034126,-0.00006231,
 0.00057720,0.00098562,-0.00055602,0.00023422,0.00005597,0.00008712,-0.
 00009668,0.00005872,-0.00003885,-0.00004294,-0.00000322,-0.00000260,0.
 00008229,-0.00000307,-0.00002726,0.00152390,0.00183651,0.00030288,-0.1
 2471841,-0.22576825,-0.00134002,0.00169967,0.00207005,-0.00032792,0.00
 052978,0.00094523,0.00066252,-0.00038319,-0.00086542,-0.00001047,-0.00
 038043,-0.00087064,0.00000602,-0.00009527,0.00011226,0.00000750,0.0000
 7880,0.00008220,-0.00004627,-0.00000553,0.00000589,0.00000236,-0.00000
 022,-0.00000305,-0.00000025,-0.00000733,0.00000058,0.00000059,-0.00009
 234,0.00015638,0.00047207,-0.00023808,0.00046287,0.00043627,0.13671096
 ,0.24246342,0.00005159,0.00001244,-0.00111272,-0.00008138,0.00004670,-
 0.00056503,0.00006353,0.00003521,0.00214176,0.00001045,-0.00004840,-0.
 00081896,0.00312190,-0.00141053,-0.00395758,-0.00090116,0.00129564,-0.
 00017555,0.00036788,-0.00027520,0.00017008,0.00092490,0.00010552,-0.00
 009710,-0.00010954,0.00007994,-0.00007131,0.01563345,0.02273468,-0.000
 12795,-0.00099695,-0.00159595,-0.04867246,-0.01575918,-0.02312190,-0.0
 0025210,-0.00274369,0.00157685,-0.00415050,0.00011195,0.00033519,-0.00
 004884,-0.00011809,-0.00032849,-0.00005148,0.00002360,0.00001112,0.000
 14815,0.00045691,0.00071069,-0.00002779,0.00004131,-0.00000638,0.00000
 279,0.00006481,0.00000446,-0.00000814,0.00004707,-0.00001373,0.0000079
 6,-0.00095038,0.00025106,0.00086465,-0.00053369,-0.00039803,0.00095233
 ,0.00099212,0.00152519,0.05422333,-0.00111876,0.00133958,0.00069430,-0
 .00079275,-0.00403048,-0.00377990,-0.00010496,0.00043001,0.00074070,-0
 .00110635,-0.00177460,-0.00069793,0.00007320,0.00007772,-0.00001102,0.
 00019124,-0.00041033,0.00009625,-0.00018193,0.00018702,-0.00026808,0.0
 0007839,0.00020720,-0.00000316,-0.00004640,0.00000229,0.00001363,0.001
 10850,-0.00087465,0.00189002,-0.01367866,0.01751279,-0.00335877,-0.138
 22732,0.12798806,0.00511239,0.00989643,-0.01778830,-0.00012722,0.00006
 274,0.00015253,-0.00005553,0.00007764,-0.00010412,0.00001550,0.0001357
 3,-0.00033733,0.00061949,-0.00004058,-0.00000131,0.00004607,0.00000045
 ,-0.00000525,0.00000276,0.00000458,0.00000529,-0.00000510,0.00000369,-
 0.00000804,-0.00000046,-0.00001462,-0.00027341,0.00026045,0.00065165,-
 0.00009486,-0.00065968,0.00012721,-0.00024601,0.00049253,0.15297678,-0
 .00010413,0.00000141,0.00031693,0.00011296,0.00064332,-0.00076636,-0.0
 0035075,0.00072519,-0.00020401,-0.00199912,-0.00232994,-0.00143569,-0.
 00002432,-0.00017612,0.00006356,0.00062500,-0.00126849,0.00046891,-0.0
 0013258,0.00080599,-0.00070123,0.00002582,0.00049323,-0.00007215,-0.00
 002617,-0.00001638,-0.00000215,-0.00038874,0.00029298,-0.00025583,-0.0
 0035980,0.00157476,-0.00023770,0.12597146,-0.22017724,-0.00264063,0.01
 283219,-0.02028112,-0.00101480,-0.00006045,0.00012096,-0.00001148,0.00
 005659,-0.00001909,0.00006617,0.00013899,-0.00049042,0.00097506,-0.000
 02656,0.00009616,0.00008301,-0.00000947,-0.00000543,0.00001771,0.00000
 020,0.00001065,-0.00000879,-0.00000240,-0.00002150,-0.00000205,-0.0002
 2166,0.00026235,0.00000567,-0.00012164,0.00008374,0.00076392,0.0002314
 0,0.00051091,0.00044113,-0.13377130,0.23835222,-0.00240188,0.00167670,
 0.00151492,-0.00095594,-0.00387319,-0.00570564,0.00026565,-0.00013379,
 0.00095831,0.00022113,0.00058951,-0.00031114,0.00021101,0.00010603,-0.
 00005520,-0.00008574,0.00086102,-0.00036957,0.00006820,-0.00047278,0.0
 0038399,-0.00016783,-0.00037539,0.00008148,0.00013614,0.00000769,-0.00
 000916,-0.00078540,0.00117398,0.00241748,-0.01934478,0.02498853,-0.004
 84955,0.00623826,-0.00315035,-0.04854000,-0.00027357,-0.00026452,-0.00
 058378,0.00015994,0.00024907,0.00001888,0.00002047,-0.00016147,0.00001
 134,0.00017230,0.00004060,-0.00017122,-0.00002039,-0.00007468,0.000011
 41,-0.00000638,0.00001252,-0.00000756,-0.00001047,-0.00001244,0.000004
 69,-0.00001166,0.00001149,-0.00000218,0.00000747,-0.00030063,0.0004800
 6,0.00063645,-0.00064618,-0.00047823,0.00060616,-0.00043674,0.00096054
 ,-0.00101596,0.00400447,0.05229407,0.00008442,-0.00030713,0.00020749,0
 .00170520,-0.00019046,-0.00040780,-0.00020007,0.00006655,0.00007671,-0
 .00161673,-0.00086845,-0.00104582,-0.00020975,-0.00010437,-0.00007127,
 -0.00003244,0.00043064,-0.00034386,0.00000198,-0.00016104,0.00032075,-
 0.00006549,-0.00014501,0.00007807,0.00011820,0.00001547,-0.00004581,-0
 .00272212,0.00036781,-0.00346885,0.01236601,0.00139629,-0.01769700,-0.
 13631428,-0.00427513,0.12433946,-0.00956626,-0.00084595,0.01234808,-0.
 00000648,-0.00001707,-0.00003628,0.00008653,0.00000857,0.00000278,0.00
 023887,-0.00023456,0.00050165,0.00003068,0.00003780,0.00007661,-0.0000
 1065,0.00001195,0.00000365,-0.00000209,-0.00001167,0.00000561,0.000004
 50,0.00000467,-0.00000035,0.00091512,-0.00012200,-0.00122660,-0.000062
 62,-0.00019544,-0.00002968,0.00085011,-0.00008905,0.00095896,-0.011068
 81,-0.00094301,0.01696208,0.14488166,0.00003753,0.00018762,-0.00021102
 ,-0.00044206,-0.00026538,0.00099606,-0.00020958,0.00023183,0.00008056,
 -0.00286042,-0.00238652,-0.00083105,0.00012840,-0.00009645,-0.00038691
 ,0.00013989,-0.00047032,-0.00003309,0.00003267,0.00033522,-0.00013061,
 0.00005604,0.00021706,-0.00001318,0.00001536,0.00000565,-0.00002976,-0
 .00024264,0.00034432,-0.00056539,0.00091812,-0.00058302,-0.00012702,-0
 .00386780,-0.05041497,0.00964604,-0.01592747,-0.00357408,0.02146837,0.
 00007054,-0.00018238,0.00000220,0.00014810,-0.00001362,-0.00002146,0.0
 0035474,-0.00060010,0.00091672,0.00009471,0.00009984,0.00004463,-0.000
 00651,0.00000108,0.00001204,0.00000225,0.00000070,0.00000009,0.0000099
 7,-0.00000924,-0.00000008,-0.00013845,0.00038592,-0.00022912,-0.000300
 03,0.00025093,0.00031422,0.00028924,0.00013120,-0.00021572,0.01478930,
 0.00201773,-0.02319244,0.00840125,0.05495812,-0.00150369,0.00008768,0.
 00036733,0.00289605,-0.00119287,-0.00037610,0.00022382,0.00003989,-0.0
 0023639,-0.00011371,0.00010163,0.00027669,-0.00038631,-0.00056898,0.00
 047852,-0.00037471,-0.00006211,0.00007905,0.00020241,0.00005899,0.0000
 4535,0.00027818,0.00012237,-0.00008014,-0.00010746,0.00000342,-0.00001
 203,-0.00489681,-0.00011963,-0.00435741,0.01407367,0.00174160,-0.02132
 107,0.12338024,0.01006821,-0.22420643,-0.00206468,-0.00123668,0.002564
 52,-0.00000562,0.00015337,0.00004160,-0.00005009,0.00004406,0.00004407
 ,-0.00001308,0.00003702,-0.00002390,0.00001733,0.00007587,0.00007158,0
 .00001410,-0.00000575,0.00000170,0.00001770,0.00000847,-0.00000444,0.0
 0001769,-0.00000749,0.00000495,0.00123369,0.00025362,-0.00151262,-0.00
 034855,0.00002188,0.00047848,0.00004477,-0.00048128,0.00084985,0.00022
 035,-0.00066928,0.00064248,-0.13153977,-0.00849574,0.24436735,-0.00025
 551,0.00002297,-0.00002667,0.00092649,-0.00000314,0.00033402,0.0009629
 8,0.00095477,-0.00128796,-0.00462196,0.00152762,-0.00042784,0.00015316
 ,-0.00002273,0.00014978,-0.00062688,0.00121963,-0.00047618,0.00012156,
 -0.00032619,0.00185421,0.00009167,-0.00027355,0.00000620,0.00010433,0.
 00002422,-0.00008276,-0.00023674,-0.00004043,0.00020386,-0.00079908,-0
 .00168544,0.00101623,-0.01421409,0.00271814,0.00016367,-0.29854354,0.0
 6159095,-0.00790201,0.00018404,-0.00013852,0.00006608,-0.00036810,-0.0
 0004808,0.00003854,0.00050219,0.00038603,-0.00030227,0.00013661,0.0000
 0842,-0.00002530,0.00001203,0.00002187,-0.00000007,0.00000030,-0.00001
 712,0.00000536,0.00002578,-0.00000346,0.00001616,0.00010399,0.00002013
 ,-0.00007145,-0.00002606,-0.00011530,-0.00006528,-0.00032047,0.0000696
 6,-0.00060539,0.00173969,0.00012912,-0.00006931,-0.00100420,-0.0015782
 6,-0.00075199,0.32193101,0.00012767,0.00064224,-0.00001620,-0.00002508
 ,-0.00173905,0.00011560,-0.00005241,-0.00151100,0.00411689,0.01862297,
 -0.00507418,-0.00046604,-0.00044112,0.00040942,-0.00087112,0.00006906,
 0.00154928,-0.00001157,0.00017370,-0.00066135,0.00005771,-0.00028588,-
 0.00060200,-0.00000509,0.00008723,-0.00001419,0.00009089,-0.00008207,0
 .00006866,0.00018090,-0.00207832,-0.00237213,0.00090716,-0.02749310,0.
 00375308,-0.00097072,0.06288725,-0.06249721,0.00109516,-0.00047267,0.0
 0021185,0.00003612,0.00137409,-0.00000132,0.00033338,-0.00012548,0.000
 25069,-0.00065334,0.00004025,-0.00011882,-0.00014325,-0.00001501,0.000
 00757,-0.00004010,-0.00001126,-0.00000647,-0.00000060,-0.00008127,0.00
 004991,0.00001049,0.00008621,-0.00000550,-0.00008230,0.00000245,-0.000
 01210,-0.00005411,-0.00054033,0.00007422,-0.00093091,-0.00059536,0.001
 48212,-0.00010356,-0.00218489,-0.00214644,0.00001230,-0.06645312,0.072
 74088,-0.00028337,-0.00036228,0.00007135,0.00070999,0.00074957,-0.0001
 0480,0.00011821,0.00271400,-0.00506934,-0.02890502,0.00705670,-0.00066
 164,-0.00046322,-0.00034708,0.00149419,-0.00052005,0.00158536,-0.00247
 135,0.00099981,-0.00095584,0.00058020,-0.00018163,-0.00056358,0.000083
 59,0.00036594,0.00005247,-0.00012730,-0.00015403,-0.00028654,0.0000463
 6,-0.00039644,-0.00046788,-0.00031351,-0.00017594,0.00027919,-0.000601
 09,-0.00547095,0.00003417,-0.05107235,-0.00001147,0.00026770,0.0001542
 6,-0.00190403,0.00046356,0.00009156,0.00065483,-0.00043692,0.00104879,
 0.00018481,0.00018443,0.00039992,-0.00002487,0.00002517,0.00000779,-0.
 00002457,-0.00003513,0.00002843,0.00001380,0.00002498,0.00001433,0.000
 06904,0.00002669,-0.00000196,-0.00007611,-0.00013241,-0.00009988,-0.00
 004258,-0.00008062,-0.00013075,0.00004414,0.00003481,0.00125625,0.0002
 0617,0.00059350,-0.00000893,0.00767021,-0.00354548,0.05355871,-0.00009
 756,0.00029756,0.00007561,-0.00000859,-0.00076492,-0.00010182,0.000610
 87,-0.00062264,-0.00100270,0.00045146,-0.00329949,-0.00573888,0.000112
 56,0.00036928,-0.00125279,-0.00032124,0.00119769,-0.00062456,0.0002731
 5,-0.00049381,0.00082799,-0.00009166,-0.00033458,0.00000581,0.00014962
 ,0.00001375,-0.00005659,-0.00005352,0.00021223,0.00033647,-0.00099764,
 -0.00210551,0.00024425,0.00226796,-0.01159492,-0.01490467,-0.06228417,
 0.03153184,0.04380321,0.00000017,0.00027839,0.00007091,0.00013052,-0.0
 0003483,0.00014656,0.00010037,-0.00001206,0.00045919,0.00034960,-0.000
 16403,-0.00025921,-0.00000614,0.00001599,-0.00000396,-0.00000964,-0.00
 001879,0.00002202,0.00001378,0.00002694,0.00000587,0.00003424,0.000099
 96,-0.00000219,-0.00005770,-0.00004611,0.00001304,-0.00044598,0.000086
 49,-0.00056351,-0.00074677,-0.00158161,-0.00055596,0.00159873,0.000085
 09,-0.00046354,-0.00597920,0.01746645,0.02759733,0.06500677,-0.0003219
 4,0.00032957,0.00011942,0.00051889,-0.00083855,-0.00021992,-0.00059695
 ,0.00086876,0.00003788,-0.00376922,0.01066905,0.01630484,0.00089190,-0
 .00178288,0.00358350,0.00083482,-0.00083414,0.00029574,-0.00018187,0.0
 0042301,-0.00040827,-0.00006030,0.00015570,-0.00007727,0.00001554,-0.0
 0000145,0.00001054,-0.00002465,-0.00025196,0.00022644,-0.00075751,-0.0
 0255126,0.00088124,0.00457254,-0.01529791,-0.01917064,0.03133034,-0.12
 636077,-0.11702073,-0.00004833,0.00014204,-0.00013008,-0.00031962,0.00
 014016,-0.00000326,-0.00034263,0.00082925,-0.00078623,-0.00023732,0.00
 062999,0.00106980,-0.00001045,-0.00000470,0.00000663,-0.00000575,0.000
 00538,-0.00000387,-0.00002248,-0.00000646,-0.00000377,0.00003137,0.000
 10047,-0.00008817,-0.00000884,0.00010163,0.00009174,-0.00046883,0.0001
 0737,-0.00082061,-0.00237642,-0.00268802,-0.00052345,-0.00004578,0.001
 57530,0.00000945,0.00201182,-0.00447817,-0.00687856,-0.03060834,0.1390
 1859,-0.00014896,0.00023608,0.00004274,-0.00009279,-0.00092933,-0.0001
 6883,0.00148852,-0.00116005,0.00110464,0.00597571,-0.01515164,-0.02403
 785,-0.00109802,0.00450981,-0.00386445,-0.00188140,0.00042437,0.000340
 26,0.00044621,-0.00027652,0.00017845,0.00065089,0.00027613,-0.00005617
 ,-0.00028740,-0.00001346,-0.00000139,0.00039882,0.00067286,0.00051526,
 -0.00025073,0.00005339,0.00026504,0.00027390,0.00237001,0.00195189,0.0
 4243955,-0.11661600,-0.21783327,-0.00098763,0.00070074,0.00030918,0.00
 022288,0.00019425,0.00046143,0.00046379,0.00019288,0.00085240,0.000341
 39,-0.00101722,-0.00163566,0.00005118,-0.00001002,0.00000281,0.0000419
 2,0.00001732,-0.00001736,0.00006233,-0.00002470,0.00000654,-0.00007733
 ,-0.00003557,0.00007168,-0.00003077,-0.00007600,0.00001578,-0.00005356
 ,0.00003834,-0.00005323,-0.00026579,0.00078080,0.00004734,-0.00017499,
 0.00040813,0.00182591,0.00057018,0.00093779,0.00182716,-0.04807789,0.1
 2349760,0.23784970\\0.00006549,-0.00002126,-0.00002097,-0.00005251,0.0
 0003221,-0.00000501,0.00000021,-0.00004434,-0.00001054,-0.00000379,-0.
 00003555,0.00000729,0.00002022,0.00003120,-0.00000301,0.00001408,-0.00
 005459,-0.00000985,-0.00003500,0.00009313,0.00000735,-0.00000350,0.000
 03012,0.00007481,-0.00001562,-0.00000594,-0.00008915,-0.00001611,-0.00
 004053,0.00000272,0.00003726,0.00002133,0.00002937,-0.00001318,-0.0000
 3236,-0.00001764,-0.00000878,0.00002857,-0.00000238,0.00000704,0.00000
 578,0.00001331,0.00000040,0.00001299,0.00000069,0.00000637,0.00000547,
 0.00000123,0.00000809,0.00001331,0.00000452,0.00001452,0.00000483,0.00
 001228,0.00001653,-0.00001777,0.00000793,-0.00000747,-0.00000828,-0.00
 000427,-0.00000582,-0.00000619,0.00000054,0.00000284,-0.00000918,0.000
 00320,-0.00001546,0.00000232,-0.00000171,-0.00000525,-0.00000623,0.000
 00958,-0.00001070,0.00000379,0.00000403,-0.00000404,-0.00000326,-0.000
 01852,0.00000417,0.00000044,0.00000420\\\@


  THE LARGE PRINT GIVETH,
  AND THE SMALL PRINT TAKETH AWAY.

                     -- TOM WAITS
 Job cpu time:       0 days  0 hours  2 minutes 48.9 seconds.
 Elapsed time:       0 days  0 hours  2 minutes 53.5 seconds.
 File lengths (MBytes):  RWF=    165 Int=      0 D2E=      0 Chk=     16 Scr=      1
 Normal termination of Gaussian 16 at Sat Feb 24 03:15:50 2024.
