 Entering Gaussian System, Link 0=g16
 Input=/Volumes/SSD-PMU3/b3lyp_6-31gd_freq/FRQUGZXADTWFGO-GFCCVEGCSA-N_calculating/gaussianinput0.gjf
 Output=/Volumes/SSD-PMU3/b3lyp_6-31gd_freq/FRQUGZXADTWFGO-GFCCVEGCSA-N_calculating/gaussianinput0.log
 Initial command:
 /Applications/g16/l1.exe "/Users/macmini_m1_2022/PycharmProjects/sphere_model/sphere_model_lib/Gau-86175.inp" -scrdir="/Users/macmini_m1_2022/PycharmProjects/sphere_model/sphere_model_lib/"
 Entering Link 1 = /Applications/g16/l1.exe PID=     86176.
  
 Copyright (c) 1988,1990,1992,1993,1995,1998,2003,2009,2016,
            Gaussian, Inc.  All Rights Reserved.
  
 This is part of the Gaussian(R) 16 program.  It is based on
 the Gaussian(R) 09 system (copyright 2009, Gaussian, Inc.),
 the Gaussian(R) 03 system (copyright 2003, Gaussian, Inc.),
 the Gaussian(R) 98 system (copyright 1998, Gaussian, Inc.),
 the Gaussian(R) 94 system (copyright 1995, Gaussian, Inc.),
 the Gaussian 92(TM) system (copyright 1992, Gaussian, Inc.),
 the Gaussian 90(TM) system (copyright 1990, Gaussian, Inc.),
 the Gaussian 88(TM) system (copyright 1988, Gaussian, Inc.),
 the Gaussian 86(TM) system (copyright 1986, Carnegie Mellon
 University), and the Gaussian 82(TM) system (copyright 1983,
 Carnegie Mellon University). Gaussian is a federally registered
 trademark of Gaussian, Inc.
  
 This software contains proprietary and confidential information,
 including trade secrets, belonging to Gaussian, Inc.
  
 This software is provided under written license and may be
 used, copied, transmitted, or stored only in accord with that
 written license.
  
 The following legend is applicable only to US Government
 contracts under FAR:
  
                    RESTRICTED RIGHTS LEGEND
  
 Use, reproduction and disclosure by the US Government is
 subject to restrictions as set forth in subparagraphs (a)
 and (c) of the Commercial Computer Software - Restricted
 Rights clause in FAR 52.227-19.
  
 Gaussian, Inc.
 340 Quinnipiac St., Bldg. 40, Wallingford CT 06492
  
  
 ---------------------------------------------------------------
 Warning -- This program may not be used in any manner that
 competes with the business of Gaussian, Inc. or will provide
 assistance to any competitor of Gaussian, Inc.  The licensee
 of this program is prohibited from giving any competitor of
 Gaussian, Inc. access to this program.  By using this program,
 the user acknowledges that Gaussian, Inc. is engaged in the
 business of creating and licensing software in the field of
 computational chemistry and represents and warrants to the
 licensee that it is not a competitor of Gaussian, Inc. and that
 it will not use this program in any manner prohibited above.
 ---------------------------------------------------------------
  

 Cite this work as:
 Gaussian 16, Revision A.03,
 M. J. Frisch, G. W. Trucks, H. B. Schlegel, G. E. Scuseria, 
 M. A. Robb, J. R. Cheeseman, G. Scalmani, V. Barone, 
 G. A. Petersson, H. Nakatsuji, X. Li, M. Caricato, A. V. Marenich, 
 J. Bloino, B. G. Janesko, R. Gomperts, B. Mennucci, H. P. Hratchian, 
 J. V. Ortiz, A. F. Izmaylov, J. L. Sonnenberg, D. Williams-Young, 
 F. Ding, F. Lipparini, F. Egidi, J. Goings, B. Peng, A. Petrone, 
 T. Henderson, D. Ranasinghe, V. G. Zakrzewski, J. Gao, N. Rega, 
 G. Zheng, W. Liang, M. Hada, M. Ehara, K. Toyota, R. Fukuda, 
 J. Hasegawa, M. Ishida, T. Nakajima, Y. Honda, O. Kitao, H. Nakai, 
 T. Vreven, K. Throssell, J. A. Montgomery, Jr., J. E. Peralta, 
 F. Ogliaro, M. J. Bearpark, J. J. Heyd, E. N. Brothers, K. N. Kudin, 
 V. N. Staroverov, T. A. Keith, R. Kobayashi, J. Normand, 
 K. Raghavachari, A. P. Rendell, J. C. Burant, S. S. Iyengar, 
 J. Tomasi, M. Cossi, J. M. Millam, M. Klene, C. Adamo, R. Cammi, 
 J. W. Ochterski, R. L. Martin, K. Morokuma, O. Farkas, 
 J. B. Foresman, and D. J. Fox, Gaussian, Inc., Wallingford CT, 2016.
 
 ******************************************
 Gaussian 16:  EM64M-G16RevA.03 25-Dec-2016
                24-Feb-2024 
 ******************************************
 %nprocshared=10
 Will use up to   10 processors via shared memory.
 %mem=12GB
 %chk= 0.chk
 ---------------------
 # freq b3lyp/6-31g(d)
 ---------------------
 1/10=4,30=1,38=1/1,3;
 2/12=2,17=6,18=5,40=1/2;
 3/5=1,6=6,7=1,11=2,25=1,30=1,71=2,74=-5,140=1/1,2,3;
 4//1;
 5/5=2,38=5,98=1/2;
 8/6=4,10=90,11=11/1;
 11/6=1,8=1,9=11,15=111,16=1/1,2,10;
 10/6=1/2;
 6/7=2,8=2,9=2,10=2,28=1/1;
 7/8=1,10=1,25=1/1,2,3,16;
 1/10=4,30=1/3;
 99//99;
 ---------
 good luck
 ---------
 Symbolic Z-matrix:
 Charge =  0 Multiplicity = 1
 O                     1.21771   0.        0. 
 C                     0.        0.        0. 
 C                    -0.81092  -1.29312   0.01297 
 C                    -1.99409  -1.31799  -0.9869 
 C                    -1.59367  -1.5849   -2.43569 
 C                    -0.29266  -1.42488  -2.92936 
 C                     0.0005   -1.66759  -4.27401 
 C                    -0.98556  -2.0834   -5.17345 
 C                    -0.65651  -2.37682  -6.61866 
 C                    -2.28707  -2.24742  -4.67869 
 C                    -2.58166  -2.0062   -3.33993 
 C                    -2.82068  -0.0121   -0.84511 
 C                    -1.96041   1.24525  -1.01843 
 C                    -0.81488   1.28532   0.01297 
 H                    -1.23186  -1.38319   1.02607 
 H                    -0.12966  -2.13623  -0.13241 
 H                    -2.64932  -2.1468   -0.68624 
 H                     0.51287  -1.11425  -2.27187 
 H                     1.02119  -1.53054  -4.6249 
 H                    -1.51138  -2.17675  -7.27377 
 H                    -0.38002  -3.43053  -6.75949 
 H                     0.18665  -1.77174  -6.96868 
 H                    -3.0784   -2.57337  -5.35068 
 H                    -3.60125  -2.15042  -2.98664 
 H                    -3.28758   0.00147   0.15089 
 H                    -3.63735  -0.01409  -1.57598 
 H                    -2.57846   2.14517  -0.91638 
 H                    -1.53959   1.26508  -2.03161 
 H                    -0.13659   2.12836  -0.14837 
 H                    -1.24582   1.39381   1.02077 
 

 GradGradGradGradGradGradGradGradGradGradGradGradGradGradGradGradGradGrad
 Berny optimization.
 Initialization pass.
 Trust Radius=3.00D-01 FncErr=1.00D-07 GrdErr=1.00D-07 EigMax=2.50D+02 EigMin=1.00D-04
 Number of steps in this run=      2 maximum allowed number of steps=      2.
 GradGradGradGradGradGradGradGradGradGradGradGradGradGradGradGradGradGrad

                          Input orientation:                          
 ---------------------------------------------------------------------
 Center     Atomic      Atomic             Coordinates (Angstroms)
 Number     Number       Type             X           Y           Z
 ---------------------------------------------------------------------
      1          8           0        1.217710    0.000000    0.000000
      2          6           0        0.000000    0.000000    0.000000
      3          6           0       -0.810924   -1.293117    0.012973
      4          6           0       -1.994090   -1.317989   -0.986898
      5          6           0       -1.593669   -1.584902   -2.435695
      6          6           0       -0.292662   -1.424876   -2.929355
      7          6           0        0.000500   -1.667593   -4.274006
      8          6           0       -0.985563   -2.083398   -5.173452
      9          6           0       -0.656507   -2.376822   -6.618663
     10          6           0       -2.287073   -2.247420   -4.678691
     11          6           0       -2.581661   -2.006196   -3.339929
     12          6           0       -2.820678   -0.012102   -0.845111
     13          6           0       -1.960406    1.245246   -1.018434
     14          6           0       -0.814876    1.285323    0.012973
     15          1           0       -1.231859   -1.383189    1.026067
     16          1           0       -0.129655   -2.136232   -0.132414
     17          1           0       -2.649322   -2.146801   -0.686240
     18          1           0        0.512868   -1.114250   -2.271872
     19          1           0        1.021189   -1.530542   -4.624903
     20          1           0       -1.511379   -2.176752   -7.273767
     21          1           0       -0.380022   -3.430533   -6.759490
     22          1           0        0.186653   -1.771737   -6.968681
     23          1           0       -3.078396   -2.573369   -5.350682
     24          1           0       -3.601249   -2.150420   -2.986644
     25          1           0       -3.287585    0.001471    0.150886
     26          1           0       -3.637350   -0.014092   -1.575976
     27          1           0       -2.578457    2.145170   -0.916382
     28          1           0       -1.539586    1.265075   -2.031607
     29          1           0       -0.136594    2.128362   -0.148373
     30          1           0       -1.245817    1.393806    1.020774
 ---------------------------------------------------------------------
                    Distance matrix (angstroms):
                    1          2          3          4          5
     1  O    0.000000
     2  C    1.217710   0.000000
     3  C    2.405759   1.526407   0.000000
     4  C    3.609255   2.586012   1.549272   0.000000
     5  C    4.043313   3.314258   2.587239   1.526628   0.000000
     6  C    3.590629   3.270633   2.990527   2.584458   1.400688
     7  C    4.746535   4.587809   4.379136   3.860789   2.434666
     8  C    5.996629   5.663611   5.249195   4.373810   2.848439
     9  C    7.277958   7.063072   6.721373   5.884474   4.359201
    10  C    6.262951   5.672015   5.010132   3.818248   2.439420
    11  C    5.441982   4.673855   3.858231   2.521036   1.404014
    12  C    4.125886   2.944585   2.533065   1.551996   2.551315
    13  C    3.562059   2.535949   2.971262   2.563650   3.186356
    14  C    2.404918   1.521922   2.578443   3.027791   3.852361
    15  H    2.994397   2.117428   1.100754   2.153433   3.486458
    16  H    2.529113   2.144255   1.093667   2.208117   2.784314
    17  H    4.475893   3.478302   2.144151   1.098478   2.119133
    18  H    2.626739   2.581858   2.646684   2.824448   2.164682
    19  H    4.875542   4.977461   4.992284   4.729922   3.410729
    20  H    8.068077   7.741460   7.373468   6.363584   4.874833
    21  H    7.746742   7.589709   7.114807   6.355382   4.855357
    22  H    7.263928   7.192802   7.068786   6.383044   4.873645
    23  H    7.328612   6.687940   5.962321   4.668438   3.417401
    24  H    6.063556   5.149111   4.185521   2.697200   2.157251
    25  H    4.507821   3.291046   2.798004   2.169944   3.475102
    26  H    5.104459   3.964116   3.485591   2.178868   2.717203
    27  H    4.455603   3.477061   3.976140   3.512823   4.146270
    28  H    3.651099   2.845728   3.354937   2.823156   2.878990
    29  H    2.527069   2.137896   3.491027   4.003842   4.598178
    30  H    3.008927   2.129961   2.902473   3.456080   4.576121
                    6          7          8          9         10
     6  C    0.000000
     7  C    1.397477   0.000000
     8  C    2.439208   1.397933   0.000000
     9  C    3.827477   2.536155   1.510963   0.000000
    10  C    2.777486   2.394360   1.402006   2.537515   0.000000
    11  C    2.397086   2.766714   2.432138   3.820167   1.391853
    12  C    3.568034   4.738883   5.137358   6.603744   4.469644
    13  C    3.682735   4.788375   5.412427   6.795741   5.069804
    14  C    4.034251   5.269036   6.186794   7.577268   6.054696
    15  H    4.065611   5.448887   6.243796   7.730474   5.865546
    16  H    2.890584   4.170054   5.113456   6.512057   5.033433
    17  H    3.332655   4.485896   4.786145   6.262417   4.010114
    18  H    1.085196   2.139451   3.406422   4.675053   3.862191
    19  H    2.147616   1.087988   2.152582   2.739696   3.385470
    20  H    4.574331   3.397585   2.167146   1.095443   2.709449
    21  H    4.324376   3.070893   2.167249   1.098446   3.060445
    22  H    4.082427   2.703104   2.166580   1.095244   3.404357
    23  H    3.865511   3.385153   2.156718   2.740794   1.088121
    24  H    3.387690   3.855259   3.410049   4.681274   2.144642
    25  H    4.526800   5.759943   6.163973   7.642358   5.420641
    26  H    3.874130   4.821554   4.925021   6.316376   4.054361
    27  H    4.692776   5.697528   6.208119   7.527172   5.790917
    28  H    3.097839   4.000095   4.624976   5.923202   4.461324
    29  H    4.514833   5.607933   6.611436   7.901370   6.655510
    30  H    4.945401   6.241808   7.108243   8.539667   6.842999
                   11         12         13         14         15
    11  C    0.000000
    12  C    3.202758   0.000000
    13  C    4.043164   1.533308   0.000000
    14  C    5.019719   2.538279   1.541962   0.000000
    15  H    4.612160   2.811678   3.408729   2.884647   0.000000
    16  H    4.039480   3.501638   3.946020   3.492521   1.767486
    17  H    2.658273   2.147450   3.477203   3.953930   2.350383
    18  H    3.392996   3.789842   3.640798   3.569506   3.740695
    19  H    3.854599   5.599324   5.440728   5.728012   6.085343
    20  H    4.080401   6.908516   7.144290   8.097386   8.342369
    21  H    4.309217   7.254126   7.571014   8.264058   8.095192
    22  H    4.570161   7.045457   7.008387   7.687143   8.128908
    23  H    2.147454   5.189092   5.882185   6.984398   6.744565
    24  H    1.088655   3.125357   4.254029   5.344708   4.722764
    25  H    4.088379   1.100089   2.162334   2.789549   2.628542
    26  H    2.862602   1.095957   2.170006   3.489928   3.798874
    27  H    4.807019   2.171997   1.096478   2.171003   4.246852
    28  H    3.674077   2.163366   1.097270   2.169314   4.056768
    29  H    5.767057   3.503047   2.205264   1.093990   3.861335
    30  H    5.688605   2.817497   2.165889   1.101427   2.777035
                   16         17         18         19         20
    16  H    0.000000
    17  H    2.579837   0.000000
    18  H    2.456535   3.685083   0.000000
    19  H    4.676939   5.418994   2.443040   0.000000
    20  H    7.273907   6.685157   5.499585   3.721286   0.000000
    21  H    6.756925   6.609240   5.128463   3.182738   1.765337
    22  H    6.853281   6.903078   4.753811   2.499584   1.772125
    23  H    6.009699   4.703518   4.950280   4.291951   2.512191
    24  H    4.494307   2.489586   4.302384   4.943185   4.769452
    25  H    3.823945   2.392328   4.643063   6.612167   7.938831
    26  H    4.346409   2.513220   4.349589   5.770404   6.454585
    27  H    4.994161   4.298721   4.692277   6.342037   7.761057
    28  H    4.142913   3.831765   3.151425   4.593281   6.271141
    29  H    4.264630   4.987998   3.930087   5.896385   8.437730
    30  H    3.877735   4.173682   4.497203   6.750170   9.034313
                   21         22         23         24         25
    21  H    0.000000
    22  H    1.765357   0.000000
    23  H    3.162387   3.731096   0.000000
    24  H    5.123413   5.508922   2.457832   0.000000
    25  H    8.245354   8.118056   6.077895   3.817475   0.000000
    26  H    7.010783   6.840583   4.594642   2.560310   1.761996
    27  H    8.370394   7.721290   6.494426   4.876903   2.497473
    28  H    6.763594   6.047878   5.302626   4.102214   3.068464
    29  H    8.641032   7.863324   7.604242   6.194158   3.813393
    30  H    9.195453   8.712292   7.726078   5.845425   2.619946
                   26         27         28         29         30
    26  H    0.000000
    27  H    2.493738   0.000000
    28  H    2.498896   1.759985   0.000000
    29  H    4.345509   2.559847   2.502043   0.000000
    30  H    3.800621   2.468411   3.069186   1.771116   0.000000
 Stoichiometry    C13H16O
 Framework group  C1[X(C13H16O)]
 Deg. of freedom    84
 Full point group                 C1      NOp   1
 Largest Abelian subgroup         C1      NOp   1
 Largest concise Abelian subgroup C1      NOp   1
                         Standard orientation:                         
 ---------------------------------------------------------------------
 Center     Atomic      Atomic             Coordinates (Angstroms)
 Number     Number       Type             X           Y           Z
 ---------------------------------------------------------------------
      1          8           0        2.580218    2.202554   -0.206592
      2          6           0        2.517029    0.987011   -0.170800
      3          6           0        1.934108    0.171059   -1.321600
      4          6           0        0.959581   -0.950644   -0.883053
      5          6           0       -0.441404   -0.465946   -0.518498
      6          6           0       -0.751100    0.862811   -0.201606
      7          6           0       -2.053308    1.234354    0.143579
      8          6           0       -3.094007    0.301708    0.180078
      9          6           0       -4.506787    0.714838    0.521233
     10          6           0       -2.785051   -1.027635   -0.140882
     11          6           0       -1.488871   -1.400257   -0.484864
     12          6           0        1.602676   -1.778437    0.261447
     13          6           0        2.028139   -0.903845    1.446818
     14          6           0        3.035674    0.178481    1.009679
     15          1           0        2.788214   -0.309778   -1.822556
     16          1           0        1.477966    0.856045   -2.041903
     17          1           0        0.842807   -1.626245   -1.741296
     18          1           0        0.016888    1.629173   -0.224739
     19          1           0       -2.258507    2.274700    0.387077
     20          1           0       -5.056967   -0.098669    1.006522
     21          1           0       -5.069805    0.994561   -0.379516
     22          1           0       -4.520413    1.579982    1.192724
     23          1           0       -3.571944   -1.779020   -0.125835
     24          1           0       -1.284524   -2.439678   -0.735897
     25          1           0        2.483252   -2.303689   -0.137164
     26          1           0        0.899754   -2.550196    0.595229
     27          1           0        2.472720   -1.522898    2.235098
     28          1           0        1.143940   -0.423428    1.884304
     29          1           0        3.285470    0.868868    1.820717
     30          1           0        3.969327   -0.311154    0.690787
 ---------------------------------------------------------------------
 Rotational constants (GHZ):           1.3746723           0.4147672           0.3682831
 Standard basis: 6-31G(d) (6D, 7F)
 There are   242 symmetry adapted cartesian basis functions of A   symmetry.
 There are   242 symmetry adapted basis functions of A   symmetry.
   242 basis functions,   456 primitive gaussians,   242 cartesian basis functions
    51 alpha electrons       51 beta electrons
       nuclear repulsion energy       867.8394901605 Hartrees.
 NAtoms=   30 NActive=   30 NUniq=   30 SFac= 1.00D+00 NAtFMM=   60 NAOKFM=F Big=F
 Integral buffers will be    131072 words long.
 Raffenetti 2 integral format.
 Two-electron integral symmetry is turned on.
 One-electron integrals computed using PRISM.
 NBasis=   242 RedAO= T EigKep=  4.12D-04  NBF=   242
 NBsUse=   242 1.00D-06 EigRej= -1.00D+00 NBFU=   242
 ExpMin= 1.61D-01 ExpMax= 5.48D+03 ExpMxC= 8.25D+02 IAcc=3 IRadAn=         5 AccDes= 0.00D+00
 Harris functional with IExCor=  402 and IRadAn=       5 diagonalized for initial guess.
 HarFok:  IExCor=  402 AccDes= 0.00D+00 IRadAn=         5 IDoV= 1 UseB2=F ITyADJ=14
 ICtDFT=  3500011 ScaDFX=  1.000000  1.000000  1.000000  1.000000
 FoFCou: FMM=F IPFlag=           0 FMFlag=      100000 FMFlg1=           0
         NFxFlg=           0 DoJE=T BraDBF=F KetDBF=T FulRan=T
         wScrn=  0.000000 ICntrl=       500 IOpCl=  0 I1Cent=   200000004 NGrid=           0
         NMat0=    1 NMatS0=      1 NMatT0=    0 NMatD0=    1 NMtDS0=    0 NMtDT0=    0
 Petite list used in FoFCou.
 Requested convergence on RMS density matrix=1.00D-08 within 128 cycles.
 Requested convergence on MAX density matrix=1.00D-06.
 Requested convergence on             energy=1.00D-06.
 No special actions if energy rises.
 Integral accuracy reduced to 1.0D-05 until final iterations.
 Initial convergence to 1.0D-05 achieved.  Increase integral accuracy.
 SCF Done:  E(RB3LYP) =  -580.256680922     A.U. after   14 cycles
            NFock= 14  Conv=0.65D-08     -V/T= 2.0098
 DoSCS=F DFT=T ScalE2(SS,OS)=  1.000000  1.000000
 Range of M.O.s used for correlation:     1   242
 NBasis=   242 NAE=    51 NBE=    51 NFC=     0 NFV=     0
 NROrb=    242 NOA=    51 NOB=    51 NVA=   191 NVB=   191
 Symmetrizing basis deriv contribution to polar:
 IMax=3 JMax=2 DiffMx= 0.00D+00
 G2DrvN: will do    31 centers at a time, making    1 passes.
 Calling FoFCou, ICntrl=  3107 FMM=F I1Cent=   0 AccDes= 0.00D+00.
 End of G2Drv F.D. properties file   721 does not exist.
 End of G2Drv F.D. properties file   722 does not exist.
 End of G2Drv F.D. properties file   788 does not exist.
          IDoAtm=111111111111111111111111111111
          Differentiating once with respect to electric field.
                with respect to dipole field.
          Differentiating once with respect to nuclear coordinates.
 Keep R1 ints in memory in canonical form, NReq=442997447.
          There are    93 degrees of freedom in the 1st order CPHF.  IDoFFX=6 NUNeed=     3.
     90 vectors produced by pass  0 Test12= 1.05D-14 1.08D-09 XBig12= 1.48D+02 5.74D+00.
 AX will form    90 AO Fock derivatives at one time.
     90 vectors produced by pass  1 Test12= 1.05D-14 1.08D-09 XBig12= 2.51D+01 1.05D+00.
     90 vectors produced by pass  2 Test12= 1.05D-14 1.08D-09 XBig12= 1.82D-01 4.89D-02.
     90 vectors produced by pass  3 Test12= 1.05D-14 1.08D-09 XBig12= 4.25D-04 2.06D-03.
     90 vectors produced by pass  4 Test12= 1.05D-14 1.08D-09 XBig12= 4.15D-07 6.58D-05.
     55 vectors produced by pass  5 Test12= 1.05D-14 1.08D-09 XBig12= 2.65D-10 2.08D-06.
      5 vectors produced by pass  6 Test12= 1.05D-14 1.08D-09 XBig12= 1.89D-13 3.74D-08.
      2 vectors produced by pass  7 Test12= 1.05D-14 1.08D-09 XBig12= 1.52D-16 1.21D-09.
 InvSVY:  IOpt=1 It=  1 EMax= 5.33D-15
 Solved reduced A of dimension   512 with    93 vectors.
 Isotropic polarizability for W=    0.000000      131.07 Bohr**3.
 End of Minotr F.D. properties file   721 does not exist.
 End of Minotr F.D. properties file   722 does not exist.
 End of Minotr F.D. properties file   788 does not exist.

 **********************************************************************

            Population analysis using the SCF density.

 **********************************************************************

 Orbital symmetries:
       Occupied  (A) (A) (A) (A) (A) (A) (A) (A) (A) (A) (A) (A)
                 (A) (A) (A) (A) (A) (A) (A) (A) (A) (A) (A) (A)
                 (A) (A) (A) (A) (A) (A) (A) (A) (A) (A) (A) (A)
                 (A) (A) (A) (A) (A) (A) (A) (A) (A) (A) (A) (A)
                 (A) (A) (A)
       Virtual   (A) (A) (A) (A) (A) (A) (A) (A) (A) (A) (A) (A)
                 (A) (A) (A) (A) (A) (A) (A) (A) (A) (A) (A) (A)
                 (A) (A) (A) (A) (A) (A) (A) (A) (A) (A) (A) (A)
                 (A) (A) (A) (A) (A) (A) (A) (A) (A) (A) (A) (A)
                 (A) (A) (A) (A) (A) (A) (A) (A) (A) (A) (A) (A)
                 (A) (A) (A) (A) (A) (A) (A) (A) (A) (A) (A) (A)
                 (A) (A) (A) (A) (A) (A) (A) (A) (A) (A) (A) (A)
                 (A) (A) (A) (A) (A) (A) (A) (A) (A) (A) (A) (A)
                 (A) (A) (A) (A) (A) (A) (A) (A) (A) (A) (A) (A)
                 (A) (A) (A) (A) (A) (A) (A) (A) (A) (A) (A) (A)
                 (A) (A) (A) (A) (A) (A) (A) (A) (A) (A) (A) (A)
                 (A) (A) (A) (A) (A) (A) (A) (A) (A) (A) (A) (A)
                 (A) (A) (A) (A) (A) (A) (A) (A) (A) (A) (A) (A)
                 (A) (A) (A) (A) (A) (A) (A) (A) (A) (A) (A) (A)
                 (A) (A) (A) (A) (A) (A) (A) (A) (A) (A) (A) (A)
                 (A) (A) (A) (A) (A) (A) (A) (A) (A) (A) (A)
 The electronic state is 1-A.
 Alpha  occ. eigenvalues --  -19.13347 -10.27043 -10.20426 -10.19322 -10.19215
 Alpha  occ. eigenvalues --  -10.19155 -10.19142 -10.19096 -10.19047 -10.18536
 Alpha  occ. eigenvalues --  -10.18439 -10.18300 -10.18248 -10.18244  -1.03256
 Alpha  occ. eigenvalues --   -0.85885  -0.83052  -0.77860  -0.74697  -0.73936
 Alpha  occ. eigenvalues --   -0.72493  -0.68162  -0.62915  -0.60151  -0.59535
 Alpha  occ. eigenvalues --   -0.56519  -0.52947  -0.49203  -0.47422  -0.46294
 Alpha  occ. eigenvalues --   -0.45307  -0.44917  -0.44123  -0.42747  -0.41751
 Alpha  occ. eigenvalues --   -0.41426  -0.41178  -0.40263  -0.39282  -0.37848
 Alpha  occ. eigenvalues --   -0.37083  -0.35862  -0.34875  -0.34488  -0.33837
 Alpha  occ. eigenvalues --   -0.32639  -0.32039  -0.31661  -0.24562  -0.23718
 Alpha  occ. eigenvalues --   -0.23040
 Alpha virt. eigenvalues --   -0.01762   0.00333   0.00507   0.08392   0.10386
 Alpha virt. eigenvalues --    0.11367   0.11950   0.12948   0.13669   0.14045
 Alpha virt. eigenvalues --    0.15234   0.15823   0.16513   0.16682   0.16795
 Alpha virt. eigenvalues --    0.17695   0.17857   0.19105   0.20100   0.21145
 Alpha virt. eigenvalues --    0.21468   0.22398   0.23644   0.24486   0.25122
 Alpha virt. eigenvalues --    0.26768   0.28426   0.31440   0.32402   0.34045
 Alpha virt. eigenvalues --    0.34676   0.35322   0.40482   0.47852   0.49258
 Alpha virt. eigenvalues --    0.50611   0.51593   0.52340   0.52903   0.53461
 Alpha virt. eigenvalues --    0.54284   0.56983   0.58138   0.58427   0.58895
 Alpha virt. eigenvalues --    0.59915   0.60303   0.61137   0.61359   0.62483
 Alpha virt. eigenvalues --    0.63457   0.65102   0.65702   0.67456   0.69925
 Alpha virt. eigenvalues --    0.70944   0.71466   0.72999   0.74233   0.74770
 Alpha virt. eigenvalues --    0.76203   0.76785   0.78392   0.79177   0.80336
 Alpha virt. eigenvalues --    0.82521   0.83364   0.84279   0.84832   0.86226
 Alpha virt. eigenvalues --    0.86283   0.87052   0.87826   0.88793   0.90165
 Alpha virt. eigenvalues --    0.90832   0.91057   0.93362   0.93984   0.94360
 Alpha virt. eigenvalues --    0.95323   0.95927   0.97649   0.98702   1.01749
 Alpha virt. eigenvalues --    1.02675   1.05167   1.07718   1.10210   1.10749
 Alpha virt. eigenvalues --    1.12211   1.13940   1.16863   1.19740   1.19872
 Alpha virt. eigenvalues --    1.21168   1.23588   1.26470   1.30242   1.36452
 Alpha virt. eigenvalues --    1.37800   1.39718   1.41851   1.46377   1.46762
 Alpha virt. eigenvalues --    1.47636   1.48763   1.50578   1.52215   1.54848
 Alpha virt. eigenvalues --    1.57870   1.58353   1.65496   1.69864   1.71757
 Alpha virt. eigenvalues --    1.76673   1.78077   1.79275   1.80106   1.80975
 Alpha virt. eigenvalues --    1.83539   1.84085   1.84874   1.85959   1.86991
 Alpha virt. eigenvalues --    1.88070   1.91839   1.92197   1.94152   1.96178
 Alpha virt. eigenvalues --    1.98031   1.99037   2.00397   2.01619   2.03497
 Alpha virt. eigenvalues --    2.04736   2.07866   2.10781   2.12663   2.13142
 Alpha virt. eigenvalues --    2.14708   2.16001   2.17929   2.21005   2.23317
 Alpha virt. eigenvalues --    2.24891   2.28900   2.29743   2.31462   2.32032
 Alpha virt. eigenvalues --    2.32755   2.35820   2.36220   2.39220   2.40854
 Alpha virt. eigenvalues --    2.42790   2.43826   2.48432   2.50015   2.57741
 Alpha virt. eigenvalues --    2.58732   2.59800   2.62978   2.64056   2.67205
 Alpha virt. eigenvalues --    2.68884   2.73633   2.76806   2.78766   2.83450
 Alpha virt. eigenvalues --    2.83775   2.85673   2.94003   2.99231   3.01985
 Alpha virt. eigenvalues --    3.10292   3.41364   4.05851   4.10362   4.11472
 Alpha virt. eigenvalues --    4.12838   4.16154   4.24277   4.28164   4.32708
 Alpha virt. eigenvalues --    4.35016   4.45880   4.54666   4.59595   4.62905
 Alpha virt. eigenvalues --    4.73798
          Condensed to atoms (all electrons):
               1          2          3          4          5          6
     1  O    8.040528   0.551753  -0.078647   0.001810   0.000211  -0.005363
     2  C    0.551753   4.479404   0.322773  -0.014670  -0.003672  -0.000696
     3  C   -0.078647   0.322773   5.376979   0.304337  -0.040197  -0.001476
     4  C    0.001810  -0.014670   0.304337   5.109779   0.356030  -0.060019
     5  C    0.000211  -0.003672  -0.040197   0.356030   4.680703   0.544238
     6  C   -0.005363  -0.000696  -0.001476  -0.060019   0.544238   5.042403
     7  C    0.000053   0.000057   0.000089   0.006811  -0.021424   0.484219
     8  C    0.000000   0.000000  -0.000016   0.000404  -0.027702  -0.023565
     9  C    0.000000   0.000000  -0.000000   0.000002   0.000376   0.007428
    10  C   -0.000000  -0.000006  -0.000151   0.006157  -0.020600  -0.056441
    11  C   -0.000001  -0.000011   0.003885  -0.053597   0.534190  -0.035986
    12  C    0.000136  -0.018268  -0.044773   0.353341  -0.044225  -0.001892
    13  C    0.001294  -0.024369  -0.004755  -0.039697  -0.008321   0.000939
    14  C   -0.074521   0.334485  -0.138011  -0.001582  -0.000170  -0.000912
    15  H    0.001487  -0.028357   0.343163  -0.028221   0.005057   0.000101
    16  H    0.003813  -0.026717   0.346058  -0.028205  -0.002980   0.001376
    17  H   -0.000080   0.003339  -0.035663   0.363070  -0.042081   0.003853
    18  H    0.012979   0.007854  -0.004451  -0.011910  -0.041658   0.340369
    19  H   -0.000005  -0.000003   0.000012  -0.000177   0.003659  -0.040727
    20  H   -0.000000   0.000000   0.000000  -0.000000   0.000007  -0.000178
    21  H    0.000000  -0.000000  -0.000000   0.000000   0.000042  -0.000159
    22  H   -0.000000   0.000000   0.000000  -0.000000   0.000011   0.000104
    23  H   -0.000000   0.000000   0.000002  -0.000168   0.004000   0.000500
    24  H    0.000000   0.000002   0.000143  -0.009091  -0.048530   0.006156
    25  H   -0.000006  -0.001216  -0.001973  -0.036198   0.005315  -0.000091
    26  H    0.000001   0.000325   0.004993  -0.033251  -0.006200  -0.000028
    27  H   -0.000065   0.003168  -0.000217   0.004697   0.000165  -0.000005
    28  H    0.000315  -0.002221   0.000409  -0.007594   0.007821   0.003157
    29  H    0.004488  -0.023425   0.006539  -0.000123  -0.000036   0.000045
    30  H    0.001210  -0.028399   0.003806  -0.001694   0.000115  -0.000019
               7          8          9         10         11         12
     1  O    0.000053   0.000000   0.000000  -0.000000  -0.000001   0.000136
     2  C    0.000057   0.000000   0.000000  -0.000006  -0.000011  -0.018268
     3  C    0.000089  -0.000016  -0.000000  -0.000151   0.003885  -0.044773
     4  C    0.006811   0.000404   0.000002   0.006157  -0.053597   0.353341
     5  C   -0.021424  -0.027702   0.000376  -0.020600   0.534190  -0.044225
     6  C    0.484219  -0.023565   0.007428  -0.056441  -0.035986  -0.001892
     7  C    4.979847   0.556037  -0.062702  -0.021807  -0.055580  -0.000129
     8  C    0.556037   4.606951   0.350493   0.547098  -0.023320   0.000019
     9  C   -0.062702   0.350493   5.219446  -0.063897   0.007195   0.000000
    10  C   -0.021807   0.547098  -0.063897   4.972371   0.499734   0.000096
    11  C   -0.055580  -0.023320   0.007195   0.499734   5.000650  -0.006457
    12  C   -0.000129   0.000019   0.000000   0.000096  -0.006457   5.081010
    13  C   -0.000052   0.000006  -0.000000   0.000001  -0.000522   0.370046
    14  C   -0.000009   0.000001   0.000000   0.000001  -0.000006  -0.044277
    15  H   -0.000001   0.000000  -0.000000   0.000001  -0.000098  -0.001032
    16  H   -0.000116  -0.000005  -0.000000  -0.000008   0.000163   0.004720
    17  H   -0.000142   0.000003  -0.000000   0.000145  -0.007341  -0.041563
    18  H   -0.036402   0.003641  -0.000174   0.000592   0.005360   0.000362
    19  H    0.352922  -0.045659  -0.009508   0.006085   0.000700   0.000001
    20  H    0.002848  -0.028060   0.363986  -0.002815   0.000133  -0.000000
    21  H   -0.001910  -0.025600   0.362235  -0.001697  -0.000168   0.000000
    22  H   -0.002668  -0.027938   0.364575   0.002910  -0.000171  -0.000000
    23  H    0.006263  -0.045905  -0.009370   0.352910  -0.043479  -0.000001
    24  H    0.000605   0.003844  -0.000191  -0.041547   0.350912   0.000243
    25  H    0.000002   0.000000   0.000000   0.000003   0.000213   0.360267
    26  H   -0.000004  -0.000007  -0.000000  -0.000131   0.004955   0.364619
    27  H    0.000000   0.000000   0.000000  -0.000002  -0.000010  -0.030318
    28  H    0.000052  -0.000027  -0.000000  -0.000089   0.000734  -0.039265
    29  H   -0.000000  -0.000000  -0.000000   0.000000  -0.000001   0.004046
    30  H    0.000000   0.000000   0.000000  -0.000000   0.000001  -0.002879
              13         14         15         16         17         18
     1  O    0.001294  -0.074521   0.001487   0.003813  -0.000080   0.012979
     2  C   -0.024369   0.334485  -0.028357  -0.026717   0.003339   0.007854
     3  C   -0.004755  -0.138011   0.343163   0.346058  -0.035663  -0.004451
     4  C   -0.039697  -0.001582  -0.028221  -0.028205   0.363070  -0.011910
     5  C   -0.008321  -0.000170   0.005057  -0.002980  -0.042081  -0.041658
     6  C    0.000939  -0.000912   0.000101   0.001376   0.003853   0.340369
     7  C   -0.000052  -0.000009  -0.000001  -0.000116  -0.000142  -0.036402
     8  C    0.000006   0.000001   0.000000  -0.000005   0.000003   0.003641
     9  C   -0.000000   0.000000  -0.000000  -0.000000  -0.000000  -0.000174
    10  C    0.000001   0.000001   0.000001  -0.000008   0.000145   0.000592
    11  C   -0.000522  -0.000006  -0.000098   0.000163  -0.007341   0.005360
    12  C    0.370046  -0.044277  -0.001032   0.004720  -0.041563   0.000362
    13  C    5.037683   0.332851  -0.001459  -0.000150   0.005778  -0.000657
    14  C    0.332851   5.301819   0.002919   0.006329  -0.000309   0.001170
    15  H   -0.001459   0.002919   0.578113  -0.025556  -0.008223   0.000353
    16  H   -0.000150   0.006329  -0.025556   0.552721  -0.002289   0.001613
    17  H    0.005778  -0.000309  -0.008223  -0.002289   0.625015  -0.000063
    18  H   -0.000657   0.001170   0.000353   0.001613  -0.000063   0.571287
    19  H    0.000000  -0.000001  -0.000000   0.000000   0.000003  -0.005211
    20  H   -0.000000  -0.000000   0.000000  -0.000000   0.000000   0.000003
    21  H    0.000000   0.000000   0.000000   0.000000  -0.000000   0.000003
    22  H   -0.000000  -0.000000  -0.000000  -0.000000   0.000000  -0.000007
    23  H    0.000000  -0.000000  -0.000000   0.000000  -0.000005   0.000017
    24  H    0.000088  -0.000001  -0.000006   0.000002   0.004536  -0.000174
    25  H   -0.043877  -0.003694   0.003478  -0.000105  -0.005205  -0.000007
    26  H   -0.030594   0.004468  -0.000081  -0.000143  -0.001965  -0.000016
    27  H    0.368396  -0.028966  -0.000026   0.000014  -0.000170   0.000021
    28  H    0.376113  -0.041485   0.000057  -0.000069   0.000104   0.000191
    29  H   -0.025665   0.345300  -0.000119  -0.000170   0.000016  -0.000056
    30  H   -0.036944   0.346767   0.001030  -0.000144  -0.000031   0.000030
              19         20         21         22         23         24
     1  O   -0.000005  -0.000000   0.000000  -0.000000  -0.000000   0.000000
     2  C   -0.000003   0.000000  -0.000000   0.000000   0.000000   0.000002
     3  C    0.000012   0.000000  -0.000000   0.000000   0.000002   0.000143
     4  C   -0.000177  -0.000000   0.000000  -0.000000  -0.000168  -0.009091
     5  C    0.003659   0.000007   0.000042   0.000011   0.004000  -0.048530
     6  C   -0.040727  -0.000178  -0.000159   0.000104   0.000500   0.006156
     7  C    0.352922   0.002848  -0.001910  -0.002668   0.006263   0.000605
     8  C   -0.045659  -0.028060  -0.025600  -0.027938  -0.045905   0.003844
     9  C   -0.009508   0.363986   0.362235   0.364575  -0.009370  -0.000191
    10  C    0.006085  -0.002815  -0.001697   0.002910   0.352910  -0.041547
    11  C    0.000700   0.000133  -0.000168  -0.000171  -0.043479   0.350912
    12  C    0.000001  -0.000000   0.000000  -0.000000  -0.000001   0.000243
    13  C    0.000000  -0.000000   0.000000  -0.000000   0.000000   0.000088
    14  C   -0.000001  -0.000000   0.000000  -0.000000  -0.000000  -0.000001
    15  H   -0.000000   0.000000   0.000000  -0.000000  -0.000000  -0.000006
    16  H    0.000000  -0.000000   0.000000  -0.000000   0.000000   0.000002
    17  H    0.000003   0.000000  -0.000000   0.000000  -0.000005   0.004536
    18  H   -0.005211   0.000003   0.000003  -0.000007   0.000017  -0.000174
    19  H    0.607434   0.000038   0.000499   0.005223  -0.000192   0.000021
    20  H    0.000038   0.562059  -0.031214  -0.027326   0.005042  -0.000006
    21  H    0.000499  -0.031214   0.562380  -0.030587   0.000571   0.000002
    22  H    0.005223  -0.027326  -0.030587   0.558288   0.000023   0.000003
    23  H   -0.000192   0.005042   0.000571   0.000023   0.615366  -0.005773
    24  H    0.000021  -0.000006   0.000002   0.000003  -0.005773   0.616213
    25  H   -0.000000   0.000000  -0.000000   0.000000  -0.000000  -0.000135
    26  H    0.000000   0.000000  -0.000000   0.000000   0.000007   0.002365
    27  H   -0.000000  -0.000000   0.000000   0.000000  -0.000000   0.000002
    28  H   -0.000004   0.000000  -0.000000   0.000000  -0.000000   0.000002
    29  H    0.000000   0.000000  -0.000000  -0.000000   0.000000  -0.000000
    30  H   -0.000000   0.000000   0.000000  -0.000000  -0.000000   0.000000
              25         26         27         28         29         30
     1  O   -0.000006   0.000001  -0.000065   0.000315   0.004488   0.001210
     2  C   -0.001216   0.000325   0.003168  -0.002221  -0.023425  -0.028399
     3  C   -0.001973   0.004993  -0.000217   0.000409   0.006539   0.003806
     4  C   -0.036198  -0.033251   0.004697  -0.007594  -0.000123  -0.001694
     5  C    0.005315  -0.006200   0.000165   0.007821  -0.000036   0.000115
     6  C   -0.000091  -0.000028  -0.000005   0.003157   0.000045  -0.000019
     7  C    0.000002  -0.000004   0.000000   0.000052  -0.000000   0.000000
     8  C    0.000000  -0.000007   0.000000  -0.000027  -0.000000   0.000000
     9  C    0.000000  -0.000000   0.000000  -0.000000  -0.000000   0.000000
    10  C    0.000003  -0.000131  -0.000002  -0.000089   0.000000  -0.000000
    11  C    0.000213   0.004955  -0.000010   0.000734  -0.000001   0.000001
    12  C    0.360267   0.364619  -0.030318  -0.039265   0.004046  -0.002879
    13  C   -0.043877  -0.030594   0.368396   0.376113  -0.025665  -0.036944
    14  C   -0.003694   0.004468  -0.028966  -0.041485   0.345300   0.346767
    15  H    0.003478  -0.000081  -0.000026   0.000057  -0.000119   0.001030
    16  H   -0.000105  -0.000143   0.000014  -0.000069  -0.000170  -0.000144
    17  H   -0.005205  -0.001965  -0.000170   0.000104   0.000016  -0.000031
    18  H   -0.000007  -0.000016   0.000021   0.000191  -0.000056   0.000030
    19  H   -0.000000   0.000000  -0.000000  -0.000004   0.000000  -0.000000
    20  H    0.000000   0.000000  -0.000000   0.000000   0.000000   0.000000
    21  H   -0.000000  -0.000000   0.000000  -0.000000  -0.000000   0.000000
    22  H    0.000000   0.000000   0.000000   0.000000  -0.000000  -0.000000
    23  H   -0.000000   0.000007  -0.000000  -0.000000   0.000000  -0.000000
    24  H   -0.000135   0.002365   0.000002   0.000002  -0.000000   0.000000
    25  H    0.620602  -0.033868  -0.003801   0.005871  -0.000010   0.005129
    26  H   -0.033868   0.585638  -0.002836  -0.003118  -0.000140  -0.000017
    27  H   -0.003801  -0.002836   0.591466  -0.035393  -0.002284  -0.006398
    28  H    0.005871  -0.003118  -0.035393   0.573403  -0.003064   0.005491
    29  H   -0.000010  -0.000140  -0.002284  -0.003064   0.557432  -0.026644
    30  H    0.005129  -0.000017  -0.006398   0.005491  -0.026644   0.586819
 Mulliken charges:
               1
     1  O   -0.461391
     2  C    0.468867
     3  C   -0.362857
     4  C   -0.180241
     5  C    0.165854
     6  C   -0.207333
     7  C   -0.186858
     8  C    0.179307
     9  C   -0.529894
    10  C   -0.178912
    11  C   -0.182077
    12  C   -0.263829
    13  C   -0.276133
    14  C   -0.342164
    15  H    0.157421
    16  H    0.169846
    17  H    0.139266
    18  H    0.154944
    19  H    0.124888
    20  H    0.155484
    21  H    0.165603
    22  H    0.157560
    23  H    0.120192
    24  H    0.120312
    25  H    0.129308
    26  H    0.145028
    27  H    0.142562
    28  H    0.158609
    29  H    0.163869
    30  H    0.152768
 Sum of Mulliken charges =  -0.00000
 Mulliken charges with hydrogens summed into heavy atoms:
               1
     1  O   -0.461391
     2  C    0.468867
     3  C   -0.035590
     4  C   -0.040975
     5  C    0.165854
     6  C   -0.052389
     7  C   -0.061969
     8  C    0.179307
     9  C   -0.051248
    10  C   -0.058721
    11  C   -0.061764
    12  C    0.010507
    13  C    0.025038
    14  C   -0.025526
 APT charges:
               1
     1  O   -0.644138
     2  C    0.715858
     3  C   -0.082869
     4  C    0.192176
     5  C    0.000470
     6  C   -0.071304
     7  C   -0.029126
     8  C    0.071331
     9  C    0.094676
    10  C   -0.043992
    11  C   -0.032726
    12  C    0.087264
    13  C    0.117308
    14  C   -0.039644
    15  H   -0.015679
    16  H   -0.009342
    17  H   -0.083501
    18  H    0.051242
    19  H    0.007963
    20  H   -0.024126
    21  H   -0.045200
    22  H   -0.020928
    23  H    0.003228
    24  H    0.011898
    25  H   -0.071194
    26  H   -0.030478
    27  H   -0.052299
    28  H   -0.021930
    29  H   -0.022138
    30  H   -0.012797
 Sum of APT charges =   0.00000
 APT charges with hydrogens summed into heavy atoms:
               1
     1  O   -0.644138
     2  C    0.715858
     3  C   -0.107891
     4  C    0.108675
     5  C    0.000470
     6  C   -0.020063
     7  C   -0.021163
     8  C    0.071331
     9  C    0.004422
    10  C   -0.040764
    11  C   -0.020828
    12  C   -0.014408
    13  C    0.043078
    14  C   -0.074579
 Electronic spatial extent (au):  <R**2>=           3196.0445
 Charge=             -0.0000 electrons
 Dipole moment (field-independent basis, Debye):
    X=             -0.5431    Y=             -2.8770    Z=              0.1885  Tot=              2.9339
 Quadrupole moment (field-independent basis, Debye-Ang):
   XX=            -77.9757   YY=            -87.4439   ZZ=            -83.5618
   XY=             -8.3307   XZ=             -0.7348   YZ=              1.7682
 Traceless Quadrupole moment (field-independent basis, Debye-Ang):
   XX=              5.0181   YY=             -4.4501   ZZ=             -0.5680
   XY=             -8.3307   XZ=             -0.7348   YZ=              1.7682
 Octapole moment (field-independent basis, Debye-Ang**2):
  XXX=             -6.1826  YYY=            -12.5829  ZZZ=              0.3646  XYY=            -22.4284
  XXY=            -17.6561  XXZ=              4.9004  XZZ=             12.7520  YZZ=              2.8439
  YYZ=              1.6733  XYZ=              0.3511
 Hexadecapole moment (field-independent basis, Debye-Ang**3):
 XXXX=          -2979.0532 YYYY=           -808.2607 ZZZZ=           -404.1959 XXXY=            -33.2086
 XXXZ=            -10.8262 YYYX=            -32.1181 YYYZ=              9.8124 ZZZX=             -2.4844
 ZZZY=             -1.9815 XXYY=           -683.1366 XXZZ=           -583.0978 YYZZ=           -196.2997
 XXYZ=              6.6735 YYXZ=              1.7537 ZZXY=              3.6157
 N-N= 8.678394901605D+02 E-N=-3.081236872447D+03  KE= 5.746484813327D+02
  Exact polarizability: 168.216  -3.684 133.945  -6.735   6.224  91.051
 Approx polarizability: 225.126  -1.493 230.258 -15.940  15.208 134.004
 Calling FoFJK, ICntrl=    100127 FMM=F ISym2X=0 I1Cent= 0 IOpClX= 0 NMat=1 NMatS=1 NMatT=0.
 Full mass-weighted force constant matrix:
 Low frequencies ---   -4.5264   -0.0010   -0.0008   -0.0005    3.4731    4.5655
 Low frequencies ---   27.3928   40.6948   65.9423
 Diagonal vibrational polarizability:
       26.6055924      11.0782856      18.5793155
 Harmonic frequencies (cm**-1), IR intensities (KM/Mole), Raman scattering
 activities (A**4/AMU), depolarization ratios for plane and unpolarized
 incident light, reduced masses (AMU), force constants (mDyne/A),
 and normal coordinates:
                      1                      2                      3
                      A                      A                      A
 Frequencies --     27.3856                40.6765                65.9416
 Red. masses --      1.0571                 3.4897                 3.5837
 Frc consts  --      0.0005                 0.0034                 0.0092
 IR Inten    --      0.2835                 0.5521                 1.5808
  Atom  AN      X      Y      Z        X      Y      Z        X      Y      Z
     1   8     0.01   0.00  -0.03     0.09  -0.01  -0.12    -0.08   0.00   0.08
     2   6     0.00   0.00  -0.01     0.04  -0.00  -0.05     0.02  -0.01  -0.01
     3   6    -0.00  -0.01  -0.00    -0.02  -0.03  -0.00    -0.06   0.03   0.01
     4   6    -0.00  -0.01   0.01    -0.01  -0.02   0.05    -0.03   0.01   0.06
     5   6    -0.00  -0.01   0.01    -0.01  -0.01   0.02    -0.02   0.00   0.11
     6   6     0.00  -0.01   0.02     0.02  -0.05   0.21    -0.03   0.00   0.09
     7   6     0.00  -0.01   0.02     0.01  -0.05   0.20    -0.05   0.01   0.00
     8   6    -0.00  -0.01  -0.00    -0.02  -0.02  -0.00    -0.06   0.02  -0.05
     9   6    -0.00   0.01  -0.01    -0.03  -0.02  -0.02    -0.09   0.04  -0.20
    10   6    -0.01  -0.00  -0.02    -0.06   0.02  -0.19    -0.04   0.01   0.02
    11   6    -0.00  -0.00  -0.02    -0.05   0.02  -0.17    -0.02  -0.00   0.10
    12   6     0.00   0.01   0.02    -0.02   0.03   0.09     0.05  -0.01   0.01
    13   6     0.00   0.02   0.01     0.01   0.08   0.04     0.21  -0.04  -0.03
    14   6     0.00   0.01  -0.01     0.03   0.04  -0.02     0.20  -0.06  -0.13
    15   1    -0.01  -0.01  -0.00    -0.04  -0.05  -0.02    -0.10   0.04  -0.07
    16   1    -0.01  -0.02  -0.00    -0.04  -0.04  -0.00    -0.13   0.04   0.07
    17   1     0.00  -0.02   0.02    -0.01  -0.06   0.08    -0.07   0.02   0.06
    18   1     0.01  -0.01   0.04     0.05  -0.07   0.35    -0.03   0.00   0.11
    19   1     0.01  -0.01   0.04     0.04  -0.08   0.34    -0.07   0.02  -0.03
    20   1    -0.18  -0.17  -0.51     0.04   0.05   0.19    -0.14   0.06  -0.23
    21   1     0.18   0.56   0.05    -0.09  -0.26  -0.05     0.00   0.01  -0.27
    22   1     0.01  -0.34   0.44    -0.04   0.12  -0.21    -0.15   0.06  -0.24
    23   1    -0.01   0.00  -0.04    -0.09   0.05  -0.35    -0.04   0.01  -0.01
    24   1    -0.01   0.00  -0.03    -0.07   0.05  -0.32    -0.01  -0.01   0.13
    25   1     0.00   0.00   0.02    -0.03  -0.00   0.11    -0.01  -0.05  -0.08
    26   1     0.00   0.01   0.03    -0.03   0.06   0.13     0.05   0.02   0.07
    27   1     0.00   0.03   0.01     0.00   0.12   0.07     0.28  -0.06  -0.09
    28   1     0.00   0.02   0.01     0.03   0.13   0.03     0.28  -0.01   0.08
    29   1     0.01   0.02  -0.01     0.07   0.07  -0.06     0.34  -0.11  -0.14
    30   1     0.00   0.01  -0.00     0.01  -0.00  -0.02     0.13  -0.09  -0.29
                      4                      5                      6
                      A                      A                      A
 Frequencies --     87.5473               114.7896               184.4786
 Red. masses --      7.3045                 3.1659                 3.5138
 Frc consts  --      0.0330                 0.0246                 0.0705
 IR Inten    --      3.7736                 0.6520                 0.7885
  Atom  AN      X      Y      Z        X      Y      Z        X      Y      Z
     1   8     0.51  -0.02  -0.07    -0.04  -0.03   0.09     0.09   0.05  -0.01
     2   6     0.16   0.00   0.01     0.07  -0.04   0.01    -0.03   0.06   0.05
     3   6    -0.04   0.11   0.03     0.05  -0.03   0.01    -0.10   0.05   0.08
     4   6    -0.05   0.11   0.00    -0.00   0.02   0.03    -0.00  -0.04   0.06
     5   6    -0.06   0.06   0.03    -0.02   0.04  -0.09    -0.05  -0.11  -0.00
     6   6    -0.13   0.06  -0.03    -0.05   0.05  -0.12    -0.03  -0.08  -0.09
     7   6    -0.16  -0.00  -0.06    -0.05   0.02  -0.09    -0.01  -0.02  -0.13
     8   6    -0.10  -0.06  -0.00    -0.02  -0.02  -0.02    -0.04   0.02  -0.08
     9   6    -0.14  -0.14  -0.05     0.00  -0.08   0.16     0.03   0.10   0.15
    10   6    -0.02  -0.07   0.09    -0.01  -0.00  -0.06    -0.10   0.01  -0.10
    11   6     0.00  -0.00   0.11    -0.01   0.03  -0.10    -0.10  -0.06  -0.06
    12   6    -0.05   0.05  -0.05    -0.10   0.06   0.12     0.11  -0.03   0.01
    13   6    -0.04  -0.01  -0.01     0.02   0.10   0.05     0.16  -0.07   0.03
    14   6     0.03  -0.06   0.03     0.17  -0.08  -0.07     0.02   0.07   0.05
    15   1    -0.11   0.12  -0.09     0.03  -0.07   0.02    -0.09   0.14   0.01
    16   1    -0.06   0.20   0.13     0.07  -0.02   0.00    -0.17   0.06   0.13
    17   1    -0.06   0.15  -0.03     0.04  -0.03   0.06     0.06  -0.04   0.04
    18   1    -0.16   0.09  -0.06    -0.06   0.06  -0.14    -0.01  -0.11  -0.09
    19   1    -0.22   0.00  -0.12    -0.07   0.01  -0.08     0.03  -0.00  -0.15
    20   1    -0.12  -0.19  -0.12     0.09  -0.13   0.18     0.06   0.12   0.24
    21   1    -0.10  -0.12  -0.06    -0.12  -0.05   0.24    -0.12   0.16   0.26
    22   1    -0.21  -0.18  -0.01     0.05  -0.13   0.21     0.21   0.08   0.17
    23   1     0.03  -0.12   0.15     0.01  -0.02  -0.03    -0.13   0.04  -0.11
    24   1     0.07  -0.01   0.17     0.01   0.03  -0.10    -0.15  -0.07  -0.05
    25   1    -0.05   0.06  -0.07    -0.17  -0.09   0.17     0.11   0.04  -0.08
    26   1    -0.05   0.03  -0.08    -0.20   0.18   0.19     0.19  -0.09   0.03
    27   1    -0.10  -0.05  -0.01    -0.06   0.10   0.09     0.30  -0.10  -0.07
    28   1    -0.03   0.03  -0.03     0.10   0.27   0.02     0.16  -0.20   0.16
    29   1     0.05  -0.08   0.04     0.37  -0.11  -0.11    -0.06   0.08   0.07
    30   1     0.01  -0.11   0.06     0.04  -0.25  -0.19     0.08   0.21   0.03
                      7                      8                      9
                      A                      A                      A
 Frequencies --    202.9877               289.2400               297.9482
 Red. masses --      2.9555                 3.1857                 2.5041
 Frc consts  --      0.0718                 0.1570                 0.1310
 IR Inten    --      1.1609                 0.7366                 0.2594
  Atom  AN      X      Y      Z        X      Y      Z        X      Y      Z
     1   8     0.05   0.04   0.10    -0.01   0.02   0.00    -0.04  -0.05   0.04
     2   6     0.01   0.04   0.02     0.08   0.01   0.03     0.09  -0.05  -0.01
     3   6    -0.10   0.11   0.00     0.18  -0.06   0.02     0.09  -0.05  -0.03
     4   6     0.00  -0.02  -0.05     0.00   0.03  -0.07     0.03  -0.01  -0.01
     5   6    -0.02  -0.12  -0.05    -0.06  -0.02  -0.15     0.01  -0.02   0.08
     6   6     0.04  -0.12  -0.02    -0.07  -0.04  -0.07    -0.03  -0.02   0.05
     7   6     0.08  -0.07   0.03    -0.04  -0.08   0.09    -0.06  -0.00  -0.03
     8   6     0.04  -0.03   0.03    -0.06  -0.05   0.13    -0.08   0.02  -0.06
     9   6     0.07   0.12  -0.05    -0.06   0.12  -0.05    -0.06   0.04   0.06
    10   6    -0.02  -0.05   0.05    -0.06  -0.05   0.10    -0.06   0.02  -0.04
    11   6    -0.03  -0.11   0.01    -0.08  -0.02  -0.07    -0.03  -0.00   0.05
    12   6    -0.03   0.04   0.01    -0.02   0.05  -0.03     0.18   0.03  -0.09
    13   6    -0.12   0.13  -0.02     0.09   0.00  -0.02    -0.08   0.10  -0.05
    14   6     0.04  -0.04  -0.06     0.07   0.07   0.07     0.05  -0.01   0.03
    15   1    -0.12   0.24  -0.14     0.21  -0.22   0.23     0.05  -0.12  -0.02
    16   1    -0.22   0.16   0.12     0.39  -0.08  -0.14     0.14  -0.02  -0.04
    17   1     0.10  -0.02  -0.06     0.08   0.02  -0.07    -0.03   0.01  -0.02
    18   1     0.06  -0.15  -0.03    -0.08  -0.03  -0.11    -0.04  -0.02   0.08
    19   1     0.12  -0.07   0.03    -0.02  -0.08   0.12    -0.04   0.00  -0.04
    20   1    -0.04   0.21  -0.03    -0.24   0.24  -0.06    -0.02   0.03   0.10
    21   1     0.15   0.13  -0.09     0.12   0.12  -0.16    -0.15   0.07   0.12
    22   1     0.14   0.16  -0.11    -0.03   0.19  -0.13     0.02   0.02   0.08
    23   1    -0.04  -0.02   0.08    -0.04  -0.07   0.14    -0.05   0.01  -0.07
    24   1    -0.07  -0.12   0.02    -0.11  -0.02  -0.10    -0.04  -0.01   0.08
    25   1     0.02   0.05   0.10    -0.07  -0.02  -0.05     0.33   0.28  -0.10
    26   1    -0.03   0.04   0.00    -0.05   0.10   0.03     0.36  -0.18  -0.16
    27   1    -0.28   0.18   0.11     0.12  -0.07  -0.09    -0.31   0.17   0.13
    28   1    -0.13   0.27  -0.19     0.11  -0.03   0.07    -0.18   0.18  -0.33
    29   1     0.23  -0.09  -0.08    -0.08   0.08   0.10     0.01   0.03   0.01
    30   1    -0.08  -0.21  -0.16     0.14   0.15   0.16     0.04  -0.10   0.14
                     10                     11                     12
                      A                      A                      A
 Frequencies --    349.3363               375.9357               418.8494
 Red. masses --      2.7907                 2.8842                 3.0570
 Frc consts  --      0.2007                 0.2402                 0.3160
 IR Inten    --      0.0486                 0.7834                 0.0068
  Atom  AN      X      Y      Z        X      Y      Z        X      Y      Z
     1   8     0.00   0.04  -0.02     0.03   0.13   0.01    -0.00   0.02  -0.00
     2   6     0.00   0.04  -0.02     0.02   0.13   0.03     0.00   0.01  -0.00
     3   6     0.07   0.00  -0.01     0.11  -0.03   0.08     0.01  -0.00   0.01
     4   6     0.00   0.06   0.01     0.01  -0.04  -0.02     0.00  -0.00   0.01
     5   6     0.03   0.05   0.09    -0.01  -0.09   0.03     0.00  -0.00   0.01
     6   6    -0.03   0.03   0.09     0.04  -0.09   0.05     0.04  -0.04   0.21
     7   6    -0.07  -0.09  -0.03     0.05   0.04  -0.01    -0.05   0.03  -0.21
     8   6    -0.04  -0.12  -0.12    -0.01   0.10  -0.06    -0.00  -0.01  -0.00
     9   6     0.08   0.15   0.05    -0.05  -0.08   0.02     0.00   0.01   0.00
    10   6     0.01  -0.12  -0.08    -0.04   0.08  -0.01     0.04  -0.04   0.20
    11   6     0.09  -0.02   0.08    -0.06  -0.05   0.08    -0.04   0.04  -0.21
    12   6    -0.11  -0.02  -0.01    -0.09  -0.09  -0.03     0.00  -0.02  -0.00
    13   6    -0.02  -0.03  -0.03    -0.02   0.01  -0.12    -0.01  -0.00  -0.01
    14   6    -0.03  -0.01  -0.04     0.01   0.03  -0.06    -0.00  -0.00  -0.01
    15   1     0.08  -0.08   0.10     0.20  -0.14   0.33     0.02  -0.01   0.03
    16   1     0.14  -0.05  -0.10     0.27  -0.16  -0.15     0.01  -0.02  -0.01
    17   1    -0.06   0.10  -0.01     0.04   0.05  -0.09    -0.01   0.01   0.00
    18   1    -0.07   0.07   0.14     0.09  -0.14   0.05     0.08  -0.08   0.44
    19   1    -0.17  -0.11  -0.01     0.14   0.05  -0.01    -0.10   0.08  -0.44
    20   1    -0.05   0.32   0.18     0.13  -0.22  -0.01     0.00   0.02   0.01
    21   1    -0.01   0.28   0.15    -0.16  -0.12   0.07    -0.00   0.01   0.01
    22   1     0.43   0.17   0.02    -0.16  -0.14   0.09     0.01   0.01   0.00
    23   1     0.07  -0.18  -0.12    -0.09   0.13   0.01     0.09  -0.09   0.42
    24   1     0.20  -0.01   0.12    -0.13  -0.08   0.15    -0.08   0.09  -0.44
    25   1    -0.18  -0.16   0.02    -0.18  -0.27   0.03     0.00  -0.02   0.00
    26   1    -0.23   0.10   0.01    -0.22   0.06   0.07    -0.00  -0.01  -0.00
    27   1     0.02  -0.04  -0.06    -0.06   0.06  -0.06    -0.02   0.02   0.01
    28   1     0.00  -0.04   0.03    -0.03   0.05  -0.17    -0.02   0.00  -0.03
    29   1    -0.01  -0.06  -0.01     0.06  -0.11   0.04     0.01  -0.02  -0.00
    30   1    -0.04  -0.01  -0.07    -0.01   0.03  -0.15    -0.01  -0.01  -0.02
                     13                     14                     15
                      A                      A                      A
 Frequencies --    426.8840               446.4982               482.6894
 Red. masses --      2.6274                 3.9838                 1.9705
 Frc consts  --      0.2821                 0.4679                 0.2705
 IR Inten    --      2.7246                 1.9485                 0.6135
  Atom  AN      X      Y      Z        X      Y      Z        X      Y      Z
     1   8     0.04   0.09  -0.02    -0.06   0.00  -0.15     0.04  -0.00   0.02
     2   6    -0.09   0.09   0.01     0.02   0.00   0.13    -0.08   0.01   0.01
     3   6     0.03  -0.03   0.05    -0.10  -0.05   0.25     0.02  -0.04  -0.01
     4   6     0.07  -0.05   0.08    -0.14  -0.00   0.06    -0.10   0.08   0.01
     5   6     0.05   0.03   0.01    -0.06   0.05   0.07    -0.08  -0.01   0.01
     6   6    -0.04   0.05  -0.08    -0.01   0.08  -0.04     0.00  -0.00   0.02
     7   6    -0.04  -0.02   0.02     0.01   0.03  -0.00     0.03   0.03  -0.00
     8   6    -0.03  -0.04   0.12     0.10  -0.06   0.05     0.06   0.00  -0.04
     9   6    -0.05   0.04   0.00     0.13  -0.02  -0.03     0.09  -0.04  -0.02
    10   6     0.01   0.00  -0.01     0.01  -0.05  -0.03    -0.02  -0.02   0.00
    11   6     0.02   0.06  -0.07    -0.00   0.00  -0.05    -0.04  -0.06   0.01
    12   6     0.11  -0.11   0.04    -0.02  -0.04  -0.10     0.02   0.14  -0.03
    13   6    -0.05  -0.04   0.02    -0.02   0.04  -0.14    -0.00   0.00   0.08
    14   6    -0.06  -0.07  -0.11     0.15   0.01   0.08    -0.04  -0.03  -0.04
    15   1     0.14  -0.01   0.22    -0.10  -0.10   0.28     0.08  -0.27   0.31
    16   1     0.04  -0.18  -0.11     0.01  -0.01   0.23     0.29  -0.13  -0.26
    17   1     0.06  -0.03   0.06    -0.18   0.12  -0.04    -0.07   0.03   0.04
    18   1    -0.10   0.11  -0.16    -0.00   0.07  -0.13     0.06  -0.06   0.01
    19   1    -0.07  -0.01  -0.02    -0.10   0.02  -0.05     0.00   0.02   0.01
    20   1    -0.17   0.11  -0.02     0.06   0.02  -0.05     0.13  -0.06  -0.02
    21   1     0.07   0.03  -0.08     0.22  -0.03  -0.09     0.06  -0.04  -0.00
    22   1    -0.07   0.08  -0.05     0.12   0.00  -0.07     0.08  -0.05  -0.00
    23   1     0.04  -0.03  -0.10    -0.02  -0.01  -0.09    -0.07   0.03   0.05
    24   1     0.02   0.08  -0.14     0.08   0.04  -0.14    -0.02  -0.05   0.03
    25   1     0.20   0.05   0.04    -0.02   0.04  -0.22     0.13   0.39  -0.12
    26   1     0.20  -0.23  -0.05     0.09  -0.10   0.01     0.21  -0.07  -0.13
    27   1    -0.04   0.09   0.12    -0.27   0.07   0.02     0.13  -0.10  -0.08
    28   1    -0.11  -0.04  -0.08    -0.06   0.17  -0.37     0.04  -0.07   0.25
    29   1     0.28  -0.22  -0.09     0.11  -0.10   0.18     0.21  -0.07  -0.09
    30   1    -0.23  -0.21  -0.41     0.14   0.03   0.06    -0.16  -0.14  -0.23
                     16                     17                     18
                      A                      A                      A
 Frequencies --    494.2578               535.0983               592.7797
 Red. masses --      3.2806                 3.3377                 3.8385
 Frc consts  --      0.4722                 0.5631                 0.7947
 IR Inten    --     14.8913                 3.9904                 3.3758
  Atom  AN      X      Y      Z        X      Y      Z        X      Y      Z
     1   8     0.09   0.01   0.23    -0.08   0.03  -0.08    -0.06   0.11  -0.00
     2   6     0.02  -0.00  -0.10     0.13   0.02  -0.06     0.20   0.07  -0.12
     3   6    -0.03  -0.09  -0.09     0.09   0.10  -0.06     0.05   0.04  -0.04
     4   6    -0.08  -0.05   0.06     0.04   0.13   0.05    -0.01   0.02   0.14
     5   6    -0.03   0.01   0.12     0.01  -0.09   0.20    -0.12   0.04  -0.10
     6   6    -0.01   0.05  -0.04    -0.02  -0.06  -0.03    -0.07   0.06  -0.03
     7   6    -0.01   0.02  -0.03     0.01   0.03  -0.08    -0.02   0.06   0.09
     8   6     0.06  -0.05   0.10     0.06  -0.01   0.18     0.04   0.01  -0.13
     9   6     0.07  -0.02  -0.02     0.02  -0.01   0.00     0.13  -0.04  -0.04
    10   6    -0.02  -0.03  -0.04    -0.04   0.02  -0.07    -0.05  -0.05   0.07
    11   6    -0.03   0.00  -0.03    -0.05  -0.07  -0.01    -0.09  -0.03  -0.03
    12   6    -0.00  -0.05   0.01    -0.04   0.03  -0.01     0.04  -0.14   0.07
    13   6     0.03   0.06  -0.10    -0.05  -0.07   0.06    -0.05  -0.10   0.04
    14   6    -0.06   0.10  -0.08    -0.01  -0.07   0.03    -0.01  -0.04  -0.01
    15   1    -0.05  -0.22  -0.00    -0.03   0.03  -0.19    -0.12  -0.02  -0.26
    16   1    -0.02  -0.21  -0.22     0.06   0.18   0.03    -0.13   0.02   0.06
    17   1    -0.18  -0.05   0.08     0.01   0.16   0.03     0.04   0.04   0.12
    18   1    -0.02   0.05  -0.16    -0.02  -0.07  -0.27     0.02  -0.02   0.15
    19   1    -0.09   0.03  -0.15    -0.01   0.09  -0.37    -0.04  -0.01   0.37
    20   1    -0.01   0.01  -0.05    -0.06  -0.01  -0.07     0.19  -0.06  -0.01
    21   1     0.19  -0.04  -0.10     0.19  -0.07  -0.12     0.04  -0.02   0.03
    22   1     0.02   0.01  -0.06    -0.13   0.02  -0.05     0.18  -0.06  -0.01
    23   1    -0.07   0.02  -0.18    -0.15   0.13  -0.35    -0.07  -0.02   0.35
    24   1    -0.00   0.04  -0.18    -0.15  -0.02  -0.26    -0.00  -0.07   0.18
    25   1    -0.05  -0.10  -0.04    -0.05  -0.01   0.04     0.09   0.01  -0.03
    26   1    -0.00  -0.00   0.13    -0.14   0.07  -0.12     0.13  -0.26  -0.02
    27   1     0.02   0.16  -0.01     0.01  -0.12  -0.02    -0.03   0.05   0.14
    28   1    -0.00   0.06  -0.17    -0.02  -0.10   0.15    -0.11  -0.11  -0.07
    29   1    -0.39   0.26  -0.11     0.02  -0.09   0.04    -0.13  -0.05   0.03
    30   1     0.12   0.28   0.19    -0.04  -0.16   0.09     0.04  -0.09   0.20
                     19                     20                     21
                      A                      A                      A
 Frequencies --    654.1685               684.6208               706.9353
 Red. masses --      6.2503                 3.1754                 3.4695
 Frc consts  --      1.5759                 0.8769                 1.0216
 IR Inten    --      0.5095                 0.9839                 0.6967
  Atom  AN      X      Y      Z        X      Y      Z        X      Y      Z
     1   8    -0.01   0.06  -0.00     0.02  -0.08  -0.03    -0.00  -0.12  -0.02
     2   6     0.07   0.05  -0.00    -0.14  -0.05   0.08    -0.08  -0.10  -0.03
     3   6    -0.00  -0.02  -0.03     0.08   0.08  -0.05     0.02   0.12   0.08
     4   6    -0.04  -0.06  -0.04     0.12  -0.01  -0.11     0.05   0.20   0.16
     5   6     0.04   0.10   0.02    -0.04   0.02  -0.01     0.02  -0.01   0.08
     6   6     0.31   0.12  -0.03    -0.06   0.06   0.06     0.06  -0.01  -0.11
     7   6     0.18  -0.25  -0.10    -0.07   0.06  -0.01     0.09  -0.08   0.05
     8   6    -0.03  -0.11   0.00     0.05  -0.03   0.02    -0.03   0.02  -0.09
     9   6    -0.02  -0.04  -0.00     0.17  -0.06  -0.03    -0.05   0.01  -0.01
    10   6    -0.29  -0.11   0.03    -0.15  -0.02  -0.01    -0.03  -0.03   0.08
    11   6    -0.17   0.27   0.10    -0.12   0.02   0.06    -0.04   0.02  -0.08
    12   6    -0.02   0.02  -0.01     0.08  -0.06   0.03     0.04   0.01   0.01
    13   6    -0.03  -0.01   0.04     0.06   0.02   0.01     0.04  -0.01  -0.06
    14   6     0.02  -0.00   0.04    -0.01   0.01   0.01    -0.07  -0.02  -0.10
    15   1    -0.04   0.01  -0.12     0.22   0.27  -0.02     0.04  -0.06   0.28
    16   1    -0.05   0.01   0.03     0.10   0.15   0.01     0.19   0.08  -0.06
    17   1    -0.07  -0.08  -0.02     0.11  -0.01  -0.10     0.10   0.27   0.11
    18   1     0.21   0.22  -0.02    -0.08   0.07   0.08     0.07  -0.02  -0.14
    19   1     0.06  -0.27  -0.11    -0.20   0.04  -0.04     0.16  -0.10   0.18
    20   1     0.01  -0.08  -0.03     0.15  -0.05  -0.05     0.04  -0.04   0.02
    21   1    -0.02  -0.07  -0.01     0.22  -0.07  -0.07    -0.16   0.01   0.07
    22   1    -0.09  -0.06   0.01     0.14  -0.05  -0.05    -0.04  -0.03   0.04
    23   1    -0.21  -0.19  -0.04    -0.22   0.06  -0.02    -0.00  -0.06   0.21
    24   1    -0.06   0.30   0.05    -0.12   0.02   0.07    -0.04   0.02  -0.11
    25   1     0.04   0.12   0.00    -0.03  -0.36   0.17    -0.09  -0.14  -0.06
    26   1     0.06  -0.07  -0.04    -0.15   0.19   0.11    -0.13   0.15  -0.02
    27   1     0.06  -0.09  -0.08    -0.10   0.13   0.18    -0.10   0.16   0.14
    28   1     0.01  -0.07   0.17    -0.02   0.09  -0.21    -0.03   0.09  -0.30
    29   1     0.11  -0.05   0.06     0.07   0.01  -0.02    -0.28   0.10  -0.14
    30   1    -0.04  -0.10   0.02    -0.03   0.09  -0.17     0.07   0.16   0.01
                     22                     23                     24
                      A                      A                      A
 Frequencies --    743.2821               759.5812               816.5006
 Red. masses --      3.1960                 2.1638                 3.6457
 Frc consts  --      1.0403                 0.7356                 1.4320
 IR Inten    --      2.1254                 4.2535                 1.1521
  Atom  AN      X      Y      Z        X      Y      Z        X      Y      Z
     1   8     0.01   0.05  -0.00    -0.01  -0.06   0.02     0.00   0.02   0.00
     2   6    -0.03   0.05   0.04     0.09  -0.06   0.03    -0.02   0.02  -0.03
     3   6    -0.01  -0.04  -0.12     0.09  -0.04   0.13    -0.06  -0.03   0.01
     4   6    -0.01  -0.07  -0.09     0.05  -0.05   0.01     0.06  -0.01   0.06
     5   6     0.04  -0.04   0.22     0.02  -0.01   0.04     0.11  -0.04   0.03
     6   6    -0.05   0.03  -0.09    -0.04   0.01  -0.02    -0.14  -0.16  -0.03
     7   6     0.00  -0.00   0.14    -0.02   0.01   0.03    -0.08  -0.14  -0.03
     8   6    -0.03   0.03  -0.17    -0.00   0.00  -0.03    -0.05   0.01   0.02
     9   6     0.02  -0.00  -0.04     0.04  -0.01  -0.01     0.18  -0.06  -0.03
    10   6     0.03  -0.03   0.14    -0.01   0.00   0.03     0.01   0.17   0.00
    11   6    -0.02   0.02  -0.09    -0.02   0.02  -0.01    -0.02   0.22   0.00
    12   6     0.00   0.01  -0.03    -0.03   0.02  -0.03    -0.03   0.11  -0.02
    13   6     0.00   0.00   0.04    -0.04   0.08  -0.08    -0.02  -0.02  -0.04
    14   6     0.06  -0.00   0.10    -0.11   0.10  -0.09     0.03  -0.06   0.01
    15   1     0.02   0.03  -0.13    -0.02   0.14  -0.22    -0.02  -0.08   0.12
    16   1    -0.03  -0.02  -0.09    -0.12   0.12   0.41    -0.08  -0.18  -0.11
    17   1    -0.17  -0.11  -0.04     0.05   0.03  -0.06     0.07  -0.06   0.11
    18   1    -0.12   0.09  -0.44    -0.05   0.02  -0.03    -0.23  -0.06   0.19
    19   1    -0.03   0.00   0.10    -0.03  -0.00   0.05     0.07  -0.17   0.18
    20   1     0.15  -0.04   0.05     0.06  -0.02  -0.00     0.14  -0.05  -0.08
    21   1    -0.21   0.06   0.12     0.01  -0.00   0.01     0.27  -0.08  -0.09
    22   1     0.16  -0.06   0.04     0.06  -0.02  -0.01     0.16  -0.03  -0.07
    23   1     0.00   0.00   0.06    -0.02   0.01   0.03     0.15   0.04   0.25
    24   1    -0.11   0.10  -0.49    -0.05   0.02  -0.06    -0.18   0.12   0.27
    25   1    -0.03  -0.11   0.08     0.05   0.10   0.04    -0.02   0.12  -0.01
    26   1    -0.08   0.11   0.02     0.06  -0.04   0.02    -0.04   0.09  -0.09
    27   1    -0.07  -0.09   0.01     0.39   0.02  -0.38    -0.09  -0.16  -0.11
    28   1     0.00   0.01   0.04     0.02  -0.19   0.32     0.04   0.04   0.01
    29   1     0.21  -0.07   0.12     0.12   0.01  -0.10    -0.17  -0.04   0.05
    30   1    -0.02  -0.06  -0.04    -0.26  -0.12  -0.20     0.13   0.03   0.16
                     25                     26                     27
                      A                      A                      A
 Frequencies --    828.5445               856.2159               862.6250
 Red. masses --      1.5721                 2.1958                 1.3537
 Frc consts  --      0.6359                 0.9484                 0.5935
 IR Inten    --     20.1564                 2.7683                 0.7300
  Atom  AN      X      Y      Z        X      Y      Z        X      Y      Z
     1   8     0.01   0.01  -0.00     0.00   0.03  -0.01     0.00  -0.01   0.00
     2   6    -0.02   0.01   0.04    -0.02   0.03   0.03     0.01  -0.01   0.00
     3   6     0.02  -0.05  -0.07     0.01  -0.07  -0.03    -0.00   0.00  -0.01
     4   6     0.01   0.00   0.04     0.07  -0.01   0.11    -0.04   0.03  -0.01
     5   6    -0.00  -0.01   0.07    -0.02   0.02  -0.08    -0.00   0.00   0.00
     6   6     0.02   0.03  -0.05     0.01   0.03   0.01    -0.02  -0.01  -0.07
     7   6     0.01   0.03  -0.05     0.00   0.03   0.00    -0.01  -0.01  -0.09
     8   6     0.01  -0.01   0.04     0.01   0.00  -0.01    -0.00   0.00   0.01
     9   6    -0.03   0.01   0.03    -0.01   0.00  -0.01     0.01  -0.01   0.00
    10   6    -0.02  -0.02  -0.07    -0.01  -0.04   0.06     0.03   0.01   0.06
    11   6    -0.01  -0.03  -0.08     0.00  -0.04   0.07     0.02   0.01   0.06
    12   6     0.03   0.04  -0.03     0.03   0.16   0.02     0.00  -0.05  -0.02
    13   6     0.01   0.01  -0.05     0.02  -0.03  -0.14     0.00   0.01   0.04
    14   6    -0.02   0.01   0.07    -0.05  -0.09   0.03     0.00   0.05   0.01
    15   1    -0.03  -0.00  -0.20    -0.01   0.04  -0.17    -0.03  -0.05  -0.01
    16   1    -0.08  -0.01   0.03    -0.20  -0.12   0.06     0.04   0.04  -0.00
    17   1    -0.10  -0.04   0.10     0.13  -0.21   0.26    -0.07   0.07  -0.04
    18   1     0.11  -0.06   0.26     0.03   0.01   0.08     0.09  -0.11   0.47
    19   1     0.09  -0.05   0.36    -0.03   0.03  -0.03     0.15  -0.13   0.55
    20   1    -0.12   0.03  -0.03     0.04  -0.01   0.03    -0.01   0.00  -0.01
    21   1     0.10  -0.03  -0.07    -0.09   0.02   0.05     0.05  -0.00  -0.02
    22   1    -0.13   0.05  -0.03     0.03  -0.02   0.03    -0.01   0.01  -0.02
    23   1     0.07  -0.10   0.45    -0.15   0.09  -0.46    -0.05   0.08  -0.37
    24   1     0.12  -0.12   0.39    -0.07   0.04  -0.35    -0.09   0.09  -0.38
    25   1    -0.08  -0.14  -0.02    -0.05   0.04  -0.02    -0.02  -0.07  -0.05
    26   1    -0.08   0.19   0.09    -0.03   0.25   0.11    -0.02  -0.03  -0.02
    27   1    -0.03  -0.03  -0.05    -0.09  -0.11  -0.15     0.01   0.06   0.08
    28   1    -0.05  -0.07  -0.08     0.01  -0.01  -0.17    -0.04  -0.03  -0.01
    29   1     0.19  -0.11   0.11    -0.13  -0.25   0.19     0.14   0.06  -0.04
    30   1    -0.14  -0.07  -0.15    -0.01   0.00  -0.01    -0.06  -0.03  -0.08
                     28                     29                     30
                      A                      A                      A
 Frequencies --    872.7119               909.3173               926.4980
 Red. masses --      1.8820                 1.6795                 2.3745
 Frc consts  --      0.8445                 0.8182                 1.2009
 IR Inten    --      1.9701                 2.8897                 7.2518
  Atom  AN      X      Y      Z        X      Y      Z        X      Y      Z
     1   8    -0.00   0.01  -0.01     0.02  -0.00  -0.01     0.02  -0.00   0.03
     2   6    -0.02   0.01  -0.04    -0.08   0.00   0.07    -0.05  -0.00  -0.04
     3   6    -0.02   0.04   0.06     0.13   0.00  -0.07    -0.01  -0.12   0.03
     4   6     0.08  -0.09  -0.06    -0.04  -0.00   0.04     0.14   0.05   0.08
     5   6     0.02  -0.02   0.08    -0.01   0.01   0.02     0.03   0.00  -0.03
     6   6     0.01   0.08  -0.03    -0.00  -0.02  -0.01     0.00   0.02   0.00
     7   6    -0.02   0.10  -0.03     0.01  -0.03  -0.01    -0.00   0.03   0.03
     8   6     0.02  -0.01   0.00    -0.00   0.01   0.00     0.01   0.00  -0.00
     9   6    -0.02   0.00   0.02     0.00   0.00   0.00     0.00   0.01  -0.00
    10   6    -0.04  -0.06  -0.00     0.01   0.01  -0.00    -0.05  -0.04   0.01
    11   6    -0.01  -0.05  -0.02     0.00  -0.00  -0.00    -0.02  -0.03  -0.00
    12   6    -0.04   0.05   0.01    -0.12  -0.03   0.04    -0.07   0.01  -0.13
    13   6    -0.04  -0.00  -0.00     0.02  -0.02  -0.02    -0.06  -0.06   0.10
    14   6     0.05  -0.08  -0.06     0.03   0.00  -0.03     0.10   0.13  -0.01
    15   1     0.16   0.14   0.25     0.11   0.22  -0.31    -0.03   0.03  -0.13
    16   1     0.01  -0.09  -0.08    -0.06   0.14   0.19    -0.33  -0.28   0.09
    17   1     0.14  -0.06  -0.09    -0.11  -0.06   0.09     0.17   0.09   0.04
    18   1     0.09   0.02   0.22    -0.01  -0.02   0.00     0.00   0.02   0.02
    19   1    -0.00  -0.00   0.42     0.05  -0.03   0.03    -0.05   0.05  -0.10
    20   1    -0.09   0.03  -0.01     0.01  -0.01  -0.01     0.04  -0.02  -0.00
    21   1     0.04   0.00  -0.03     0.00  -0.01  -0.00    -0.03  -0.01   0.01
    22   1    -0.05   0.03  -0.02    -0.02   0.00   0.00    -0.02  -0.01   0.02
    23   1    -0.06  -0.04   0.09     0.02   0.01   0.02    -0.10   0.01  -0.04
    24   1     0.02  -0.04  -0.05     0.00  -0.00   0.00    -0.02  -0.04   0.03
    25   1     0.13   0.19   0.20     0.07   0.40  -0.12    -0.08   0.00  -0.15
    26   1     0.04  -0.08  -0.11     0.21  -0.39  -0.09    -0.20  -0.00  -0.44
    27   1     0.02  -0.15  -0.15    -0.10   0.02   0.08    -0.23  -0.15   0.13
    28   1     0.13   0.11   0.21     0.15   0.27  -0.04    -0.08   0.01  -0.02
    29   1    -0.34   0.05  -0.05    -0.14  -0.06   0.07     0.24   0.31  -0.20
    30   1     0.25   0.09   0.28     0.16   0.33  -0.17     0.06   0.14  -0.15
                     31                     32                     33
                      A                      A                      A
 Frequencies --    963.4962               978.0730              1003.5504
 Red. masses --      1.3091                 1.3164                 2.4968
 Frc consts  --      0.7160                 0.7420                 1.4815
 IR Inten    --      0.4848                 2.1322                 1.7401
  Atom  AN      X      Y      Z        X      Y      Z        X      Y      Z
     1   8     0.00  -0.00  -0.00     0.00  -0.01  -0.00    -0.01   0.06   0.00
     2   6    -0.01  -0.00   0.00    -0.01  -0.00   0.00     0.07   0.02  -0.02
     3   6     0.00   0.01  -0.01     0.00   0.02  -0.02     0.04  -0.10   0.12
     4   6    -0.00  -0.01   0.00    -0.00  -0.01   0.01    -0.05  -0.02  -0.13
     5   6     0.00  -0.00   0.02     0.00  -0.00   0.02    -0.00  -0.01   0.05
     6   6     0.00  -0.00   0.01    -0.03   0.02  -0.12    -0.00   0.01  -0.04
     7   6    -0.00   0.00  -0.02     0.02  -0.02   0.09     0.00  -0.00   0.02
     8   6     0.00  -0.00   0.00     0.00  -0.00   0.01    -0.00  -0.01   0.00
     9   6    -0.00   0.00  -0.01    -0.00   0.00  -0.01    -0.00  -0.01  -0.00
    10   6     0.02  -0.02   0.11     0.00   0.00  -0.00     0.01   0.01   0.01
    11   6    -0.02   0.02  -0.11     0.00  -0.00  -0.00    -0.01   0.01  -0.02
    12   6    -0.00  -0.01  -0.00    -0.01  -0.01   0.00     0.04   0.10  -0.04
    13   6    -0.01   0.01  -0.00    -0.01   0.02  -0.01     0.11  -0.06   0.13
    14   6     0.01   0.00   0.00     0.02   0.00   0.01    -0.12  -0.08  -0.09
    15   1     0.02   0.01   0.02     0.04   0.02   0.06    -0.10  -0.02  -0.18
    16   1     0.02   0.01  -0.03     0.03   0.02  -0.05    -0.07   0.06   0.34
    17   1    -0.02   0.01  -0.01    -0.04   0.01  -0.00    -0.04  -0.02  -0.13
    18   1    -0.00   0.00  -0.02     0.15  -0.13   0.73     0.05  -0.04   0.20
    19   1     0.01  -0.01   0.06    -0.12   0.11  -0.57    -0.03   0.02  -0.10
    20   1     0.04  -0.00   0.03     0.05  -0.01   0.02    -0.04   0.03   0.03
    21   1    -0.07   0.02   0.04    -0.08   0.01   0.04    -0.00   0.03   0.01
    22   1     0.04  -0.02   0.02     0.03  -0.03   0.03     0.07  -0.00  -0.01
    23   1    -0.13   0.13  -0.65    -0.01   0.01  -0.02     0.01   0.02  -0.04
    24   1     0.14  -0.13   0.68     0.01  -0.01   0.05     0.01  -0.02   0.11
    25   1     0.01  -0.00   0.02     0.02   0.00   0.04    -0.09  -0.06  -0.10
    26   1     0.01  -0.02   0.01     0.02  -0.03   0.02    -0.09   0.22  -0.04
    27   1     0.02  -0.01  -0.03     0.03  -0.02  -0.07    -0.19   0.15   0.45
    28   1     0.01  -0.01   0.04     0.01  -0.01   0.06     0.06   0.23  -0.27
    29   1     0.01   0.01   0.00     0.01   0.00   0.01    -0.26  -0.04  -0.09
    30   1     0.00  -0.01   0.02     0.01  -0.02   0.03     0.02   0.19  -0.11
                     34                     35                     36
                      A                      A                      A
 Frequencies --   1017.3347              1035.1496              1039.8674
 Red. masses --      1.4834                 1.8251                 2.9047
 Frc consts  --      0.9045                 1.1522                 1.8506
 IR Inten    --      0.1203                 5.8085                 2.2486
  Atom  AN      X      Y      Z        X      Y      Z        X      Y      Z
     1   8    -0.00  -0.01   0.00     0.00   0.01  -0.00    -0.01  -0.01   0.00
     2   6     0.00  -0.01  -0.00    -0.02   0.01   0.03     0.03  -0.01   0.00
     3   6     0.01   0.04  -0.01    -0.04  -0.08  -0.02     0.00   0.04   0.00
     4   6    -0.01  -0.04   0.03     0.06   0.12  -0.02    -0.03  -0.04   0.01
     5   6    -0.02  -0.03  -0.00     0.03  -0.01  -0.01     0.04  -0.02  -0.01
     6   6     0.04   0.02  -0.00    -0.00  -0.04  -0.01    -0.08  -0.17  -0.02
     7   6     0.02   0.04   0.01     0.02   0.06   0.01     0.03   0.20   0.04
     8   6    -0.02  -0.05  -0.01     0.00  -0.01  -0.01     0.04  -0.01  -0.03
     9   6    -0.04  -0.13  -0.02    -0.02  -0.06  -0.00    -0.02   0.01   0.02
    10   6     0.03   0.07   0.00    -0.04  -0.02   0.00    -0.08  -0.19  -0.01
    11   6    -0.02   0.02   0.01    -0.01   0.03   0.01     0.04   0.19   0.03
    12   6    -0.00   0.02  -0.00    -0.02  -0.08  -0.02    -0.01   0.03   0.02
    13   6    -0.02  -0.04  -0.01     0.05   0.12   0.00    -0.00  -0.05  -0.00
    14   6     0.01   0.04  -0.01    -0.03  -0.07   0.04    -0.01   0.03  -0.01
    15   1     0.04   0.03   0.04    -0.13  -0.14  -0.11    -0.01  -0.03   0.05
    16   1     0.08   0.08  -0.02    -0.21  -0.21  -0.04     0.13   0.12  -0.01
    17   1     0.04  -0.12   0.09     0.02   0.33  -0.18    -0.00  -0.14   0.08
    18   1     0.11  -0.04  -0.04     0.06  -0.10  -0.02     0.11  -0.37  -0.08
    19   1     0.01   0.05  -0.00     0.10   0.09  -0.02     0.30   0.27  -0.04
    20   1    -0.48   0.31   0.21    -0.22   0.13   0.09    -0.06   0.01  -0.02
    21   1     0.07   0.25   0.03     0.03   0.11   0.01     0.03  -0.02  -0.02
    22   1     0.59   0.00  -0.17     0.24   0.00  -0.08    -0.09   0.03  -0.01
    23   1     0.03   0.08   0.03    -0.04  -0.02   0.00     0.12  -0.40  -0.13
    24   1    -0.15  -0.00   0.02    -0.01   0.03   0.01     0.34   0.26  -0.01
    25   1    -0.03   0.01  -0.04     0.07   0.02   0.04    -0.04   0.04  -0.08
    26   1    -0.01   0.03   0.01    -0.02  -0.14  -0.16     0.02   0.01   0.04
    27   1    -0.09  -0.08  -0.00     0.27   0.27   0.00    -0.10  -0.05   0.05
    28   1    -0.06  -0.06  -0.06     0.19   0.21   0.18    -0.05  -0.05  -0.10
    29   1     0.07   0.08  -0.06    -0.12  -0.26   0.23     0.06   0.06  -0.05
    30   1    -0.01   0.02  -0.06    -0.01  -0.06   0.09    -0.02   0.05  -0.09
                     37                     38                     39
                      A                      A                      A
 Frequencies --   1075.7679              1081.0220              1094.1690
 Red. masses --      1.5221                 1.8299                 1.7396
 Frc consts  --      1.0378                 1.2599                 1.2270
 IR Inten    --     11.3266                 3.0025                 7.6320
  Atom  AN      X      Y      Z        X      Y      Z        X      Y      Z
[...]
 6245,-0.00019646,0.00002257,-0.00055192,0.00046728,0.00015145,0.000245
 89,-0.00107718,0.00030193,0.00003483,-0.00001168,0.00003213,0.00004342
 ,0.00002236,-0.00000221,0.00004957,-0.00010179,-0.00012066,0.00089768,
 -0.00358665,0.00113350,0.04348408,0.03374083,0.00018162,0.00006823,-0.
 00008455,-0.00015391,-0.00016404,0.00011110,0.00012305,0.00024737,0.00
 006216,-0.00107757,0.00019989,0.00084567,-0.01854937,-0.00246193,0.010
 01943,-0.00274171,-0.00244761,-0.00230641,-0.00053017,-0.00027417,-0.0
 0094550,0.00000610,-0.00308158,-0.00494139,0.00135769,0.00049324,0.000
 16719,0.03087709,0.00476285,-0.00581456,0.08266733,0.00676826,-0.08749
 907,-0.00002037,-0.00026174,-0.00003247,-0.00008030,-0.00001002,0.0000
 3812,0.00002308,0.00001793,0.00000294,0.00001756,-0.00000521,0.0000193
 4,0.00004281,-0.00001745,0.00003052,0.00018997,0.00042507,-0.00012606,
 -0.00103527,-0.00024762,0.00058830,0.00005135,0.00031274,0.00004984,-0
 .00007661,0.00000668,0.00000389,0.00002852,-0.00006441,-0.00008706,0.0
 0016016,-0.00008510,-0.00042844,-0.00056577,0.00101545,0.00079278,-0.0
 9078307,-0.00506491,0.08967408,0.00026514,-0.00001095,0.00003899,-0.00
 060730,-0.00003361,-0.00004010,0.00042677,-0.00055986,0.00087501,-0.00
 806419,0.00143800,0.01669177,-0.00097942,0.00272683,-0.00129085,0.0000
 8593,-0.00000739,0.00052468,0.00003111,-0.00022384,0.00001945,0.000097
 32,0.00004444,-0.00000405,-0.00001124,0.00007288,-0.00001410,-0.000042
 10,-0.00018638,0.00025985,-0.00014085,-0.00023592,0.00004486,-0.094838
 43,0.00102400,0.09236222,-0.00893271,-0.00069831,0.01797420,0.00065393
 ,0.00078924,0.00121093,-0.00029283,0.00033295,-0.00060043,0.00028135,0
 .00002978,-0.00021269,0.00094639,-0.00037404,-0.00047587,-0.00002288,0
 .00012204,0.00000680,-0.00002655,0.00000933,0.00004489,-0.00000148,-0.
 00000612,0.00001919,-0.00001187,0.00001334,0.00004416,0.00000177,-0.00
 000864,0.00001506,0.00001115,-0.00000203,0.00004584,0.00011433,0.00028
 511,-0.00004635,0.10008059,-0.00017196,0.00018766,0.00008111,0.0002625
 0,-0.00042466,-0.00005835,-0.00081307,0.00093812,-0.00032765,0.0121087
 9,-0.00333114,-0.02713424,0.00376285,-0.00392280,0.00135796,-0.0003242
 7,-0.00031553,-0.00091496,0.00003291,0.00041642,-0.00040730,0.00022777
 ,0.00003171,0.00000203,0.00001505,-0.00008271,0.00003543,-0.00010197,0
 .00019715,0.00012581,0.00031421,0.00001276,-0.00031996,0.00115464,-0.0
 4764337,-0.00241713,-0.01316433,-0.00099352,0.02744936,0.00102358,0.00
 117690,0.00055718,0.00018227,-0.00001251,0.00052698,-0.00035037,-0.000
 05445,0.00006216,-0.00065247,0.00114350,-0.00039016,0.00010154,-0.0002
 4218,0.00006990,0.00005690,0.00000902,-0.00012097,-0.00000373,0.000006
 08,-0.00003988,0.00001263,-0.00002554,-0.00007166,0.00000726,0.0000053
 8,-0.00003422,-0.00002284,-0.00003039,-0.00006085,-0.00008610,-0.00007
 020,0.00005209,-0.00070221,0.05703845,-0.00002843,-0.00001532,-0.00005
 384,0.00015709,0.00015534,0.00009065,-0.00023763,0.00038119,0.00026714
 ,0.00009203,0.00031802,-0.00307591,0.00059527,-0.00089804,0.00058215,-
 0.00046159,-0.00035353,0.00035543,-0.00009204,-0.00004574,-0.00039512,
 0.00027659,0.00010989,0.00010801,0.00001173,-0.00002989,0.00002723,-0.
 00005059,-0.00000315,0.00027010,0.00041229,-0.00019475,-0.00004893,0.0
 9279553,-0.00291682,-0.25611469,0.00138509,0.00053156,-0.00428707,-0.0
 0050586,-0.00042193,0.00082680,0.00024819,-0.00006438,0.00050978,0.000
 04650,-0.00009152,0.00023189,-0.00024076,-0.00059184,0.00040086,0.0000
 2647,-0.00000795,0.00001889,0.00001303,0.00004015,-0.00003542,-0.00000
 679,0.00000919,-0.00002723,0.00000761,-0.00002288,-0.00004733,0.000007
 30,0.00000721,-0.00002342,-0.00002033,-0.00001331,-0.00003141,0.000033
 31,0.00020866,-0.00001040,-0.10425717,0.00258511,0.27806850,-0.0005644
 4,0.00006058,0.00009832,0.00130670,-0.00010803,0.00022524,-0.00091416,
 0.00338493,0.00139467,-0.01411821,0.00087471,-0.01095265,0.00052693,-0
 .00058278,-0.00153536,-0.00054494,-0.00006904,0.00052035,-0.00003076,-
 0.00008118,-0.00053604,0.00046032,0.00019537,0.00010382,0.00002762,0.0
 0002482,0.00002488,-0.00004658,-0.00011315,0.00068783,0.00008464,-0.00
 057373,-0.00003501,-0.19076419,-0.00096852,-0.12872980,-0.01376451,-0.
 00012203,-0.01258229,-0.00109941,-0.00345877,0.00173706,0.00016339,-0.
 00000895,-0.00018094,-0.00072664,-0.00010847,-0.00086632,0.00069758,0.
 00005580,0.00023434,0.00011451,-0.00002328,-0.00005800,0.00001160,0.00
 001275,-0.00000690,-0.00000580,0.00000675,-0.00000387,-0.00000471,-0.0
 0001851,-0.00002035,0.00001027,-0.00000048,-0.00002124,-0.00001786,-0.
 00000500,0.00001097,0.00036827,0.00039516,-0.00011024,0.01160133,-0.00
 009478,0.00926857,0.20665469,0.00003712,0.00097716,-0.00000358,-0.0000
 5364,-0.00226038,-0.00000295,0.00308939,-0.00483759,-0.00184281,0.0213
 5448,-0.00051853,0.01885329,-0.00055066,0.00080827,0.00106494,0.000255
 04,0.00010288,-0.00037386,0.00007157,0.00003635,0.00039526,-0.00034877
 ,-0.00009315,0.00000394,-0.00003852,-0.00001712,-0.00001513,-0.0001165
 1,-0.00003980,-0.00045292,0.00068469,0.00022949,0.00003957,-0.00100350
 ,-0.04738229,-0.00025256,-0.02092589,-0.00015515,-0.02042770,-0.003177
 13,-0.00464490,0.00214694,-0.00040921,0.00001944,-0.00021664,0.0015546
 6,0.00024431,0.00119092,-0.00081265,0.00097056,0.00024935,-0.00007235,
 -0.00003063,0.00004220,-0.00000507,-0.00001037,-0.00000340,0.00000598,
 -0.00000083,0.00000839,0.00000544,0.00000928,0.00001587,-0.00000937,0.
 00000370,0.00001931,0.00002859,-0.00000060,-0.00001428,-0.00026177,-0.
 00066363,-0.00025508,-0.00029007,-0.00039339,-0.00023607,0.00070341,0.
 05556786,-0.00008059,-0.00005069,-0.00007162,0.00024934,0.00013994,-0.
 00003908,0.00080466,-0.00016821,0.00067052,0.00322516,-0.00023593,0.00
 146628,0.00119716,-0.00008998,0.00028224,-0.00021054,-0.00008462,0.000
 27131,0.00002912,-0.00004599,-0.00012997,0.00007261,0.00003631,0.00000
 803,0.00000238,0.00002354,-0.00001099,0.00006727,-0.00001054,0.0000322
 5,-0.00004338,-0.00048790,-0.00011459,-0.13082436,0.00024192,-0.169413
 47,0.00471872,0.00007442,0.00341571,0.00070166,0.00030765,0.00067035,0
 .00017246,-0.00013395,0.00037679,-0.00004872,-0.00009741,0.00031870,-0
 .00016036,0.00046888,-0.00000841,0.00002484,0.00000041,-0.00000540,-0.
 00001133,0.00001552,0.00000617,0.00000331,-0.00000246,0.00000788,-0.00
 000722,0.00000467,0.00001521,-0.00000147,-0.00000341,0.00000150,0.0000
 0957,-0.00002838,0.00004142,0.00020137,-0.00024805,-0.00011828,-0.0220
 4753,0.00009606,-0.02004935,0.14204291,0.00108600,0.18096251,-0.001995
 05,0.00200408,0.00096350,-0.00109987,-0.00510728,-0.00409584,0.0000561
 6,0.00013708,0.00053111,-0.00251421,-0.00285668,0.00050882,-0.00005549
 ,0.00010986,0.00053280,-0.00010572,0.00010280,-0.00004105,0.00004393,0
 .00001753,-0.00015656,0.00012975,0.00001961,-0.00000618,0.00001153,-0.
 00000392,-0.00000081,-0.00005108,0.00001594,0.00013049,-0.00005321,0.0
 0001436,-0.00019261,0.01240483,-0.01775617,-0.00255333,-0.13178729,0.1
 2159925,0.01725381,-0.01518651,0.02141958,-0.00006669,-0.00004067,-0.0
 0006156,0.00001541,0.00011329,0.00010791,0.00010663,0.00064374,-0.0011
 1399,0.00008596,0.00005181,-0.00007861,-0.00004997,-0.00000017,-0.0000
 0202,-0.00001619,0.00000419,0.00000375,0.00000506,-0.00000349,-0.00000
 053,-0.00000091,-0.00000420,-0.00000058,-0.00000227,0.00000361,0.00000
 359,0.00000083,0.00002723,-0.00000651,0.00002105,0.00072787,0.00079238
 ,-0.00010515,0.00087112,0.00076945,-0.00020644,0.14353263,-0.00000598,
 0.00016282,0.00021563,-0.00068636,0.00055114,-0.00045240,-0.00041169,0
 .00082247,-0.00025160,-0.00516375,-0.00315912,0.00111764,-0.00027190,0
 .00036398,0.00089008,-0.00005957,0.00002788,-0.00008244,-0.00001384,-0
 .00001938,-0.00008827,0.00007389,0.00003423,0.00000623,0.00000439,-0.0
 0002370,0.00002603,-0.00003260,0.00002091,0.00005905,0.00001662,0.0000
 4106,-0.00023716,0.01590814,-0.02235575,-0.00359680,0.12064637,-0.2223
 7622,-0.02200602,-0.00120939,0.00265986,0.00010704,-0.00000513,-0.0000
 3104,0.00001625,0.00011309,0.00006210,0.00002529,0.00095680,-0.0016868
 4,-0.00021110,-0.00001300,-0.00000337,0.00001651,0.00002459,-0.0000023
 1,-0.00003016,-0.00000958,-0.00000042,-0.00002249,0.00000629,-0.000010
 28,-0.00003124,0.00001288,0.00000400,-0.00001532,-0.00001373,-0.000017
 12,-0.00003800,0.00002544,-0.00001361,0.00005066,0.00019716,0.00098950
 ,0.00053523,-0.00004363,0.00087423,-0.00056217,-0.12984119,0.24159702,
 -0.00230696,0.00182807,0.00096855,-0.00179543,-0.00359131,-0.00362488,
 0.00027366,-0.00014052,0.00034421,0.00051459,0.00068715,0.00014729,0.0
 0001203,-0.00007855,0.00004512,-0.00015887,-0.00016385,-0.00004965,0.0
 0001922,-0.00003030,0.00016173,-0.00011487,0.00000245,0.00002890,-0.00
 000091,-0.00000791,0.00001360,0.00006028,-0.00000693,-0.00011492,0.000
 15323,0.00000383,0.00026682,-0.00230144,0.00450730,-0.00043874,0.01752
 144,-0.02305898,-0.05260437,-0.01523402,0.02141580,-0.00035277,-0.0000
 3179,-0.00000019,0.00000965,0.00002446,0.00009144,0.00005102,0.0000663
 3,0.00020013,0.00023983,-0.00007595,0.00005213,-0.00009889,0.00000627,
 0.00000775,-0.00001153,-0.00000393,-0.00000223,-0.00000898,0.00000467,
 -0.00000487,-0.00001425,0.00000584,0.00000393,-0.00000554,-0.00000778,
 -0.00000242,-0.00001212,-0.00003233,0.00000573,0.00000121,-0.00054454,
 -0.00003044,0.00023411,0.00012760,-0.00042961,0.00009370,-0.01512907,0
 .02450068,0.05520091,-0.00029795,-0.00015663,0.00031708,0.00182882,-0.
 00098456,-0.00064140,-0.00001671,0.00005554,-0.00021601,0.00029639,0.0
 0080542,-0.00027888,0.00053736,0.00007942,0.00004235,0.00003536,0.0001
 0689,-0.00010111,0.00002237,0.00003063,0.00011696,-0.00003995,-0.00003
 216,-0.00002992,-0.00000185,0.00000624,-0.00000541,0.00000314,-0.00001
 357,-0.00010073,-0.00018940,0.00011631,-0.00016774,-0.00897358,-0.0009
 4514,0.01880415,-0.08909902,0.00076746,0.09276354,0.00901890,0.0005983
 2,-0.02541414,-0.00009247,-0.00002185,0.00000092,0.00010135,0.00004533
 ,0.00005490,-0.00005052,0.00010638,-0.00006720,-0.00003866,0.00012448,
 -0.00003300,0.00000298,-0.00000352,-0.00000297,-0.00000355,-0.00000754
 ,-0.00000925,-0.00000175,0.00000507,0.00000225,0.00000370,-0.00000244,
 -0.00000126,-0.00000452,-0.00001492,-0.00000411,0.00000498,-0.00001006
 ,0.00001780,-0.00149496,-0.00391676,0.00009731,0.00025460,0.00061692,-
 0.00005605,-0.00753797,-0.00055342,0.01745955,0.09821088,-0.00011526,0
 .00002470,-0.00016319,-0.00024252,-0.00007133,0.00078260,0.00017668,-0
 .00023267,-0.00018678,0.00023009,0.00107170,0.00063172,0.00005018,-0.0
 0045420,0.00009862,0.00040383,-0.00007202,-0.00035039,0.00012404,-0.00
 004388,-0.00028026,0.00016842,-0.00005134,-0.00001993,0.00000786,0.000
 03986,-0.00003503,-0.00008958,-0.00003080,0.00013702,-0.00034994,-0.00
 009342,-0.00035854,-0.01199588,-0.00064609,0.02722243,0.00142636,-0.05
 201851,0.00233601,0.00003616,-0.00020250,-0.00078144,-0.00007517,0.000
 13815,-0.00012112,0.00006882,-0.00001732,0.00004687,-0.00000425,0.0003
 7245,-0.00023576,0.00007630,-0.00008306,0.00005437,-0.00003576,0.00001
 566,0.00001763,0.00000961,0.00000109,0.00002708,-0.00001358,0.00001229
 ,0.00004304,-0.00001759,-0.00000703,0.00002011,0.00001808,0.00001271,0
 .00002783,0.00007581,0.00002621,0.00001392,-0.00347671,-0.00459881,0.0
 0086319,0.00053613,0.00104511,-0.00054369,0.01043510,0.00092734,-0.025
 77313,0.00284154,0.05389301,-0.00113479,0.00033637,0.00028162,0.001828
 20,-0.00142415,-0.00039962,-0.00010680,0.00037661,-0.00020089,0.000231
 64,-0.00029925,-0.00041734,-0.00016376,-0.00043546,-0.00009978,0.00009
 078,-0.00045439,-0.00020332,0.00004332,-0.00013572,0.00031786,-0.00025
 370,-0.00003207,-0.00001667,-0.00001269,0.00000009,0.00001032,0.000127
 94,0.00000420,-0.00024367,0.00018379,-0.00002070,0.00041994,0.00187949
 ,0.00142412,-0.00260764,0.09204634,0.00308668,-0.26746723,0.00607580,0
 .00071103,-0.02028169,-0.00001054,-0.00003119,0.00013306,-0.00000937,0
 .00010145,-0.00002204,-0.00005321,0.00009516,0.00006801,-0.00014848,0.
 00012680,-0.00013528,-0.00000173,0.00002643,0.00000090,-0.00000137,-0.
 00000056,-0.00000852,0.00000933,-0.00000828,-0.00001114,0.00000281,0.0
 0000631,-0.00000155,-0.00000605,0.00000316,-0.00000632,-0.00004985,-0.
 00000983,-0.00001125,0.00037481,0.00016620,0.00133612,0.00020089,0.000
 35694,0.00058340,0.00145842,-0.00077986,-0.00243193,-0.09888781,-0.003
 02915,0.29245526,0.00175741,-0.00121324,0.00017266,0.01154729,0.015657
 51,-0.00358120,-0.00210827,0.00276314,0.00051293,-0.00030684,0.0002022
 3,-0.00008215,0.00006364,-0.00006264,0.00016530,-0.00006279,-0.0000153
 5,-0.00004620,0.00001034,0.00000234,-0.00003527,0.00001746,0.00001918,
 0.00000390,0.00000362,-0.00000779,0.00001096,0.00003126,0.00001015,0.0
 0003988,-0.00003922,-0.00005048,-0.00002095,-0.00282133,0.00173222,-0.
 00442752,-0.01295830,-0.01774225,0.00531995,-0.15256801,-0.13031603,0.
 02664387,-0.00011225,-0.00012076,-0.00001769,0.00060432,0.00090357,0.0
 0008314,0.00009238,-0.00010306,0.00003816,0.00003194,-0.00001148,-0.00
 002222,0.00001378,-0.00000235,-0.00001333,-0.00000271,0.00000071,-0.00
 000568,0.00000287,-0.00000547,-0.00001354,0.00000696,0.00000186,-0.000
 00861,-0.00000561,-0.00000213,-0.00000573,0.00004671,0.00004316,0.0000
 1046,0.00033020,0.00039227,-0.00002210,-0.00073349,-0.00152918,0.00000
 877,0.00018448,0.00034533,0.00060385,0.00120708,0.00023884,0.00002697,
 0.16329713,0.00001274,0.00598507,-0.00095137,-0.02201760,-0.02675261,0
 .00555782,0.00495992,-0.00310663,-0.00097222,0.00046901,0.00019860,0.0
 0041489,-0.00013615,0.00005255,0.00012413,-0.00002832,0.00005283,-0.00
 007143,-0.00000909,0.00002491,-0.00000473,-0.00000834,-0.00000334,-0.0
 0000703,-0.00000149,-0.00001147,0.00000878,0.00000018,-0.00000641,-0.0
 0001437,0.00006353,0.00000383,-0.00007032,0.00059261,0.00105242,0.0000
 9199,0.00133116,0.00204111,-0.00121449,-0.12578808,-0.20716741,0.03362
 908,0.00008572,0.00043193,0.00016427,-0.00090866,-0.00146193,-0.000014
 80,-0.00011284,0.00004039,-0.00011087,-0.00002731,-0.00007699,0.000067
 39,0.00001785,-0.00001118,-0.00002266,-0.00000182,0.00000015,-0.000005
 78,0.00000240,-0.00000175,-0.00000937,0.00000740,0.00000201,-0.0000084
 4,-0.00000126,-0.00000282,-0.00001601,0.00000588,-0.00000012,0.0000152
 9,-0.00000729,-0.00006564,0.00006092,0.00014269,0.00015317,0.00015104,
 -0.00024098,0.00034903,-0.00040952,-0.00010819,0.00011752,-0.00037229,
 0.13844464,0.22418414,-0.00089241,0.00029799,-0.00113280,0.00068127,-0
 .00315633,-0.00058302,0.00014446,0.00025431,0.00118600,-0.00018900,0.0
 0044823,-0.00010119,0.00002563,0.00000911,0.00014388,-0.00006691,0.000
 01259,-0.00005518,0.00002104,0.00001278,-0.00002699,0.00001338,0.00000
 438,-0.00000990,0.00000298,-0.00000361,0.00000346,0.00002196,0.0000082
 1,0.00002675,-0.00003956,-0.00003598,-0.00001713,-0.00306201,0.0012160
 1,-0.00348974,-0.01359671,-0.01930377,0.00433979,0.02606223,0.03393727
 ,-0.05719189,-0.00031440,-0.00041865,0.00023948,0.00008352,0.00006034,
 0.00035966,0.00012939,-0.00004730,0.00003950,0.00002664,-0.00004743,0.
 00001159,0.00001167,-0.00000988,-0.00001377,0.00000067,0.00000013,0.00
 000012,0.00000033,0.00000071,-0.00000419,0.00000440,-0.00000066,-0.000
 00611,0.00000010,0.00000210,-0.00000041,0.00004248,0.00002535,0.000005
 90,-0.00026571,-0.00009934,0.00027511,-0.00090495,-0.00116520,0.000319
 80,0.00060372,0.00037848,0.00064004,0.00089282,-0.00033191,0.00081684,
 -0.02707963,-0.03588000,0.05835489,-0.00109422,0.00360040,-0.00343995,
 -0.01078015,0.00011549,0.01818974,0.00026782,-0.00012713,-0.00113685,-
 0.00012399,-0.00028324,-0.00004758,-0.00006209,0.00005253,-0.00000875,
 -0.00007463,0.00000254,0.00001680,0.00001810,0.00000642,0.00002657,0.0
 0000567,-0.00000100,0.00000194,0.00000192,0.00000039,0.00000051,-0.000
 01186,0.00000244,0.00002332,0.00003517,-0.00001805,-0.00000053,0.00170
 114,0.00058653,-0.00034067,0.00861074,-0.00341733,-0.02637590,-0.08402
 048,0.00822537,0.09803219,0.00050735,0.00037186,-0.00028374,-0.0000843
 5,-0.00006304,-0.00032052,-0.00000745,-0.00001497,0.00000005,0.0000254
 1,-0.00005042,-0.00001071,-0.00000152,-0.00000256,-0.00000423,0.000002
 14,0.00000107,0.00000469,-0.00000109,0.00000142,0.00000264,-0.00000175
 ,-0.00000018,0.00000083,0.00000386,0.00000275,0.00000291,-0.00000441,-
 0.00000552,-0.00000492,-0.00018837,-0.00004269,0.00055455,0.00018213,0
 .00042755,0.00016669,0.00162875,0.00000378,0.00088487,-0.00368507,-0.0
 0050762,-0.00374038,-0.00753004,0.00326166,0.01764257,0.09468129,0.002
 39502,-0.00251268,0.00353073,0.01138195,0.00075406,-0.02929233,-0.0011
 9226,-0.00041062,0.00361732,0.00039949,0.00028553,0.00003052,-0.000038
 51,0.00009717,-0.00003628,0.00009723,-0.00000231,0.00001749,-0.0000326
 0,-0.00001086,0.00000581,-0.00001011,-0.00000559,-0.00001133,-0.000005
 94,0.00000365,-0.00000469,-0.00000544,-0.00000321,-0.00001534,-0.00001
 852,0.00001715,0.00001536,0.00046959,-0.00002289,-0.00114942,-0.000706
 29,0.00042040,0.00121160,0.00956987,-0.05400899,-0.02815640,-0.0003692
 5,-0.00160362,-0.00000743,0.00008907,0.00036985,0.00042875,0.00003411,
 -0.00001571,0.00001278,-0.00004978,0.00006877,0.00004771,-0.00000007,-
 0.00000318,0.00000775,0.00000011,-0.00000156,-0.00000021,-0.00000043,0
 .00000310,0.00000459,-0.00000018,-0.00000165,0.00000218,0.00000115,-0.
 00000184,0.00000344,-0.00001283,-0.00001236,-0.00000880,-0.00026172,0.
 00005420,0.00010146,-0.00001278,0.00000655,0.00014699,-0.00048226,0.00
 021158,0.00042437,0.00046478,0.00092518,0.00021136,-0.00957495,0.00397
 862,0.02383208,-0.01212846,0.05142127,-0.00069301,-0.00067308,-0.00066
 691,0.00112971,-0.00014533,0.00029972,0.00062013,0.00013844,-0.0006551
 7,-0.00039570,-0.00000921,-0.00005511,0.00005813,0.00007367,-0.0000328
 1,0.00000688,-0.00007126,0.00003826,-0.00001683,-0.00002189,0.00005056
 ,-0.00002588,0.00000725,0.00001728,-0.00000115,-0.00000235,0.00000636,
 0.00002148,-0.00000015,-0.00000962,0.00003094,-0.00001070,0.00008101,0
 .00149135,0.00060318,0.00069900,0.00749100,-0.00220183,-0.02451625,0.0
 9370491,-0.02225427,-0.25028521,-0.00024162,0.00002555,0.00051078,-0.0
 0001837,-0.00018533,0.00021172,0.00001775,-0.00006184,-0.00000379,-0.0
 0003245,0.00005416,-0.00001510,-0.00000348,0.00000755,0.00000562,-0.00
 000135,0.00000246,-0.00000196,0.00000306,-0.00000681,-0.00000612,-0.00
 000162,0.00000341,0.00000109,-0.00000457,0.00000426,-0.00000089,-0.000
 01021,-0.00000265,-0.00000701,-0.00075333,-0.00074027,0.00059736,-0.00
 013348,0.00021889,0.00041738,0.00040547,0.00046021,0.00132189,-0.00455
 265,-0.00011212,-0.00185745,0.00174105,-0.00012990,-0.00413052,-0.0998
 3614,0.02502993,0.27798591\\-0.00008726,0.00001296,0.00001090,0.000171
 87,0.00000366,0.00002849,-0.00005556,-0.00002840,0.00004397,0.00009986
 ,-0.00003982,-0.00006419,-0.00004707,-0.00008402,0.00006591,0.00000996
 ,0.00005781,0.00000107,-0.00000273,-0.00000129,0.00006005,-0.00001090,
 -0.00003481,-0.00006137,-0.00003509,0.00003213,0.00001240,-0.00000735,
 0.00005132,0.00001229,0.00001520,0.00001256,-0.00000544,0.00001380,0.0
 0006123,0.00001562,0.00001723,-0.00003587,-0.00002963,-0.00012732,-0.0
 0000582,-0.00009521,0.00000090,0.00000062,-0.00001233,0.00002088,0.000
 00195,-0.00000244,-0.00001251,0.00001821,-0.00000179,-0.00001369,-0.00
 001390,-0.00000611,-0.00000506,-0.00000095,-0.00000653,0.00000602,-0.0
 0002453,0.00000719,0.00002839,0.00000188,-0.00000542,-0.00000939,0.000
 00150,-0.00001592,0.00001777,0.00000240,0.00000356,0.00000556,0.000007
 62,0.00001005,-0.00000877,0.00001586,0.00000406,0.00000853,-0.00002866
 ,-0.00000623,-0.00000633,0.00000228,0.00000319,-0.00001331,0.00000738,
 0.00001879,0.00001412,0.00002011,0.00001468,0.00001224,-0.00001343,0.0
 0000041\\\@


 EVERYBODY NEEDS BEAUTY AS WELL AS BREAD, PLACES TO PLAY IN AND PRAY IN,
 WHERE NATURE MAY HEAL AND CHEER AND GIVE STRENGTH TO BODY AND SOUL ALIKE.

                                    -- JOHN MUIR
 Job cpu time:       0 days  0 hours  3 minutes 21.5 seconds.
 Elapsed time:       0 days  0 hours  3 minutes 27.0 seconds.
 File lengths (MBytes):  RWF=    206 Int=      0 D2E=      0 Chk=     16 Scr=      1
 Normal termination of Gaussian 16 at Sat Feb 24 02:27:11 2024.
