 Entering Gaussian System, Link 0=g16
 Input=/Volumes/SSD-PMU3/b3lyp_6-31gd_freq/FRQUGZXADTWFGO-GFCCVEGCSA-N_calculating/gaussianinput1.gjf
 Output=/Volumes/SSD-PMU3/b3lyp_6-31gd_freq/FRQUGZXADTWFGO-GFCCVEGCSA-N_calculating/gaussianinput1.log
 Initial command:
 /Applications/g16/l1.exe "/Users/macmini_m1_2022/PycharmProjects/sphere_model/sphere_model_lib/Gau-86339.inp" -scrdir="/Users/macmini_m1_2022/PycharmProjects/sphere_model/sphere_model_lib/"
 Entering Link 1 = /Applications/g16/l1.exe PID=     86340.
  
 Copyright (c) 1988,1990,1992,1993,1995,1998,2003,2009,2016,
            Gaussian, Inc.  All Rights Reserved.
  
 This is part of the Gaussian(R) 16 program.  It is based on
 the Gaussian(R) 09 system (copyright 2009, Gaussian, Inc.),
 the Gaussian(R) 03 system (copyright 2003, Gaussian, Inc.),
 the Gaussian(R) 98 system (copyright 1998, Gaussian, Inc.),
 the Gaussian(R) 94 system (copyright 1995, Gaussian, Inc.),
 the Gaussian 92(TM) system (copyright 1992, Gaussian, Inc.),
 the Gaussian 90(TM) system (copyright 1990, Gaussian, Inc.),
 the Gaussian 88(TM) system (copyright 1988, Gaussian, Inc.),
 the Gaussian 86(TM) system (copyright 1986, Carnegie Mellon
 University), and the Gaussian 82(TM) system (copyright 1983,
 Carnegie Mellon University). Gaussian is a federally registered
 trademark of Gaussian, Inc.
  
 This software contains proprietary and confidential information,
 including trade secrets, belonging to Gaussian, Inc.
  
 This software is provided under written license and may be
 used, copied, transmitted, or stored only in accord with that
 written license.
  
 The following legend is applicable only to US Government
 contracts under FAR:
  
                    RESTRICTED RIGHTS LEGEND
  
 Use, reproduction and disclosure by the US Government is
 subject to restrictions as set forth in subparagraphs (a)
 and (c) of the Commercial Computer Software - Restricted
 Rights clause in FAR 52.227-19.
  
 Gaussian, Inc.
 340 Quinnipiac St., Bldg. 40, Wallingford CT 06492
  
  
 ---------------------------------------------------------------
 Warning -- This program may not be used in any manner that
 competes with the business of Gaussian, Inc. or will provide
 assistance to any competitor of Gaussian, Inc.  The licensee
 of this program is prohibited from giving any competitor of
 Gaussian, Inc. access to this program.  By using this program,
 the user acknowledges that Gaussian, Inc. is engaged in the
 business of creating and licensing software in the field of
 computational chemistry and represents and warrants to the
 licensee that it is not a competitor of Gaussian, Inc. and that
 it will not use this program in any manner prohibited above.
 ---------------------------------------------------------------
  

 Cite this work as:
 Gaussian 16, Revision A.03,
 M. J. Frisch, G. W. Trucks, H. B. Schlegel, G. E. Scuseria, 
 M. A. Robb, J. R. Cheeseman, G. Scalmani, V. Barone, 
 G. A. Petersson, H. Nakatsuji, X. Li, M. Caricato, A. V. Marenich, 
 J. Bloino, B. G. Janesko, R. Gomperts, B. Mennucci, H. P. Hratchian, 
 J. V. Ortiz, A. F. Izmaylov, J. L. Sonnenberg, D. Williams-Young, 
 F. Ding, F. Lipparini, F. Egidi, J. Goings, B. Peng, A. Petrone, 
 T. Henderson, D. Ranasinghe, V. G. Zakrzewski, J. Gao, N. Rega, 
 G. Zheng, W. Liang, M. Hada, M. Ehara, K. Toyota, R. Fukuda, 
 J. Hasegawa, M. Ishida, T. Nakajima, Y. Honda, O. Kitao, H. Nakai, 
 T. Vreven, K. Throssell, J. A. Montgomery, Jr., J. E. Peralta, 
 F. Ogliaro, M. J. Bearpark, J. J. Heyd, E. N. Brothers, K. N. Kudin, 
 V. N. Staroverov, T. A. Keith, R. Kobayashi, J. Normand, 
 K. Raghavachari, A. P. Rendell, J. C. Burant, S. S. Iyengar, 
 J. Tomasi, M. Cossi, J. M. Millam, M. Klene, C. Adamo, R. Cammi, 
 J. W. Ochterski, R. L. Martin, K. Morokuma, O. Farkas, 
 J. B. Foresman, and D. J. Fox, Gaussian, Inc., Wallingford CT, 2016.
 
 ******************************************
 Gaussian 16:  EM64M-G16RevA.03 25-Dec-2016
                24-Feb-2024 
 ******************************************
 %nprocshared=10
 Will use up to   10 processors via shared memory.
 %mem=12GB
 %chk= 1.chk
 ---------------------
 # freq b3lyp/6-31g(d)
 ---------------------
 1/10=4,30=1,38=1/1,3;
 2/12=2,17=6,18=5,40=1/2;
 3/5=1,6=6,7=1,11=2,25=1,30=1,71=2,74=-5,140=1/1,2,3;
 4//1;
 5/5=2,38=5,98=1/2;
 8/6=4,10=90,11=11/1;
 11/6=1,8=1,9=11,15=111,16=1/1,2,10;
 10/6=1/2;
 6/7=2,8=2,9=2,10=2,28=1/1;
 7/8=1,10=1,25=1/1,2,3,16;
 1/10=4,30=1/3;
 99//99;
 ---------
 good luck
 ---------
 Symbolic Z-matrix:
 Charge =  0 Multiplicity = 1
 O                     1.21649   0.        0. 
 C                     0.        0.        0. 
 C                    -0.81423  -1.28836   0.00409 
 C                    -1.90057  -1.29153   1.11391 
 C                    -2.72759  -2.56674   1.09412 
 C                    -3.54049  -2.9018    0.00167 
 C                    -4.29983  -4.07022   0.0008 
 C                    -4.27457  -4.95393   1.08812 
 C                    -5.07355  -6.23623   1.07046 
 C                    -3.46513  -4.61875   2.17944 
 C                    -2.70586  -3.44836   2.1811 
 C                    -2.76229  -0.01313   1.02279 
 C                    -1.90304   1.25658   1.10167 
 C                    -0.81972   1.28368   0.00409 
 H                    -1.30685  -1.38005  -0.97572 
 H                    -0.13122  -2.1357    0.11151 
 H                    -1.37459  -1.25903   2.079 
 H                    -3.5892   -2.24215  -0.86187 
 H                    -4.92473  -4.30006  -0.85976 
 H                    -5.98874  -6.13068   0.47792 
 H                    -4.49584  -7.06049   0.63077 
 H                    -5.35922  -6.54472   2.08183 
 H                    -3.42767  -5.281     3.04187 
 H                    -2.08743  -3.21452   3.04528 
 H                    -3.50543  -0.0172    1.82914 
 H                    -3.32648  -0.01751   0.07915 
 H                    -1.41826   1.30719   2.0865 
 H                    -2.5341    2.14943   1.01913 
 H                    -1.30883   1.3725   -0.97854 
 H                    -0.13971   2.13309   0.1157 
 

 GradGradGradGradGradGradGradGradGradGradGradGradGradGradGradGradGradGrad
 Berny optimization.
 Initialization pass.
 Trust Radius=3.00D-01 FncErr=1.00D-07 GrdErr=1.00D-07 EigMax=2.50D+02 EigMin=1.00D-04
 Number of steps in this run=      2 maximum allowed number of steps=      2.
 GradGradGradGradGradGradGradGradGradGradGradGradGradGradGradGradGradGrad

                          Input orientation:                          
 ---------------------------------------------------------------------
 Center     Atomic      Atomic             Coordinates (Angstroms)
 Number     Number       Type             X           Y           Z
 ---------------------------------------------------------------------
      1          8           0        1.216487    0.000000    0.000000
      2          6           0        0.000000    0.000000    0.000000
      3          6           0       -0.814231   -1.288355    0.004087
      4          6           0       -1.900566   -1.291532    1.113910
      5          6           0       -2.727587   -2.566741    1.094119
      6          6           0       -3.540492   -2.901795    0.001665
      7          6           0       -4.299835   -4.070218    0.000804
      8          6           0       -4.274569   -4.953927    1.088122
      9          6           0       -5.073551   -6.236227    1.070464
     10          6           0       -3.465132   -4.618751    2.179443
     11          6           0       -2.705861   -3.448355    2.181102
     12          6           0       -2.762287   -0.013134    1.022789
     13          6           0       -1.903043    1.256581    1.101666
     14          6           0       -0.819717    1.283683    0.004087
     15          1           0       -1.306848   -1.380046   -0.975720
     16          1           0       -0.131215   -2.135697    0.111512
     17          1           0       -1.374587   -1.259029    2.079002
     18          1           0       -3.589204   -2.242147   -0.861874
     19          1           0       -4.924725   -4.300061   -0.859762
     20          1           0       -5.988737   -6.130676    0.477917
     21          1           0       -4.495844   -7.060492    0.630768
     22          1           0       -5.359219   -6.544718    2.081827
     23          1           0       -3.427673   -5.280996    3.041867
     24          1           0       -2.087427   -3.214523    3.045281
     25          1           0       -3.505429   -0.017196    1.829139
     26          1           0       -3.326475   -0.017506    0.079151
     27          1           0       -1.418263    1.307186    2.086499
     28          1           0       -2.534096    2.149434    1.019126
     29          1           0       -1.308830    1.372497   -0.978541
     30          1           0       -0.139712    2.133086    0.115704
 ---------------------------------------------------------------------
                    Distance matrix (angstroms):
                    1          2          3          4          5
     1  O    0.000000
     2  C    1.216487   0.000000
     3  C    2.404931   1.524089   0.000000
     4  C    3.553149   2.553625   1.553010   0.000000
     5  C    4.831250   3.901921   2.546247   1.520037   0.000000
     6  C    5.572187   4.577718   3.167916   2.553310   1.402331
     7  C    6.855398   5.920748   4.459620   3.836221   2.434696
     8  C    7.475099   6.633049   5.156112   4.364595   2.844617
     9  C    8.921939   8.110323   6.615165   5.875349   4.355368
    10  C    6.928231   6.171707   4.780271   3.828004   2.435702
    11  C    5.659786   4.895921   3.603229   2.537574   1.399731
    12  C    4.108152   2.945590   2.541430   1.544399   2.554839
    13  C    3.538945   2.532634   2.977732   2.548144   3.911230
    14  C    2.407070   1.523087   2.572044   3.005274   4.433272
    15  H    3.037067   2.136448   1.100500   2.174141   2.776865
    16  H    2.527833   2.142628   1.093636   2.201822   2.809353
    17  H    3.552614   2.792292   2.149449   1.099597   2.123844
    18  H    5.372589   4.318847   3.059425   2.767470   2.161863
    19  H    7.546138   6.594136   5.168440   4.700230   3.413131
    20  H    9.472531   8.583622   7.102683   6.366706   4.869952
    21  H    9.103798   8.394107   6.874923   6.344273   4.851312
    22  H    9.508273   8.711404   7.252811   6.363577   4.870868
    23  H    7.662251   6.992197   5.656798   4.686672   3.413359
    24  H    5.524739   4.895329   3.818378   2.731850   2.153244
    25  H    5.063846   3.953995   3.491304   2.170500   2.765045
    26  H    4.543685   3.327463   2.816392   2.174186   2.808456
    27  H    3.606123   2.841423   3.382030   2.816359   4.207904
    28  H    4.441346   3.475676   3.975756   3.500084   4.720738
    29  H    3.036201   2.134087   2.879291   3.438830   4.671872
    30  H    2.530359   2.140786   3.489082   3.978069   5.453693
                    6          7          8          9         10
     6  C    0.000000
     7  C    1.393490   0.000000
     8  C    2.435263   1.401371   0.000000
     9  C    3.822439   2.536613   1.510952   0.000000
    10  C    2.774227   2.396682   1.399469   2.536351   0.000000
    11  C    2.396932   2.771492   2.433556   3.822526   1.395106
    12  C    3.161117   4.457403   5.167466   6.638607   4.800370
    13  C    4.602535   5.944014   6.647912   8.136047   6.174241
    14  C    4.992079   6.385569   7.212414   8.705246   6.824157
    15  H    2.874051   4.141086   5.083251   6.477454   5.010235
    16  H    3.496018   4.596958   5.105249   6.493121   4.642941
    17  H    3.421280   4.558373   4.800418   6.282673   3.958308
    18  H    1.087754   2.142674   3.409686   4.678663   3.861768
    19  H    2.147861   1.088067   2.155109   2.738003   3.386553
    20  H    4.079999   2.706569   2.166901   1.095362   3.398484
    21  H    4.313146   3.062191   2.166968   1.098404   3.069668
    22  H    4.572278   3.402367   2.166687   1.095275   2.703043
    23  H    3.862144   3.387435   2.154374   2.740038   1.088001
    24  H    3.387151   3.859508   3.411684   4.684820   2.149326
    25  H    3.414938   4.516733   5.050940   6.458401   4.615046
    26  H    2.893256   4.168698   5.126905   6.535095   5.059833
    27  H    5.154213   6.447484   6.953904   8.443728   6.270171
    28  H    5.250045   6.545142   7.313805   8.761893   6.929754
    29  H    4.920436   6.287159   7.286312   8.732939   7.107570
    30  H    6.076869   7.469994   8.262469   9.762158   7.804149
                   11         12         13         14         15
    11  C    0.000000
    12  C    3.625688   0.000000
    13  C    4.893477   1.535154   0.000000
    14  C    5.539776   2.548150   1.542404   0.000000
    15  H    4.025005   2.825029   3.409220   2.879717   0.000000
    16  H    3.554585   3.501177   3.953142   3.489661   1.770648
    17  H    2.564345   2.143257   2.750045   3.328444   3.057869
    18  H    3.390418   3.033850   4.351980   4.566336   2.442402
    19  H    3.859484   5.157313   6.622238   6.983948   4.650695
    20  H    4.568693   6.937664   8.464840   9.050746   6.826539
    21  H    4.319156   7.268023   8.724567   9.139579   6.709543
    22  H    4.078925   7.108249   8.588721   9.284823   7.241833
    23  H    2.149535   5.680650   6.987760   7.689249   5.988014
    24  H    1.088092   3.846401   4.878771   5.575823   4.488102
    25  H    3.540627   1.096575   2.172410   3.498021   3.815541
    26  H    4.071128   1.099445   2.166793   2.825343   2.654837
    27  H    4.927680   2.163591   1.098849   2.166852   4.075637
    28  H    5.719697   2.174577   1.096461   2.172309   4.235892
    29  H    5.930907   2.835107   2.166515   1.101216   2.752545
    30  H    6.481009   3.508128   2.202208   1.093778   3.859470
                   16         17         18         19         20
    16  H    0.000000
    17  H    2.487074   0.000000
    18  H    3.593953   3.810486   0.000000
    19  H    5.348419   5.521566   2.453290   0.000000
    20  H    7.099625   6.898318   4.761665   2.504527   0.000000
    21  H    6.601001   6.745117   5.125078   3.166322   1.765404
    22  H    7.117137   6.619351   5.505492   3.725616   1.772075
    23  H    5.417243   4.617195   4.949736   4.292564   3.722210
    24  H    3.687497   2.294732   4.297291   4.947526   5.505954
    25  H    4.338618   2.478925   3.492703   5.252383   6.735522
    26  H    3.833728   3.057883   2.429729   4.666502   6.679633
    27  H    4.172590   2.566598   5.099378   7.239955   8.876855
    28  H    4.995993   3.753055   4.892586   7.130309   8.988196
    29  H    3.857774   4.034578   4.275438   6.728055   8.962165
    30  H    4.268794   4.109246   5.656617   8.076711  10.130748
                   21         22         23         24         25
    21  H    0.000000
    22  H    1.765506   0.000000
    23  H    3.181351   2.499908   0.000000
    24  H    5.140216   4.766872   2.463043   0.000000
    25  H    7.212838   6.790356   5.402254   3.703057   0.000000
    26  H    7.160681   7.123711   6.040882   4.533661   1.759114
    27  H    9.033753   8.785417   6.953747   4.670428   2.485253
    28  H    9.424543   9.203202   7.752500   5.751248   2.508764
    29  H    9.157633   9.404988   8.057428   6.151269   3.826142
    30  H   10.186415  10.315676   8.622165   6.401011   4.345989
                   26         27         28         29         30
    26  H    0.000000
    27  H    3.070102   0.000000
    28  H    2.491394   1.758906   0.000000
    29  H    2.668654   3.067688   2.468923   0.000000
    30  H    3.844716   2.490148   2.559202   1.772768   0.000000
 Stoichiometry    C13H16O
 Framework group  C1[X(C13H16O)]
 Deg. of freedom    84
 Full point group                 C1      NOp   1
 Largest Abelian subgroup         C1      NOp   1
 Largest concise Abelian subgroup C1      NOp   1
                         Standard orientation:                         
 ---------------------------------------------------------------------
 Center     Atomic      Atomic             Coordinates (Angstroms)
 Number     Number       Type             X           Y           Z
 ---------------------------------------------------------------------
      1          8           0        3.737402   -1.866779   -0.071175
      2          6           0        3.063111   -0.876829   -0.283711
      3          6           0        1.550569   -0.944043   -0.458484
      4          6           0        0.810273    0.080385    0.443929
      5          6           0       -0.695620    0.027973    0.243794
      6          6           0       -1.288652    0.359593   -0.982939
      7          6           0       -2.671424    0.315065   -1.149590
      8          6           0       -3.517772   -0.067140   -0.100088
      9          6           0       -5.014222   -0.146116   -0.293427
     10          6           0       -2.926424   -0.396014    1.124926
     11          6           0       -1.542164   -0.350207    1.292407
     12          6           0        1.396276    1.494656    0.239949
     13          6           0        2.908290    1.525302    0.503711
     14          6           0        3.665121    0.518454   -0.386498
     15          1           0        1.321678   -0.720676   -1.511488
     16          1           0        1.218414   -1.966442   -0.257455
     17          1           0        1.010723   -0.205568    1.486600
     18          1           0       -0.667100    0.662534   -1.822646
     19          1           0       -3.101938    0.583035   -2.112264
     20          1           0       -5.362240    0.582557   -1.033519
     21          1           0       -5.318935   -1.139834   -0.648624
     22          1           0       -5.550058    0.041056    0.643309
     23          1           0       -3.556215   -0.691413    1.961496
     24          1           0       -1.112387   -0.610199    2.257621
     25          1           0        0.882541    2.200417    0.903616
     26          1           0        1.195187    1.830399   -0.787485
     27          1           0        3.098397    1.285666    1.559127
     28          1           0        3.303679    2.534402    0.337543
     29          1           0        3.587129    0.840932   -1.436547
     30          1           0        4.727738    0.460890   -0.133748
 ---------------------------------------------------------------------
 Rotational constants (GHZ):           1.8706007           0.3095240           0.2986807
 Standard basis: 6-31G(d) (6D, 7F)
 There are   242 symmetry adapted cartesian basis functions of A   symmetry.
 There are   242 symmetry adapted basis functions of A   symmetry.
   242 basis functions,   456 primitive gaussians,   242 cartesian basis functions
    51 alpha electrons       51 beta electrons
       nuclear repulsion energy       843.3027173024 Hartrees.
 NAtoms=   30 NActive=   30 NUniq=   30 SFac= 1.00D+00 NAtFMM=   60 NAOKFM=F Big=F
 Integral buffers will be    131072 words long.
 Raffenetti 2 integral format.
 Two-electron integral symmetry is turned on.
 One-electron integrals computed using PRISM.
 NBasis=   242 RedAO= T EigKep=  4.17D-04  NBF=   242
 NBsUse=   242 1.00D-06 EigRej= -1.00D+00 NBFU=   242
 ExpMin= 1.61D-01 ExpMax= 5.48D+03 ExpMxC= 8.25D+02 IAcc=3 IRadAn=         5 AccDes= 0.00D+00
 Harris functional with IExCor=  402 and IRadAn=       5 diagonalized for initial guess.
 HarFok:  IExCor=  402 AccDes= 0.00D+00 IRadAn=         5 IDoV= 1 UseB2=F ITyADJ=14
 ICtDFT=  3500011 ScaDFX=  1.000000  1.000000  1.000000  1.000000
 FoFCou: FMM=F IPFlag=           0 FMFlag=      100000 FMFlg1=           0
         NFxFlg=           0 DoJE=T BraDBF=F KetDBF=T FulRan=T
         wScrn=  0.000000 ICntrl=       500 IOpCl=  0 I1Cent=   200000004 NGrid=           0
         NMat0=    1 NMatS0=      1 NMatT0=    0 NMatD0=    1 NMtDS0=    0 NMtDT0=    0
 Petite list used in FoFCou.
 Requested convergence on RMS density matrix=1.00D-08 within 128 cycles.
 Requested convergence on MAX density matrix=1.00D-06.
 Requested convergence on             energy=1.00D-06.
 No special actions if energy rises.
 Integral accuracy reduced to 1.0D-05 until final iterations.
 Initial convergence to 1.0D-05 achieved.  Increase integral accuracy.
 SCF Done:  E(RB3LYP) =  -580.258774497     A.U. after   14 cycles
            NFock= 14  Conv=0.63D-08     -V/T= 2.0098
 DoSCS=F DFT=T ScalE2(SS,OS)=  1.000000  1.000000
 Range of M.O.s used for correlation:     1   242
 NBasis=   242 NAE=    51 NBE=    51 NFC=     0 NFV=     0
 NROrb=    242 NOA=    51 NOB=    51 NVA=   191 NVB=   191
 Symmetrizing basis deriv contribution to polar:
 IMax=3 JMax=2 DiffMx= 0.00D+00
 G2DrvN: will do    31 centers at a time, making    1 passes.
 Calling FoFCou, ICntrl=  3107 FMM=F I1Cent=   0 AccDes= 0.00D+00.
 End of G2Drv F.D. properties file   721 does not exist.
 End of G2Drv F.D. properties file   722 does not exist.
 End of G2Drv F.D. properties file   788 does not exist.
          IDoAtm=111111111111111111111111111111
          Differentiating once with respect to electric field.
                with respect to dipole field.
          Differentiating once with respect to nuclear coordinates.
 Keep R1 ints in memory in canonical form, NReq=442997461.
          There are    93 degrees of freedom in the 1st order CPHF.  IDoFFX=6 NUNeed=     3.
     90 vectors produced by pass  0 Test12= 1.05D-14 1.08D-09 XBig12= 1.62D+02 5.44D+00.
 AX will form    90 AO Fock derivatives at one time.
     90 vectors produced by pass  1 Test12= 1.05D-14 1.08D-09 XBig12= 2.86D+01 1.27D+00.
     90 vectors produced by pass  2 Test12= 1.05D-14 1.08D-09 XBig12= 2.12D-01 6.30D-02.
     90 vectors produced by pass  3 Test12= 1.05D-14 1.08D-09 XBig12= 5.62D-04 2.17D-03.
     90 vectors produced by pass  4 Test12= 1.05D-14 1.08D-09 XBig12= 5.51D-07 6.47D-05.
     53 vectors produced by pass  5 Test12= 1.05D-14 1.08D-09 XBig12= 3.13D-10 1.41D-06.
      3 vectors produced by pass  6 Test12= 1.05D-14 1.08D-09 XBig12= 1.97D-13 3.97D-08.
      1 vectors produced by pass  7 Test12= 1.05D-14 1.08D-09 XBig12= 1.85D-16 1.48D-09.
 InvSVY:  IOpt=1 It=  1 EMax= 1.42D-14
 Solved reduced A of dimension   507 with    93 vectors.
 Isotropic polarizability for W=    0.000000      133.94 Bohr**3.
 End of Minotr F.D. properties file   721 does not exist.
 End of Minotr F.D. properties file   722 does not exist.
 End of Minotr F.D. properties file   788 does not exist.

 **********************************************************************

            Population analysis using the SCF density.

 **********************************************************************

 Orbital symmetries:
       Occupied  (A) (A) (A) (A) (A) (A) (A) (A) (A) (A) (A) (A)
                 (A) (A) (A) (A) (A) (A) (A) (A) (A) (A) (A) (A)
                 (A) (A) (A) (A) (A) (A) (A) (A) (A) (A) (A) (A)
                 (A) (A) (A) (A) (A) (A) (A) (A) (A) (A) (A) (A)
                 (A) (A) (A)
       Virtual   (A) (A) (A) (A) (A) (A) (A) (A) (A) (A) (A) (A)
                 (A) (A) (A) (A) (A) (A) (A) (A) (A) (A) (A) (A)
                 (A) (A) (A) (A) (A) (A) (A) (A) (A) (A) (A) (A)
                 (A) (A) (A) (A) (A) (A) (A) (A) (A) (A) (A) (A)
                 (A) (A) (A) (A) (A) (A) (A) (A) (A) (A) (A) (A)
                 (A) (A) (A) (A) (A) (A) (A) (A) (A) (A) (A) (A)
                 (A) (A) (A) (A) (A) (A) (A) (A) (A) (A) (A) (A)
                 (A) (A) (A) (A) (A) (A) (A) (A) (A) (A) (A) (A)
                 (A) (A) (A) (A) (A) (A) (A) (A) (A) (A) (A) (A)
                 (A) (A) (A) (A) (A) (A) (A) (A) (A) (A) (A) (A)
                 (A) (A) (A) (A) (A) (A) (A) (A) (A) (A) (A) (A)
                 (A) (A) (A) (A) (A) (A) (A) (A) (A) (A) (A) (A)
                 (A) (A) (A) (A) (A) (A) (A) (A) (A) (A) (A) (A)
                 (A) (A) (A) (A) (A) (A) (A) (A) (A) (A) (A) (A)
                 (A) (A) (A) (A) (A) (A) (A) (A) (A) (A) (A) (A)
                 (A) (A) (A) (A) (A) (A) (A) (A) (A) (A) (A)
 The electronic state is 1-A.
 Alpha  occ. eigenvalues --  -19.13242 -10.26840 -10.20400 -10.19637 -10.19510
 Alpha  occ. eigenvalues --  -10.19385 -10.19091 -10.19081 -10.18987 -10.18867
 Alpha  occ. eigenvalues --  -10.18769 -10.18722 -10.18635 -10.18493  -1.03112
 Alpha  occ. eigenvalues --   -0.86118  -0.83238  -0.78262  -0.74624  -0.74226
 Alpha  occ. eigenvalues --   -0.72597  -0.68315  -0.62583  -0.61011  -0.59559
 Alpha  occ. eigenvalues --   -0.56651  -0.53120  -0.49304  -0.47828  -0.46674
 Alpha  occ. eigenvalues --   -0.45491  -0.44719  -0.43599  -0.43209  -0.42107
 Alpha  occ. eigenvalues --   -0.41760  -0.41605  -0.39963  -0.39134  -0.38587
 Alpha  occ. eigenvalues --   -0.36157  -0.35810  -0.35325  -0.34956  -0.33968
 Alpha  occ. eigenvalues --   -0.32807  -0.32405  -0.31881  -0.24892  -0.24052
 Alpha  occ. eigenvalues --   -0.22919
 Alpha virt. eigenvalues --   -0.01578  -0.00039   0.00413   0.08862   0.09553
 Alpha virt. eigenvalues --    0.09807   0.11539   0.13253   0.13516   0.13826
 Alpha virt. eigenvalues --    0.14998   0.15471   0.16043   0.16573   0.16989
 Alpha virt. eigenvalues --    0.17301   0.17737   0.18610   0.20071   0.20693
 Alpha virt. eigenvalues --    0.21971   0.22785   0.23725   0.23987   0.25323
 Alpha virt. eigenvalues --    0.27764   0.28267   0.32375   0.33339   0.34009
 Alpha virt. eigenvalues --    0.34164   0.35172   0.37441   0.47825   0.50336
 Alpha virt. eigenvalues --    0.50610   0.51705   0.51919   0.53194   0.53400
 Alpha virt. eigenvalues --    0.53808   0.55332   0.56091   0.57934   0.59058
 Alpha virt. eigenvalues --    0.59676   0.59827   0.60621   0.61734   0.62518
 Alpha virt. eigenvalues --    0.63247   0.64698   0.65912   0.66789   0.68972
 Alpha virt. eigenvalues --    0.69867   0.71820   0.72410   0.72985   0.74609
 Alpha virt. eigenvalues --    0.75075   0.76058   0.77707   0.78669   0.81200
 Alpha virt. eigenvalues --    0.82444   0.83148   0.84287   0.84688   0.85818
 Alpha virt. eigenvalues --    0.86693   0.86788   0.88257   0.88742   0.89284
 Alpha virt. eigenvalues --    0.90500   0.90543   0.93021   0.93633   0.94565
 Alpha virt. eigenvalues --    0.94840   0.95806   0.97696   0.98483   0.99548
 Alpha virt. eigenvalues --    1.00457   1.03062   1.05036   1.10230   1.10593
 Alpha virt. eigenvalues --    1.11059   1.12432   1.17233   1.17650   1.19281
 Alpha virt. eigenvalues --    1.20746   1.25275   1.26388   1.28981   1.37720
 Alpha virt. eigenvalues --    1.39342   1.39765   1.44348   1.45317   1.46452
 Alpha virt. eigenvalues --    1.47265   1.48322   1.50006   1.51824   1.52828
 Alpha virt. eigenvalues --    1.53334   1.64392   1.68358   1.68954   1.70227
 Alpha virt. eigenvalues --    1.72318   1.77595   1.78075   1.79887   1.81636
 Alpha virt. eigenvalues --    1.82470   1.83039   1.84079   1.85541   1.87702
 Alpha virt. eigenvalues --    1.89879   1.91409   1.92010   1.92283   1.95045
 Alpha virt. eigenvalues --    1.97582   1.98182   2.00717   2.02727   2.02980
 Alpha virt. eigenvalues --    2.04538   2.06033   2.06815   2.10653   2.11606
 Alpha virt. eigenvalues --    2.13215   2.14021   2.17239   2.18456   2.19667
 Alpha virt. eigenvalues --    2.25155   2.27498   2.30416   2.31633   2.32062
 Alpha virt. eigenvalues --    2.34784   2.35453   2.36779   2.39121   2.40704
 Alpha virt. eigenvalues --    2.43115   2.44918   2.47391   2.51279   2.55474
 Alpha virt. eigenvalues --    2.59869   2.61502   2.63124   2.64687   2.66446
 Alpha virt. eigenvalues --    2.69713   2.74432   2.76018   2.77357   2.81943
 Alpha virt. eigenvalues --    2.84565   2.86007   2.95357   2.98651   3.02425
 Alpha virt. eigenvalues --    3.09826   3.41175   3.99636   4.09514   4.11714
 Alpha virt. eigenvalues --    4.13943   4.17403   4.24899   4.25605   4.28831
 Alpha virt. eigenvalues --    4.33581   4.44960   4.52825   4.57708   4.63191
 Alpha virt. eigenvalues --    4.73309
          Condensed to atoms (all electrons):
               1          2          3          4          5          6
     1  O    7.994486   0.592840  -0.077123   0.000702  -0.000080   0.000000
     2  C    0.592840   4.485004   0.303177  -0.018218   0.002417   0.000218
     3  C   -0.077123   0.303177   5.380476   0.319343  -0.034299  -0.005552
     4  C    0.000702  -0.018218   0.319343   5.104602   0.352561  -0.061995
     5  C   -0.000080   0.002417  -0.034299   0.352561   4.648485   0.532548
     6  C    0.000000   0.000218  -0.005552  -0.061995   0.532548   5.010453
     7  C    0.000000   0.000001   0.000163   0.005956  -0.019378   0.499211
     8  C   -0.000000  -0.000000   0.000013   0.000468  -0.025685  -0.025058
     9  C    0.000000  -0.000000   0.000000   0.000002   0.000390   0.007241
    10  C   -0.000000   0.000001  -0.000222   0.006874  -0.023960  -0.055331
    11  C   -0.000000  -0.000059  -0.000356  -0.041519   0.552096  -0.039086
    12  C    0.000058  -0.012764  -0.047915   0.361300  -0.036082  -0.006116
    13  C    0.001364  -0.026154  -0.002309  -0.037230   0.004233   0.000222
    14  C   -0.079339   0.325619  -0.136965  -0.003710  -0.000154  -0.000009
    15  H    0.001301  -0.026090   0.341989  -0.034566  -0.008803   0.003856
    16  H    0.004525  -0.022671   0.342041  -0.027598  -0.000555   0.000070
    17  H    0.000540  -0.001494  -0.050066   0.364547  -0.042934   0.005559
    18  H    0.000000  -0.000076   0.000454  -0.008136  -0.047640   0.350050
    19  H    0.000000  -0.000000  -0.000001  -0.000176   0.003512  -0.043113
    20  H    0.000000  -0.000000   0.000000  -0.000000   0.000012   0.000109
    21  H   -0.000000   0.000000  -0.000000   0.000000   0.000037  -0.000157
    22  H    0.000000  -0.000000   0.000000  -0.000000   0.000010  -0.000171
    23  H    0.000000  -0.000000   0.000002  -0.000173   0.003780   0.000634
    24  H   -0.000000  -0.000009   0.000199  -0.011400  -0.041512   0.006315
    25  H    0.000002   0.000236   0.005181  -0.033036  -0.000060   0.000136
    26  H   -0.000006  -0.001255  -0.004826  -0.041296  -0.006033   0.003514
    27  H    0.000445  -0.002606   0.000286  -0.006260  -0.000004   0.000002
    28  H   -0.000068   0.003067  -0.000286   0.004314  -0.000118  -0.000003
    29  H    0.001373  -0.028131   0.003739  -0.001776  -0.000012  -0.000012
    30  H    0.004885  -0.023450   0.006562  -0.000032   0.000009   0.000000
               7          8          9         10         11         12
     1  O    0.000000  -0.000000   0.000000  -0.000000  -0.000000   0.000058
     2  C    0.000001  -0.000000  -0.000000   0.000001  -0.000059  -0.012764
     3  C    0.000163   0.000013   0.000000  -0.000222  -0.000356  -0.047915
     4  C    0.005956   0.000468   0.000002   0.006874  -0.041519   0.361300
     5  C   -0.019378  -0.025685   0.000390  -0.023960   0.552096  -0.036082
     6  C    0.499211  -0.025058   0.007241  -0.055331  -0.039086  -0.006116
     7  C    4.967075   0.550933  -0.062705  -0.023389  -0.054268   0.000184
     8  C    0.550933   4.604307   0.350534   0.556371  -0.025305   0.000017
     9  C   -0.062705   0.350534   5.218066  -0.062863   0.007151   0.000000
    10  C   -0.023389   0.556371  -0.062863   4.975993   0.489833  -0.000216
    11  C   -0.054268  -0.025305   0.007151   0.489833   4.996285  -0.000252
    12  C    0.000184   0.000017   0.000000  -0.000216  -0.000252   5.073868
    13  C    0.000000  -0.000000  -0.000000   0.000001  -0.000059   0.353603
    14  C   -0.000000   0.000000   0.000000  -0.000000  -0.000004  -0.044162
    15  H   -0.000087  -0.000006  -0.000000   0.000009   0.000065  -0.004759
    16  H   -0.000045  -0.000006  -0.000000  -0.000043   0.001140   0.004711
    17  H   -0.000175  -0.000003  -0.000000   0.000310  -0.006501  -0.047200
    18  H   -0.039947   0.003647  -0.000192   0.000720   0.005782   0.000750
    19  H    0.353037  -0.044793  -0.009351   0.006101   0.000685  -0.000002
    20  H   -0.002829  -0.027987   0.364277   0.002833  -0.000173  -0.000000
    21  H   -0.001794  -0.025736   0.362448  -0.001814  -0.000154   0.000000
    22  H    0.002866  -0.028079   0.364539  -0.002757   0.000123  -0.000000
    23  H    0.006120  -0.045218  -0.009523   0.352602  -0.042143   0.000002
    24  H    0.000651   0.003633  -0.000184  -0.042723   0.349240   0.000152
    25  H   -0.000060  -0.000009  -0.000000  -0.000041   0.001253   0.364331
    26  H   -0.000064  -0.000004  -0.000000   0.000008   0.000051   0.368486
    27  H    0.000000   0.000000   0.000000   0.000000  -0.000007  -0.038389
    28  H   -0.000000   0.000000  -0.000000  -0.000000   0.000001  -0.029008
    29  H   -0.000000  -0.000000   0.000000  -0.000000   0.000000  -0.002641
    30  H    0.000000  -0.000000  -0.000000   0.000000  -0.000000   0.004045
              13         14         15         16         17         18
     1  O    0.001364  -0.079339   0.001301   0.004525   0.000540   0.000000
     2  C   -0.026154   0.325619  -0.026090  -0.022671  -0.001494  -0.000076
     3  C   -0.002309  -0.136965   0.341989   0.342041  -0.050066   0.000454
     4  C   -0.037230  -0.003710  -0.034566  -0.027598   0.364547  -0.008136
     5  C    0.004233  -0.000154  -0.008803  -0.000555  -0.042934  -0.047640
     6  C    0.000222  -0.000009   0.003856   0.000070   0.005559   0.350050
     7  C    0.000000  -0.000000  -0.000087  -0.000045  -0.000175  -0.039947
     8  C   -0.000000   0.000000  -0.000006  -0.000006  -0.000003   0.003647
     9  C   -0.000000   0.000000  -0.000000  -0.000000  -0.000000  -0.000192
    10  C    0.000001  -0.000000   0.000009  -0.000043   0.000310   0.000720
    11  C   -0.000059  -0.000004   0.000065   0.001140  -0.006501   0.005782
    12  C    0.353603  -0.044162  -0.004759   0.004711  -0.047200   0.000750
    13  C    5.039717   0.335302  -0.001148  -0.000236  -0.004498  -0.000113
    14  C    0.335302   5.315541   0.003150   0.006478   0.000275   0.000020
    15  H   -0.001148   0.003150   0.583546  -0.026127   0.006170   0.002831
    16  H   -0.000236   0.006478  -0.026127   0.554212  -0.003570   0.000113
    17  H   -0.004498   0.000275   0.006170  -0.003570   0.627549   0.000017
    18  H   -0.000113   0.000020   0.002831   0.000113   0.000017   0.612780
    19  H   -0.000000  -0.000000   0.000007   0.000000   0.000003  -0.005500
    20  H    0.000000   0.000000  -0.000000  -0.000000   0.000000  -0.000006
    21  H   -0.000000  -0.000000   0.000000   0.000000  -0.000000   0.000002
    22  H    0.000000   0.000000   0.000000  -0.000000   0.000000   0.000003
    23  H   -0.000000   0.000000   0.000000   0.000001  -0.000013   0.000021
    24  H   -0.000014   0.000001   0.000004   0.000063   0.008536  -0.000194
    25  H   -0.029754   0.004458  -0.000023  -0.000148  -0.004192   0.000094
    26  H   -0.040242  -0.003541   0.004382  -0.000032   0.006229   0.002954
    27  H    0.375944  -0.042993   0.000092  -0.000042   0.005423   0.000000
    28  H    0.367885  -0.028472  -0.000008   0.000017  -0.000019   0.000006
    29  H   -0.036255   0.346509   0.001257  -0.000132   0.000117  -0.000007
    30  H   -0.025539   0.344317  -0.000132  -0.000175  -0.000052  -0.000000
              19         20         21         22         23         24
     1  O    0.000000   0.000000  -0.000000   0.000000   0.000000  -0.000000
     2  C   -0.000000  -0.000000   0.000000  -0.000000  -0.000000  -0.000009
     3  C   -0.000001   0.000000  -0.000000   0.000000   0.000002   0.000199
     4  C   -0.000176  -0.000000   0.000000  -0.000000  -0.000173  -0.011400
     5  C    0.003512   0.000012   0.000037   0.000010   0.003780  -0.041512
     6  C   -0.043113   0.000109  -0.000157  -0.000171   0.000634   0.006315
     7  C    0.353037  -0.002829  -0.001794   0.002866   0.006120   0.000651
     8  C   -0.044793  -0.027987  -0.025736  -0.028079  -0.045218   0.003633
     9  C   -0.009351   0.364277   0.362448   0.364539  -0.009523  -0.000184
    10  C    0.006101   0.002833  -0.001814  -0.002757   0.352602  -0.042723
    11  C    0.000685  -0.000173  -0.000154   0.000123  -0.042143   0.349240
    12  C   -0.000002  -0.000000   0.000000  -0.000000   0.000002   0.000152
    13  C   -0.000000   0.000000  -0.000000   0.000000  -0.000000  -0.000014
    14  C   -0.000000   0.000000  -0.000000   0.000000   0.000000   0.000001
    15  H    0.000007  -0.000000   0.000000   0.000000   0.000000   0.000004
    16  H    0.000000  -0.000000   0.000000  -0.000000   0.000001   0.000063
    17  H    0.000003   0.000000  -0.000000   0.000000  -0.000013   0.008536
    18  H   -0.005500  -0.000006   0.000002   0.000003   0.000021  -0.000194
    19  H    0.612453   0.005099   0.000556   0.000025  -0.000193   0.000020
    20  H    0.005099   0.560210  -0.030961  -0.027235   0.000028   0.000003
    21  H    0.000556  -0.030961   0.561316  -0.030718   0.000529   0.000002
    22  H    0.000025  -0.027235  -0.030718   0.559179   0.005191  -0.000006
    23  H   -0.000193   0.000028   0.000529   0.005191   0.611510  -0.005448
    24  H    0.000020   0.000003   0.000002  -0.000006  -0.005448   0.607451
    25  H    0.000000   0.000000  -0.000000   0.000000   0.000001   0.000052
    26  H    0.000004   0.000000  -0.000000   0.000000   0.000000   0.000003
    27  H    0.000000  -0.000000   0.000000  -0.000000  -0.000000  -0.000002
    28  H    0.000000  -0.000000   0.000000  -0.000000   0.000000   0.000000
    29  H    0.000000  -0.000000   0.000000  -0.000000  -0.000000  -0.000000
    30  H   -0.000000  -0.000000   0.000000  -0.000000  -0.000000  -0.000000
              25         26         27         28         29         30
     1  O    0.000002  -0.000006   0.000445  -0.000068   0.001373   0.004885
     2  C    0.000236  -0.001255  -0.002606   0.003067  -0.028131  -0.023450
     3  C    0.005181  -0.004826   0.000286  -0.000286   0.003739   0.006562
     4  C   -0.033036  -0.041296  -0.006260   0.004314  -0.001776  -0.000032
     5  C   -0.000060  -0.006033  -0.000004  -0.000118  -0.000012   0.000009
     6  C    0.000136   0.003514   0.000002  -0.000003  -0.000012   0.000000
     7  C   -0.000060  -0.000064   0.000000  -0.000000  -0.000000   0.000000
     8  C   -0.000009  -0.000004   0.000000   0.000000  -0.000000  -0.000000
     9  C   -0.000000  -0.000000   0.000000  -0.000000   0.000000  -0.000000
    10  C   -0.000041   0.000008   0.000000  -0.000000  -0.000000   0.000000
    11  C    0.001253   0.000051  -0.000007   0.000001   0.000000  -0.000000
    12  C    0.364331   0.368486  -0.038389  -0.029008  -0.002641   0.004045
    13  C   -0.029754  -0.040242   0.375944   0.367885  -0.036255  -0.025539
    14  C    0.004458  -0.003541  -0.042993  -0.028472   0.346509   0.344317
    15  H   -0.000023   0.004382   0.000092  -0.000008   0.001257  -0.000132
    16  H   -0.000148  -0.000032  -0.000042   0.000017  -0.000132  -0.000175
    17  H   -0.004192   0.006229   0.005423  -0.000019   0.000117  -0.000052
    18  H    0.000094   0.002954   0.000000   0.000006  -0.000007  -0.000000
    19  H    0.000000   0.000004   0.000000   0.000000   0.000000  -0.000000
    20  H    0.000000   0.000000  -0.000000  -0.000000  -0.000000  -0.000000
    21  H   -0.000000  -0.000000   0.000000   0.000000   0.000000   0.000000
    22  H    0.000000   0.000000  -0.000000  -0.000000  -0.000000  -0.000000
    23  H    0.000001   0.000000  -0.000000   0.000000  -0.000000  -0.000000
    24  H    0.000052   0.000003  -0.000002   0.000000  -0.000000  -0.000000
    25  H    0.586032  -0.034709  -0.003956  -0.002328  -0.000034  -0.000141
    26  H   -0.034709   0.606372   0.005704  -0.004138   0.004715  -0.000027
    27  H   -0.003956   0.005704   0.594985  -0.036691   0.005763  -0.003287
    28  H   -0.002328  -0.004138  -0.036691   0.590084  -0.006463  -0.002335
    29  H   -0.000034   0.004715   0.005763  -0.006463   0.586336  -0.026670
    30  H   -0.000141  -0.000027  -0.003287  -0.002335  -0.026670   0.558686
 Mulliken charges:
               1
     1  O   -0.445905
     2  C    0.450397
     3  C   -0.343705
     4  C   -0.193551
     5  C    0.187217
     6  C   -0.183536
     7  C   -0.181459
     8  C    0.177966
     9  C   -0.529829
    10  C   -0.178298
    11  C   -0.193821
    12  C   -0.262001
    13  C   -0.274722
    14  C   -0.342320
    15  H    0.153092
    16  H    0.168008
    17  H    0.135441
    18  H    0.121567
    19  H    0.121625
    20  H    0.156618
    21  H    0.166445
    22  H    0.157031
    23  H    0.122290
    24  H    0.125168
    25  H    0.146715
    26  H    0.133749
    27  H    0.145592
    28  H    0.144563
    29  H    0.152325
    30  H    0.163337
 Sum of Mulliken charges =  -0.00000
 Mulliken charges with hydrogens summed into heavy atoms:
               1
     1  O   -0.445905
     2  C    0.450397
     3  C   -0.022606
     4  C   -0.058110
     5  C    0.187217
     6  C   -0.061969
     7  C   -0.059833
     8  C    0.177966
     9  C   -0.049735
    10  C   -0.056009
    11  C   -0.068653
    12  C    0.018463
    13  C    0.015434
    14  C   -0.026658
 APT charges:
               1
     1  O   -0.685848
     2  C    0.800767
     3  C   -0.130131
     4  C    0.179068
     5  C    0.030491
     6  C   -0.058163
     7  C   -0.034079
     8  C    0.070993
     9  C    0.096156
    10  C   -0.041176
    11  C   -0.039460
    12  C    0.060920
    13  C    0.151738
    14  C   -0.063425
    15  H    0.005693
    16  H   -0.015050
    17  H   -0.058050
    18  H    0.015456
    19  H    0.003985
    20  H   -0.023265
    21  H   -0.045205
    22  H   -0.023174
    23  H    0.003885
    24  H    0.012465
    25  H   -0.036253
    26  H   -0.033189
    27  H   -0.042584
    28  H   -0.064676
    29  H   -0.009857
    30  H   -0.028033
 Sum of APT charges =  -0.00000
 APT charges with hydrogens summed into heavy atoms:
               1
     1  O   -0.685848
     2  C    0.800767
     3  C   -0.139488
     4  C    0.121017
     5  C    0.030491
     6  C   -0.042707
     7  C   -0.030094
     8  C    0.070993
     9  C    0.004513
    10  C   -0.037291
    11  C   -0.026995
    12  C   -0.008522
    13  C    0.044479
    14  C   -0.101314
 Electronic spatial extent (au):  <R**2>=           3804.4734
 Charge=             -0.0000 electrons
 Dipole moment (field-independent basis, Debye):
    X=             -2.0798    Y=              2.4513    Z=             -0.3615  Tot=              3.2350
 Quadrupole moment (field-independent basis, Debye-Ang):
   XX=            -87.1581   YY=            -89.9595   ZZ=            -78.7328
   XY=             11.4088   XZ=             -0.6970   YZ=             -1.4688
 Traceless Quadrupole moment (field-independent basis, Debye-Ang):
   XX=             -1.8746   YY=             -4.6760   ZZ=              6.5506
   XY=             11.4088   XZ=             -0.6970   YZ=             -1.4688
 Octapole moment (field-independent basis, Debye-Ang**2):
  XXX=            -59.5512  YYY=              5.3994  ZZZ=             -0.4089  XYY=            -10.2603
  XXY=             37.9652  XXZ=             -3.8752  XZZ=              3.1498  YZZ=             -2.4184
  YYZ=             -0.5275  XYZ=              3.6561
 Hexadecapole moment (field-independent basis, Debye-Ang**3):
 XXXX=          -4197.1329 YYYY=           -543.3325 ZZZZ=           -386.4793 XXXY=            159.2502
 XXXZ=             -6.1507 YYYX=             26.9890 YYYZ=              3.2059 ZZZX=             -4.4810
 ZZZY=             -9.6751 XXYY=           -871.5500 XXZZ=           -728.3082 YYZZ=           -154.5524
 XXYZ=            -10.4829 YYXZ=              1.6517 ZZXY=             -9.6729
 N-N= 8.433027173024D+02 E-N=-3.032016460570D+03  KE= 5.746517501570D+02
  Exact polarizability: 186.971   3.049  97.715   2.544 -10.238 117.126
 Approx polarizability: 239.506  -1.845 148.329   5.039 -26.733 202.680
 Calling FoFJK, ICntrl=    100127 FMM=F ISym2X=0 I1Cent= 0 IOpClX= 0 NMat=1 NMatS=1 NMatT=0.
 Full mass-weighted force constant matrix:
 Low frequencies ---   -2.8531   -2.5807    0.0005    0.0005    0.0006    6.5929
 Low frequencies ---   30.1207   35.2558   63.7883
 Diagonal vibrational polarizability:
       12.2924041       7.5536219      32.7453790
 Harmonic frequencies (cm**-1), IR intensities (KM/Mole), Raman scattering
 activities (A**4/AMU), depolarization ratios for plane and unpolarized
 incident light, reduced masses (AMU), force constants (mDyne/A),
 and normal coordinates:
                      1                      2                      3
                      A                      A                      A
 Frequencies --     30.1193                35.2481                63.7871
 Red. masses --      1.1300                 2.8725                 4.5539
 Frc consts  --      0.0006                 0.0021                 0.0109
 IR Inten    --      0.6603                 0.2466                 0.7178
  Atom  AN      X      Y      Z        X      Y      Z        X      Y      Z
     1   8     0.01   0.01  -0.04    -0.06  -0.03   0.11     0.10   0.10   0.21
     2   6     0.01   0.01  -0.02    -0.03  -0.03   0.04     0.07   0.04   0.04
     3   6     0.01   0.00  -0.02    -0.03   0.01   0.03     0.08  -0.05  -0.08
     4   6    -0.00  -0.02   0.00     0.00   0.06  -0.01     0.00  -0.11  -0.08
     5   6    -0.00  -0.01  -0.00     0.00   0.06   0.00     0.00  -0.15  -0.08
     6   6     0.01  -0.04  -0.01    -0.02   0.19   0.05    -0.02  -0.06  -0.04
     7   6     0.00  -0.03  -0.01    -0.02   0.15   0.05    -0.03   0.05   0.02
     8   6    -0.00   0.01  -0.00     0.00  -0.03  -0.00    -0.02   0.07   0.03
     9   6    -0.00   0.02   0.01     0.01  -0.08   0.00    -0.04   0.26   0.12
    10   6    -0.01   0.03   0.01     0.03  -0.16  -0.04     0.01  -0.07  -0.02
    11   6    -0.01   0.02   0.01     0.02  -0.11  -0.04     0.02  -0.18  -0.07
    12   6    -0.01  -0.01   0.03     0.03   0.04  -0.08    -0.08  -0.07  -0.05
    13   6    -0.01  -0.01   0.03     0.04   0.01  -0.08    -0.09   0.03  -0.04
    14   6    -0.00   0.01   0.02     0.01  -0.05  -0.03    -0.01   0.06  -0.01
    15   1     0.01   0.02  -0.01    -0.02  -0.03   0.03     0.12  -0.04  -0.08
    16   1     0.01  -0.00  -0.04    -0.06   0.02   0.07     0.12  -0.08  -0.11
    17   1    -0.00  -0.04  -0.00     0.00   0.10   0.00     0.01  -0.11  -0.08
    18   1     0.01  -0.06  -0.02    -0.04   0.32   0.08    -0.04  -0.04  -0.04
    19   1     0.01  -0.05  -0.02    -0.03   0.25   0.08    -0.05   0.15   0.05
    20   1     0.07  -0.36  -0.40     0.03  -0.34  -0.25     0.02   0.31   0.14
    21   1    -0.07  -0.16   0.55     0.01  -0.21   0.34    -0.19   0.30   0.13
    22   1    -0.01   0.57  -0.11    -0.01   0.24  -0.07     0.04   0.33   0.15
    23   1    -0.01   0.06   0.01     0.04  -0.29  -0.08     0.03  -0.08  -0.01
    24   1    -0.01   0.04   0.01     0.04  -0.21  -0.08     0.04  -0.26  -0.10
    25   1    -0.01  -0.03   0.04     0.06   0.08  -0.11    -0.13  -0.11  -0.06
    26   1    -0.01   0.01   0.04     0.04  -0.00  -0.09    -0.09  -0.08  -0.05
    27   1    -0.01  -0.03   0.03     0.03   0.06  -0.07    -0.08   0.06  -0.03
    28   1    -0.01  -0.00   0.06     0.06  -0.01  -0.13    -0.15   0.05  -0.04
    29   1     0.00   0.04   0.02     0.02  -0.10  -0.05    -0.02   0.04  -0.02
    30   1    -0.00   0.01   0.02     0.01  -0.06  -0.03    -0.01   0.14   0.00
                      4                      5                      6
                      A                      A                      A
 Frequencies --     75.9873               100.0610               175.2898
 Red. masses --      3.4060                 3.3416                 3.8627
 Frc consts  --      0.0116                 0.0197                 0.0699
 IR Inten    --      0.8234                 1.9372                 1.8533
  Atom  AN      X      Y      Z        X      Y      Z        X      Y      Z
     1   8     0.11   0.05  -0.09    -0.08   0.06   0.21     0.18   0.05   0.03
     2   6     0.01   0.01  -0.01    -0.04   0.02  -0.07     0.09  -0.02   0.01
     3   6    -0.01  -0.10   0.20    -0.03   0.05  -0.15     0.07  -0.13   0.04
     4   6    -0.01  -0.03   0.14     0.02  -0.05   0.01    -0.01  -0.08  -0.06
     5   6    -0.00  -0.04   0.10     0.01   0.00   0.02    -0.03   0.02  -0.08
     6   6     0.06   0.01   0.08     0.03  -0.01   0.01    -0.08   0.11  -0.04
     7   6     0.07   0.04   0.01     0.03  -0.01  -0.00    -0.09   0.15   0.02
     8   6     0.01   0.03  -0.04     0.02  -0.00  -0.01    -0.06   0.08   0.02
     9   6     0.02   0.08  -0.12     0.03  -0.05  -0.04    -0.05  -0.19   0.03
    10   6    -0.05  -0.03  -0.03     0.00   0.03   0.01    -0.02   0.14   0.02
    11   6    -0.06  -0.06   0.04     0.00   0.03   0.02    -0.02   0.10  -0.04
    12   6    -0.04  -0.03   0.05     0.03  -0.02   0.18     0.01  -0.09  -0.00
    13   6    -0.01   0.02  -0.10     0.06  -0.07  -0.01    -0.01  -0.10   0.08
    14   6    -0.08   0.03  -0.17    -0.06   0.01  -0.21    -0.01   0.02  -0.04
    15   1    -0.14  -0.25   0.20    -0.02   0.20  -0.11     0.05  -0.27   0.01
    16   1     0.07  -0.09   0.37    -0.06   0.04  -0.26     0.14  -0.13   0.15
    17   1    -0.02   0.04   0.16     0.04  -0.19  -0.04    -0.09  -0.07  -0.04
    18   1     0.10   0.02   0.12     0.04  -0.02   0.02    -0.11   0.12  -0.06
    19   1     0.12   0.08  -0.00     0.04  -0.03  -0.02    -0.12   0.17   0.04
    20   1     0.09   0.07  -0.16     0.02  -0.07  -0.06    -0.20  -0.27   0.02
    21   1    -0.00   0.08  -0.11     0.07  -0.06  -0.05     0.16  -0.25   0.04
    22   1    -0.03   0.13  -0.16    -0.00  -0.06  -0.06    -0.09  -0.29   0.03
    23   1    -0.10  -0.04  -0.07    -0.01   0.05   0.01     0.01   0.14   0.04
    24   1    -0.11  -0.09   0.06    -0.01   0.05   0.03     0.01   0.10  -0.06
    25   1     0.00  -0.02   0.07     0.12  -0.13   0.35    -0.04  -0.11  -0.02
    26   1    -0.13  -0.07   0.06    -0.09   0.15   0.26     0.07  -0.06  -0.01
    27   1     0.11   0.03  -0.12     0.20  -0.19  -0.06    -0.05  -0.24   0.05
    28   1    -0.06   0.03  -0.15     0.05  -0.05   0.05    -0.01  -0.08   0.22
    29   1    -0.27  -0.01  -0.17    -0.27   0.06  -0.18    -0.14   0.07  -0.01
    30   1    -0.04   0.10  -0.33    -0.01   0.03  -0.39     0.02   0.08  -0.14
                      7                      8                      9
                      A                      A                      A
 Frequencies --    196.1688               251.1159               272.2586
 Red. masses --      3.0029                 3.9480                 2.2499
 Frc consts  --      0.0681                 0.1467                 0.0983
 IR Inten    --      0.4994                 0.3086                 0.3498
  Atom  AN      X      Y      Z        X      Y      Z        X      Y      Z
     1   8     0.02   0.01  -0.00     0.08  -0.02   0.00     0.00  -0.06  -0.03
     2   6     0.01   0.01   0.01     0.13   0.02   0.00    -0.00  -0.04   0.06
     3   6    -0.01   0.01   0.14     0.10   0.09  -0.04     0.01  -0.01   0.03
     4   6    -0.02   0.11   0.01     0.02  -0.01   0.04    -0.00  -0.03   0.03
     5   6    -0.01   0.08  -0.08    -0.05  -0.01   0.05     0.01  -0.01  -0.07
     6   6    -0.05  -0.02  -0.10    -0.10  -0.02   0.06     0.01   0.01  -0.07
     7   6    -0.06  -0.11  -0.07    -0.11  -0.03   0.04    -0.00   0.03  -0.05
     8   6    -0.03  -0.08  -0.03    -0.16  -0.02   0.00     0.02   0.03  -0.03
     9   6    -0.07   0.08   0.12    -0.16   0.02  -0.07     0.00  -0.05   0.10
    10   6     0.02  -0.09  -0.06    -0.14  -0.02   0.00     0.03   0.03  -0.05
    11   6     0.01  -0.01  -0.09    -0.12  -0.01   0.02     0.02   0.01  -0.07
    12   6     0.09   0.08   0.07     0.10  -0.01   0.05    -0.06   0.00   0.17
    13   6     0.10  -0.08   0.09     0.15   0.03  -0.11    -0.01   0.11  -0.10
    14   6    -0.01  -0.00  -0.08     0.21  -0.02  -0.01    -0.02  -0.03   0.04
    15   1    -0.05  -0.15   0.11     0.16   0.23  -0.02     0.06   0.03   0.03
    16   1    -0.00   0.03   0.29     0.09   0.06  -0.20    -0.03  -0.01  -0.01
    17   1    -0.11   0.14   0.04     0.01  -0.06   0.02    -0.08  -0.11   0.03
    18   1    -0.08  -0.01  -0.12    -0.12  -0.01   0.05     0.00   0.01  -0.08
    19   1    -0.09  -0.14  -0.07    -0.07  -0.03   0.02    -0.01   0.04  -0.05
    20   1    -0.07   0.14   0.19    -0.09   0.03  -0.09    -0.13  -0.07   0.14
    21   1    -0.24   0.12   0.14    -0.18   0.03  -0.10     0.03  -0.07   0.14
    22   1     0.08   0.13   0.20    -0.21   0.04  -0.11     0.10  -0.09   0.17
    23   1     0.05  -0.10  -0.04    -0.13  -0.02   0.01     0.04   0.04  -0.04
    24   1     0.04   0.02  -0.10    -0.17  -0.02   0.04     0.04  -0.00  -0.08
    25   1     0.14   0.08   0.10     0.21  -0.00   0.12     0.02  -0.13   0.38
    26   1     0.14   0.15   0.08    -0.01   0.02   0.08    -0.28   0.16   0.27
    27   1     0.09  -0.26   0.05     0.26   0.17  -0.10     0.18   0.38  -0.07
    28   1     0.18  -0.08   0.25     0.07   0.04  -0.26    -0.11   0.10  -0.40
    29   1    -0.19   0.05  -0.05     0.33  -0.08  -0.04     0.02  -0.16  -0.01
    30   1     0.04   0.00  -0.25     0.18  -0.05   0.10    -0.03   0.01   0.07
                     10                     11                     12
                      A                      A                      A
 Frequencies --    353.3304               361.2404               405.0116
 Red. masses --      2.6396                 4.0136                 2.8176
 Frc consts  --      0.1942                 0.3086                 0.2723
 IR Inten    --      0.2708                 0.4212                 1.3045
  Atom  AN      X      Y      Z        X      Y      Z        X      Y      Z
     1   8    -0.05   0.04   0.01    -0.10  -0.02  -0.01     0.12  -0.12  -0.01
     2   6    -0.01   0.06  -0.04    -0.01   0.04   0.01     0.10  -0.10   0.08
     3   6    -0.02   0.03   0.01     0.01   0.09   0.10     0.09   0.12  -0.03
     4   6     0.00  -0.04   0.08    -0.01   0.08   0.03    -0.00   0.10  -0.01
     5   6    -0.01  -0.03   0.08     0.01  -0.16  -0.06    -0.01  -0.01   0.05
     6   6     0.07  -0.01   0.05    -0.00  -0.22  -0.08     0.02   0.00   0.05
     7   6     0.07   0.03  -0.10    -0.03   0.10   0.04     0.03  -0.00  -0.02
     8   6     0.01   0.05  -0.13    -0.03   0.24   0.09     0.00   0.02  -0.04
     9   6    -0.03  -0.06   0.17     0.01  -0.07  -0.04    -0.01  -0.01   0.03
    10   6    -0.05   0.04  -0.12    -0.01   0.07   0.04    -0.03   0.02  -0.02
    11   6    -0.08  -0.03   0.02     0.02  -0.19  -0.06    -0.03  -0.03   0.03
    12   6     0.03  -0.07  -0.06     0.03   0.09  -0.00    -0.09   0.12  -0.03
    13   6     0.02  -0.03   0.00     0.06  -0.01   0.02    -0.10  -0.07  -0.00
    14   6     0.07   0.03  -0.01     0.04   0.02  -0.04    -0.08  -0.05  -0.05
    15   1    -0.09   0.10   0.04    -0.03   0.03   0.09     0.31   0.38  -0.03
    16   1     0.05   0.00  -0.05     0.02   0.10   0.15    -0.15   0.15  -0.31
    17   1     0.04  -0.01   0.08    -0.04   0.15   0.05     0.06   0.14  -0.01
    18   1     0.15  -0.02   0.10    -0.00  -0.35  -0.13     0.06   0.02   0.08
    19   1     0.17   0.04  -0.14    -0.04   0.10   0.05     0.07  -0.01  -0.05
    20   1    -0.33  -0.10   0.28    -0.10  -0.20  -0.13    -0.09  -0.02   0.06
    21   1    -0.03  -0.10   0.28     0.37  -0.17  -0.06    -0.00  -0.02   0.06
    22   1     0.23  -0.12   0.34    -0.17  -0.21  -0.12     0.06  -0.03   0.07
    23   1    -0.14   0.07  -0.17     0.01   0.05   0.04    -0.07   0.05  -0.04
    24   1    -0.18  -0.06   0.05     0.04  -0.29  -0.10    -0.07  -0.05   0.04
    25   1     0.00   0.05  -0.21     0.08   0.13  -0.01    -0.04   0.12   0.01
    26   1     0.10  -0.24  -0.13     0.07   0.09  -0.01    -0.10   0.15  -0.02
    27   1    -0.02  -0.07  -0.00     0.03  -0.10   0.00    -0.20  -0.22  -0.02
    28   1    -0.01  -0.01   0.06     0.11  -0.01   0.11     0.04  -0.11   0.14
    29   1     0.15   0.08  -0.00    -0.01   0.03  -0.03    -0.32  -0.15  -0.06
    30   1     0.04  -0.04   0.06     0.05   0.01  -0.08    -0.03   0.19  -0.22
                     13                     14                     15
                      A                      A                      A
 Frequencies --    419.2250               449.3460               472.6886
 Red. masses --      3.0182                 3.4457                 1.7853
 Frc consts  --      0.3125                 0.4099                 0.2350
 IR Inten    --      0.0079                 2.4639                 1.1584
  Atom  AN      X      Y      Z        X      Y      Z        X      Y      Z
     1   8     0.01  -0.01  -0.00    -0.08  -0.03   0.01     0.05   0.04   0.03
     2   6     0.01  -0.01   0.01     0.08   0.07  -0.02    -0.00  -0.02  -0.10
     3   6     0.01   0.01  -0.01     0.06   0.13   0.12    -0.03  -0.06  -0.02
     4   6    -0.00   0.00   0.00    -0.10  -0.02   0.11    -0.01   0.07  -0.08
     5   6    -0.00   0.00   0.01    -0.04   0.00  -0.07    -0.02   0.00   0.04
     6   6     0.02  -0.19  -0.05    -0.02   0.07  -0.07     0.01  -0.02   0.03
     7   6    -0.01   0.20   0.05    -0.01   0.00  -0.00     0.02   0.01  -0.02
     8   6     0.00  -0.01  -0.02     0.06  -0.06   0.03     0.01   0.03  -0.02
     9   6    -0.00  -0.00   0.02     0.09   0.02  -0.01     0.02  -0.00   0.01
    10   6     0.01  -0.20  -0.07     0.04  -0.01   0.05    -0.02  -0.00  -0.01
    11   6    -0.02   0.21   0.07     0.02   0.05  -0.02    -0.02  -0.02   0.04
    12   6    -0.01   0.00  -0.00    -0.13  -0.09   0.01    -0.06   0.11   0.03
    13   6    -0.01  -0.01  -0.00    -0.11  -0.15  -0.09    -0.04  -0.06  -0.05
    14   6    -0.00  -0.00  -0.00     0.16   0.02  -0.08     0.05  -0.05   0.01
    15   1     0.03   0.04  -0.01     0.02   0.21   0.15    -0.15  -0.33  -0.06
    16   1    -0.01   0.01  -0.04     0.15   0.08   0.01     0.02  -0.02   0.26
    17   1     0.00  -0.00   0.00    -0.21   0.01   0.13     0.06   0.08  -0.09
    18   1     0.04  -0.42  -0.12    -0.04   0.12  -0.06     0.05  -0.05   0.06
    19   1    -0.02   0.42   0.12    -0.10   0.02   0.04     0.04  -0.00  -0.03
    20   1    -0.01   0.01   0.02     0.18   0.05  -0.02    -0.03  -0.02   0.02
    21   1    -0.03   0.00   0.02     0.02   0.05  -0.03     0.04  -0.01   0.03
    22   1     0.02   0.01   0.03     0.06   0.06  -0.03     0.04  -0.02   0.03
    23   1     0.02  -0.43  -0.14     0.05   0.03   0.07    -0.05  -0.02  -0.04
    24   1    -0.05   0.45   0.14     0.10   0.11  -0.04    -0.04  -0.04   0.05
    25   1    -0.01   0.00  -0.00     0.00  -0.03   0.06     0.08  -0.05   0.30
    26   1    -0.01  -0.01  -0.00    -0.25  -0.13   0.03    -0.21   0.39   0.15
    27   1    -0.01  -0.02  -0.00    -0.16  -0.33  -0.12    -0.11  -0.16  -0.06
    28   1    -0.00  -0.01   0.01    -0.16  -0.09   0.15     0.07  -0.07   0.08
    29   1    -0.02  -0.01  -0.00     0.40   0.03  -0.09     0.41   0.01   0.01
    30   1    -0.00   0.02  -0.02     0.10   0.08   0.20    -0.03  -0.16   0.34
                     16                     17                     18
                      A                      A                      A
 Frequencies --    500.4391               551.3003               557.3235
 Red. masses --      3.1942                 2.8394                 3.8279
 Frc consts  --      0.4713                 0.5084                 0.7005
 IR Inten    --     13.8724                 8.1495                 1.3170
  Atom  AN      X      Y      Z        X      Y      Z        X      Y      Z
     1   8     0.18   0.15  -0.01    -0.04  -0.07   0.02    -0.05  -0.07  -0.02
     2   6    -0.08  -0.02   0.04     0.07  -0.01  -0.05     0.06   0.04   0.09
     3   6    -0.13   0.05  -0.02     0.05  -0.03  -0.02     0.04  -0.03  -0.03
     4   6    -0.09   0.01   0.08     0.05  -0.03   0.02    -0.12  -0.02  -0.16
     5   6    -0.07   0.11   0.00     0.04   0.23   0.07    -0.19   0.04   0.04
     6   6    -0.02  -0.02  -0.07     0.02   0.01   0.02    -0.08   0.02  -0.02
     7   6    -0.01  -0.03  -0.03     0.01  -0.09  -0.00    -0.03  -0.00  -0.10
     8   6     0.05   0.11   0.06    -0.05   0.19   0.06     0.12   0.05   0.00
     9   6     0.09   0.01   0.01    -0.06   0.01  -0.01     0.23   0.02   0.04
    10   6     0.00  -0.05   0.03     0.03  -0.08  -0.05    -0.08  -0.06   0.06
    11   6    -0.01  -0.03  -0.01     0.03   0.03  -0.02    -0.11  -0.03   0.12
    12   6     0.03  -0.06   0.00    -0.04  -0.05   0.01     0.04  -0.02  -0.01
    13   6     0.03  -0.07  -0.04    -0.08   0.01   0.00     0.07   0.05   0.03
    14   6    -0.04  -0.12   0.04     0.02   0.06  -0.02     0.06   0.07  -0.01
    15   1     0.01   0.38   0.02    -0.02  -0.10  -0.01     0.17  -0.25  -0.11
    16   1    -0.30   0.04  -0.34     0.12  -0.04   0.06     0.17  -0.05   0.09
    17   1    -0.14  -0.03   0.08     0.06  -0.05   0.01    -0.11  -0.05  -0.16
    18   1     0.00  -0.16  -0.10     0.00  -0.29  -0.10     0.06  -0.07   0.05
    19   1    -0.06  -0.19  -0.05     0.07  -0.45  -0.13    -0.11  -0.11  -0.09
    20   1     0.06  -0.04  -0.02    -0.15  -0.07  -0.05     0.17  -0.01   0.04
    21   1     0.23  -0.03   0.00     0.15  -0.06  -0.01     0.27  -0.00   0.05
    22   1     0.02  -0.04  -0.02    -0.16  -0.08  -0.04     0.24  -0.01   0.05
    23   1    -0.01  -0.19  -0.03     0.09  -0.44  -0.13    -0.24  -0.12  -0.08
    24   1     0.05  -0.15  -0.07     0.03  -0.27  -0.10    -0.06  -0.08   0.09
    25   1     0.08   0.07  -0.11    -0.08  -0.08   0.01     0.03  -0.06   0.04
    26   1     0.05  -0.19  -0.05    -0.09  -0.08   0.01     0.11   0.12   0.02
    27   1     0.07   0.02  -0.03    -0.09  -0.02   0.00     0.13   0.12   0.04
    28   1     0.02  -0.08  -0.14    -0.11   0.03   0.05    -0.03   0.08  -0.04
    29   1     0.11  -0.13   0.02     0.01   0.09  -0.01    -0.24   0.00  -0.01
    30   1    -0.07  -0.27   0.14     0.02   0.17   0.00     0.13   0.19  -0.27
                     19                     20                     21
                      A                      A                      A
 Frequencies --    641.5757               660.2376               734.3140
 Red. masses --      4.0176                 6.0012                 3.3662
 Frc consts  --      0.9743                 1.5413                 1.0694
 IR Inten    --      1.9996                 0.5850                 1.6319
  Atom  AN      X      Y      Z        X      Y      Z        X      Y      Z
     1   8    -0.07   0.12  -0.10    -0.03   0.04  -0.04     0.01  -0.02   0.00
     2   6    -0.10   0.15   0.30    -0.04   0.06   0.12     0.03  -0.01   0.02
     3   6     0.03   0.02   0.04     0.02  -0.02  -0.02    -0.04  -0.01  -0.02
     4   6    -0.01  -0.05  -0.14    -0.01  -0.02  -0.08    -0.04   0.02  -0.02
     5   6     0.04   0.00   0.05     0.02   0.03  -0.09    -0.03   0.24   0.07
     6   6    -0.02  -0.01   0.10     0.29   0.07  -0.12     0.04  -0.12  -0.04
     7   6    -0.01  -0.01  -0.03     0.25  -0.05   0.21     0.02   0.16   0.05
     8   6    -0.03   0.03  -0.03    -0.02  -0.02   0.09     0.02  -0.19  -0.06
     9   6    -0.09  -0.00  -0.02    -0.03  -0.01   0.04    -0.04  -0.04  -0.02
    10   6     0.11   0.01  -0.07    -0.26  -0.07   0.14     0.01   0.16   0.05
    11   6     0.11   0.00   0.07    -0.22   0.05  -0.19     0.03  -0.13  -0.02
    12   6     0.01  -0.07  -0.04     0.01   0.01  -0.03     0.00  -0.05   0.00
    13   6     0.02  -0.11  -0.09     0.01  -0.03  -0.04    -0.02  -0.00  -0.00
    14   6     0.00  -0.04   0.01     0.00  -0.01   0.01     0.04   0.04  -0.00
    15   1     0.36  -0.04  -0.05     0.18  -0.09  -0.07     0.00  -0.06  -0.04
    16   1     0.08  -0.01  -0.03     0.07  -0.03  -0.01    -0.04  -0.00   0.01
    17   1     0.05  -0.03  -0.15     0.02  -0.01  -0.09    -0.04  -0.02  -0.03
    18   1     0.02  -0.07   0.10     0.21   0.05  -0.19     0.08  -0.49  -0.14
    19   1     0.09  -0.06  -0.09     0.18  -0.10   0.23     0.02   0.16   0.05
    20   1    -0.10  -0.01  -0.03    -0.11  -0.02   0.07     0.09   0.09   0.05
    21   1    -0.08  -0.00  -0.02    -0.03  -0.03   0.07    -0.34   0.06  -0.02
    22   1    -0.10  -0.00  -0.03     0.02  -0.04   0.08     0.09   0.10   0.03
    23   1     0.12  -0.05  -0.08    -0.17  -0.11   0.19     0.01   0.17   0.06
    24   1     0.06  -0.06   0.07    -0.13   0.05  -0.24     0.07  -0.49  -0.14
    25   1     0.14  -0.25   0.25     0.07  -0.09   0.13     0.02  -0.05   0.02
    26   1    -0.16   0.22   0.09    -0.07   0.18   0.04    -0.02  -0.02   0.02
    27   1    -0.06  -0.28  -0.11    -0.06  -0.14  -0.05    -0.01   0.00  -0.00
    28   1     0.02  -0.08   0.13     0.05  -0.03   0.10    -0.09   0.03   0.01
    29   1    -0.07  -0.32  -0.07    -0.04  -0.14  -0.03    -0.01   0.02  -0.01
    30   1     0.02  -0.07  -0.05     0.01  -0.02  -0.02     0.05   0.10  -0.03
                     22                     23                     24
                      A                      A                      A
 Frequencies --    760.1416               771.9716               819.3050
 Red. masses --      1.9347                 3.9058                 2.2576
 Frc consts  --      0.6587                 1.3714                 0.8929
 IR Inten    --      3.3320                 0.9190                 8.8873
  Atom  AN      X      Y      Z        X      Y      Z        X      Y      Z
     1   8     0.00  -0.03  -0.01    -0.07   0.07  -0.01    -0.03   0.02   0.00
     2   6    -0.05  -0.05   0.07    -0.02   0.08  -0.05    -0.03   0.01  -0.04
     3   6    -0.03  -0.12   0.02     0.21   0.03  -0.00     0.11  -0.03   0.03
     4   6     0.07  -0.06   0.06     0.19  -0.01   0.06    -0.00  -0.04   0.03
     5   6     0.02   0.01   0.01     0.07   0.06   0.03    -0.05  -0.07  -0.03
     6   6    -0.05  -0.01   0.00    -0.11  -0.03   0.04     0.04   0.10  -0.08
     7   6    -0.05   0.00  -0.00    -0.11   0.03   0.03     0.01   0.08  -0.08
     8   6     0.00  -0.01  -0.00    -0.00  -0.06  -0.01     0.03  -0.03  -0.00
     9   6     0.07   0.00   0.01     0.18   0.00   0.02    -0.09  -0.02  -0.02
    10   6    -0.03   0.01  -0.01    -0.09   0.04  -0.03     0.00   0.02   0.10
    11   6    -0.03   0.00  -0.03    -0.09   0.01  -0.10     0.02   0.02   0.13
    12   6     0.03   0.05  -0.03     0.03   0.02  -0.00    -0.01   0.08   0.01
    13   6     0.03   0.10  -0.03    -0.05  -0.08  -0.03     0.03   0.03   0.01
    14   6     0.01   0.10  -0.06    -0.14  -0.13   0.07    -0.06  -0.05  -0.02
    15   1     0.13   0.24   0.05     0.06  -0.07   0.01     0.16   0.09   0.04
    16   1    -0.18  -0.13  -0.31     0.39   0.00   0.12     0.16  -0.08  -0.12
    17   1     0.07   0.00   0.08     0.23  -0.01   0.05    -0.04  -0.02   0.04
    18   1    -0.09  -0.03  -0.04    -0.21  -0.19  -0.10     0.16  -0.31  -0.14
    19   1    -0.07  -0.00   0.01    -0.14  -0.06   0.02    -0.03  -0.36  -0.19
    20   1     0.09   0.01   0.01     0.24   0.04   0.03    -0.04   0.05   0.03
    21   1     0.06   0.01   0.00     0.11   0.03   0.02    -0.26   0.03  -0.02
    22   1     0.07   0.01   0.01     0.22   0.04   0.03    -0.04   0.06  -0.00
    23   1    -0.03   0.01  -0.02    -0.09  -0.02  -0.06    -0.03  -0.38  -0.06
    24   1    -0.06  -0.03  -0.03    -0.19  -0.18  -0.10     0.15  -0.32  -0.02
    25   1     0.00  -0.07   0.08     0.04   0.02   0.01    -0.08   0.13  -0.09
    26   1    -0.15   0.08   0.02    -0.05  -0.05  -0.01     0.05  -0.02  -0.04
    27   1    -0.17  -0.37  -0.10    -0.07   0.04  -0.00     0.03  -0.04  -0.01
    28   1     0.15   0.14   0.49     0.12  -0.18  -0.19     0.18  -0.02   0.04
    29   1     0.30   0.00  -0.11    -0.15  -0.12   0.07     0.12  -0.01  -0.02
    30   1    -0.05  -0.02   0.18    -0.15  -0.14   0.07    -0.10  -0.18   0.10
                     25                     26                     27
                      A                      A                      A
 Frequencies --    839.6998               854.9788               870.3602
 Red. masses --      2.1402                 1.2499                 1.6760
 Frc consts  --      0.8891                 0.5383                 0.7481
 IR Inten    --     16.1262                 0.0621                 0.2382
  Atom  AN      X      Y      Z        X      Y      Z        X      Y      Z
     1   8    -0.03   0.01  -0.00    -0.00  -0.00  -0.00    -0.01  -0.00  -0.01
     2   6    -0.01   0.02  -0.01    -0.00  -0.00   0.00    -0.03  -0.01   0.03
     3   6     0.09  -0.04  -0.01     0.00  -0.00  -0.00     0.08  -0.01   0.01
     4   6     0.04   0.00   0.03    -0.00   0.00   0.00    -0.08   0.02  -0.06
     5   6    -0.04   0.12   0.03    -0.00   0.00   0.00    -0.01   0.03   0.00
     6   6     0.04  -0.05  -0.12    -0.00   0.07   0.02    -0.00  -0.03   0.06
     7   6     0.00  -0.03  -0.11    -0.00   0.07   0.02     0.02  -0.03   0.06
     8   6     0.02   0.03   0.01    -0.00   0.00  -0.00    -0.01   0.00  -0.01
     9   6    -0.07   0.01  -0.00    -0.00   0.00  -0.00     0.02   0.00   0.00
    10   6    -0.01  -0.08   0.07     0.01  -0.07  -0.02     0.02   0.01  -0.05
    11   6     0.02  -0.09   0.07     0.01  -0.08  -0.02     0.00   0.00  -0.04
    12   6     0.04  -0.00   0.01    -0.00   0.00   0.00    -0.03   0.03   0.10
    13   6    -0.03  -0.01  -0.03    -0.00   0.00   0.00    -0.00   0.02   0.04
    14   6    -0.07   0.00   0.01    -0.00  -0.00  -0.00    -0.04  -0.01  -0.11
    15   1     0.12   0.02  -0.00     0.02  -0.02  -0.01     0.31  -0.09  -0.06
    16   1     0.15  -0.08  -0.08    -0.00   0.00   0.01     0.04  -0.00   0.00
    17   1     0.04  -0.00   0.03    -0.00  -0.03  -0.01    -0.15  -0.11  -0.09
    18   1     0.08   0.38   0.06     0.03  -0.46  -0.14    -0.02   0.03   0.08
    19   1    -0.10   0.49   0.08     0.03  -0.43  -0.13     0.08   0.09   0.07
    20   1    -0.15  -0.06  -0.05    -0.01  -0.00   0.00    -0.00  -0.01  -0.00
    21   1     0.09  -0.04  -0.00     0.01  -0.01   0.01     0.05  -0.01   0.01
    22   1    -0.16  -0.07  -0.03     0.00  -0.01   0.00     0.03  -0.01   0.01
    23   1    -0.10   0.40   0.18    -0.03   0.49   0.15     0.05   0.06  -0.02
    24   1     0.07   0.29   0.16    -0.03   0.50   0.15    -0.03   0.01  -0.02
    25   1     0.05   0.01   0.01    -0.00   0.02  -0.01    -0.25   0.23  -0.28
    26   1     0.02  -0.02   0.01    -0.00  -0.02  -0.00     0.33  -0.24  -0.07
    27   1    -0.03  -0.07  -0.04     0.01  -0.01  -0.00     0.30  -0.04  -0.03
    28   1     0.04  -0.03   0.01     0.00   0.00   0.00    -0.06   0.03  -0.03
    29   1     0.07  -0.01  -0.01     0.01  -0.00  -0.00     0.38  -0.03  -0.14
    30   1    -0.11  -0.01   0.14    -0.00  -0.00   0.01    -0.14  -0.17   0.27
                     28                     29                     30
                      A                      A                      A
 Frequencies --    880.7267               897.7794               922.1162
 Red. masses --      2.0830                 1.8456                 2.5441
 Frc consts  --      0.9520                 0.8764                 1.2745
 IR Inten    --      0.7069                 6.1130                 3.5549
  Atom  AN      X      Y      Z        X      Y      Z        X      Y      Z
     1   8     0.00  -0.02   0.02     0.03  -0.03  -0.01     0.02   0.02   0.00
     2   6    -0.02  -0.05  -0.05     0.01  -0.01   0.09    -0.05  -0.03  -0.01
     3   6     0.02   0.03   0.12    -0.07   0.09  -0.08    -0.01   0.11   0.08
     4   6     0.04   0.06  -0.11     0.10   0.03   0.01     0.14  -0.00  -0.09
     5   6     0.01  -0.03  -0.02     0.03  -0.05  -0.01     0.04   0.03   0.01
     6   6    -0.00   0.01   0.01    -0.00   0.02  -0.04     0.00   0.01  -0.03
     7   6     0.00   0.01   0.00    -0.03   0.03  -0.05    -0.02   0.00  -0.05
     8   6     0.00  -0.00  -0.01     0.01  -0.00   0.00     0.01  -0.00  -0.00
     9   6     0.00  -0.00  -0.00    -0.01  -0.01  -0.00    -0.00   0.01  -0.00
    10   6    -0.03   0.00   0.02    -0.04  -0.00   0.05    -0.05  -0.03   0.05
    11   6    -0.01   0.00   0.02    -0.01   0.00   0.03    -0.01  -0.01   0.03
    12   6     0.13  -0.12  -0.02     0.05  -0.03   0.08    -0.12  -0.09  -0.01
    13   6    -0.06  -0.05   0.00    -0.05  -0.01  -0.06     0.02   0.11   0.12
    14   6    -0.10   0.10  -0.02    -0.03   0.05  -0.01     0.08  -0.11  -0.09
    15   1     0.20   0.25   0.12    -0.18  -0.34  -0.14     0.07   0.04   0.05
    16   1    -0.23   0.07  -0.09    -0.13   0.20   0.39    -0.20   0.20   0.18
    17   1     0.01   0.23  -0.05     0.20  -0.23  -0.08     0.22   0.03  -0.10
    18   1     0.02  -0.05   0.01     0.00   0.01  -0.05    -0.00  -0.02  -0.05
    19   1     0.02  -0.11  -0.04    -0.07  -0.09  -0.07    -0.07   0.11  -0.00
    20   1    -0.01   0.01   0.01     0.01   0.01   0.01    -0.03  -0.01  -0.00
    21   1    -0.03   0.00   0.01    -0.05   0.01  -0.01     0.03  -0.01   0.01
    22   1     0.04   0.01   0.02    -0.00   0.02  -0.00    -0.01  -0.02   0.00
    23   1    -0.05  -0.08  -0.03    -0.06  -0.14  -0.02    -0.10   0.09   0.05
    24   1    -0.01  -0.03   0.02     0.00  -0.02   0.02    -0.00  -0.04   0.02
    25   1     0.18  -0.27   0.18     0.01   0.15  -0.15    -0.44  -0.34   0.01
    26   1     0.18   0.21   0.07     0.14  -0.30  -0.03    -0.12  -0.03   0.00
    27   1     0.10   0.13   0.01     0.06  -0.22  -0.13    -0.00   0.07   0.11
    28   1    -0.29   0.00  -0.21    -0.09   0.03   0.13    -0.07   0.14   0.14
    29   1     0.22   0.31   0.03     0.12  -0.21  -0.10     0.07  -0.06  -0.08
    30   1    -0.17   0.06   0.28    -0.07   0.21   0.20     0.09  -0.44  -0.20
                     31                     32                     33
                      A                      A                      A
 Frequencies --    960.3915               962.4097               990.8954
 Red. masses --      1.3423                 1.2979                 2.5317
 Frc consts  --      0.7294                 0.7083                 1.4646
 IR Inten    --      0.0139                 0.3181                 7.9455
  Atom  AN      X      Y      Z        X      Y      Z        X      Y      Z
     1   8     0.00  -0.00  -0.00    -0.00   0.01  -0.00     0.03  -0.03   0.03
     2   6     0.00   0.00   0.00    -0.01   0.00   0.00     0.03  -0.03  -0.09
     3   6    -0.00   0.00  -0.00     0.01  -0.02  -0.01     0.04   0.16   0.04
     4   6     0.00  -0.00  -0.00     0.01   0.02   0.00    -0.09  -0.06  -0.04
     5   6     0.00  -0.01  -0.00     0.00   0.03   0.01    -0.07   0.02  -0.02
     6   6     0.00  -0.07  -0.02     0.01  -0.09  -0.03    -0.00  -0.02   0.02
     7   6    -0.00   0.07   0.02    -0.01   0.08   0.02     0.03  -0.01   0.07
     8   6    -0.00  -0.00  -0.00     0.00   0.00   0.00    -0.00   0.01  -0.01
     9   6    -0.00   0.00  -0.00     0.00  -0.02  -0.01    -0.00   0.00  -0.02
    10   6     0.01  -0.09  -0.03    -0.01   0.05   0.02     0.04   0.02  -0.03
    11   6    -0.01   0.09   0.03     0.00  -0.06  -0.02     0.01  -0.02   0.01
    12   6     0.00   0.00   0.00    -0.02  -0.01   0.00     0.06  -0.09  -0.04
    13   6    -0.00  -0.00  -0.00    -0.01   0.01   0.01     0.08   0.14  -0.05
    14   6    -0.00   0.00   0.00     0.02  -0.01  -0.01    -0.14  -0.02   0.06
    15   1    -0.02   0.00   0.00     0.03   0.01  -0.00    -0.14  -0.07   0.03
    16   1     0.00   0.00   0.00     0.02  -0.03  -0.04     0.18   0.15   0.23
    17   1    -0.00   0.01   0.00     0.01   0.03   0.01    -0.23  -0.18  -0.05
    18   1    -0.03   0.37   0.11    -0.04   0.55   0.17    -0.01   0.07   0.05
    19   1     0.03  -0.41  -0.13     0.03  -0.51  -0.16     0.08  -0.05   0.04
    20   1    -0.02  -0.01  -0.00     0.05   0.05   0.03    -0.09   0.00   0.02
    21   1     0.02  -0.01   0.01    -0.12   0.02  -0.01    -0.02  -0.01   0.04
    22   1    -0.00  -0.01   0.00     0.05   0.05   0.01     0.09  -0.01   0.04
    23   1    -0.04   0.54   0.16     0.02  -0.35  -0.11     0.04  -0.02  -0.05
    24   1     0.04  -0.53  -0.16    -0.03   0.41   0.13     0.02   0.07   0.02
    25   1    -0.00   0.00  -0.00    -0.04  -0.02   0.00     0.08  -0.21   0.10
    26   1     0.02   0.01  -0.00     0.00   0.01   0.00    -0.22  -0.05   0.03
    27   1     0.01  -0.01  -0.00    -0.00   0.02   0.02    -0.19  -0.29  -0.09
    28   1     0.00  -0.00   0.00    -0.04   0.02   0.00     0.34   0.11   0.38
    29   1     0.00  -0.01  -0.00    -0.00  -0.01  -0.01    -0.01  -0.15   0.01
    30   1    -0.00   0.01   0.01     0.02  -0.05  -0.04    -0.16  -0.10   0.11
                     34                     35                     36
                      A                      A                      A
 Frequencies --   1019.2381              1040.2251              1046.2667
 Red. masses --      1.4232                 2.8508                 1.8959
 Frc consts  --      0.8711                 1.8175                 1.2228
 IR Inten    --      0.1219                 3.7936                 4.8988
  Atom  AN      X      Y      Z        X      Y      Z        X      Y      Z
     1   8     0.00  -0.01   0.00    -0.00   0.01  -0.00    -0.00  -0.01   0.00
     2   6     0.00  -0.00  -0.00    -0.02  -0.00   0.01     0.03   0.01   0.01
     3   6     0.01   0.02   0.00     0.02  -0.02  -0.02    -0.06   0.04   0.06
     4   6    -0.01  -0.01  -0.01     0.02   0.04   0.03     0.05  -0.11  -0.06
     5   6    -0.01  -0.01   0.03    -0.03  -0.02  -0.00     0.01   0.03   0.02
     6   6     0.04   0.01  -0.01     0.04   0.07  -0.18     0.01   0.00  -0.05
     7   6     0.01   0.02  -0.05     0.00  -0.06   0.19    -0.01  -0.01   0.03
     8   6    -0.01  -0.02   0.05    -0.04   0.01  -0.00    -0.01   0.00  -0.00
     9   6    -0.02  -0.04   0.14     0.02  -0.01  -0.00     0.01   0.00   0.00
    10   6     0.01   0.02  -0.07     0.05   0.05  -0.18    -0.00   0.01  -0.03
    11   6    -0.03   0.00  -0.03     0.01  -0.05   0.19     0.00  -0.02   0.03
    12   6     0.00  -0.01  -0.01     0.02  -0.02   0.01    -0.11   0.06  -0.02
    13   6     0.01   0.01   0.00    -0.04   0.01   0.01     0.11  -0.09  -0.02
    14   6    -0.02   0.00  -0.00     0.02  -0.02  -0.02    -0.04   0.07   0.03
    15   1     0.02  -0.03  -0.01     0.02  -0.03  -0.03    -0.01   0.07   0.06
    16   1     0.02   0.02   0.03     0.02  -0.02  -0.00    -0.18   0.07   0.02
    17   1     0.02  -0.00  -0.01     0.08   0.07   0.02     0.11  -0.16  -0.08
    18   1     0.15  -0.00   0.06    -0.22   0.07  -0.38    -0.07   0.09  -0.07
    19   1     0.03   0.00  -0.07    -0.29  -0.09   0.31    -0.07  -0.03   0.05
    20   1     0.63   0.02  -0.10     0.06   0.03   0.02     0.00  -0.00   0.00
    21   1     0.04   0.08  -0.26    -0.04   0.01   0.00     0.01  -0.00   0.00
    22   1    -0.60   0.08  -0.22     0.08   0.03   0.02     0.01  -0.00   0.00
    23   1     0.01   0.04  -0.07    -0.20   0.12  -0.35    -0.06   0.01  -0.07
    24   1    -0.15  -0.01   0.02    -0.27  -0.13   0.29    -0.06   0.04   0.08
    25   1     0.01  -0.04   0.02     0.07   0.01   0.02    -0.30  -0.04  -0.07
    26   1     0.00   0.03   0.00     0.03   0.01   0.02    -0.07  -0.02  -0.05
    27   1     0.00  -0.01   0.00    -0.05   0.03   0.02     0.26   0.01  -0.03
    28   1     0.01   0.01   0.02    -0.18   0.07   0.04     0.50  -0.28  -0.27
    29   1     0.02   0.01  -0.00     0.00  -0.06  -0.03     0.04   0.29   0.10
    30   1    -0.02  -0.03   0.02     0.03  -0.08  -0.05    -0.06   0.28   0.17
                     37                     38                     39
                      A                      A                      A
 Frequencies --   1075.4153              1075.7726              1089.9395
 Red. masses --      1.1900                 1.5188                 2.8477
 Frc consts  --      0.8108                 1.0356                 1.9932
 IR Inten    --      9.9126                12.5780                 3.2709
  Atom  AN      X      Y      Z        X      Y      Z        X      Y      Z
[...]
 000004,0.00001375,0.00002115,0.00005762,-0.00001019,-0.00007873,0.0000
 2925,0.00001955,-0.00001364,-0.00048210,-0.00027336,-0.00024296,0.0004
 6437,0.00040362,0.00100720,0.00044835,-0.00018117,-0.00036266,-0.00020
 641,-0.00039470,-0.00007406,-0.00004214,-0.00008468,-0.00004126,0.0000
 2587,0.00001235,0.00002937,0.00196377,-0.00018157,-0.00070537,0.049453
 93,0.06564570,0.00011700,0.00001574,0.00006110,0.00000303,-0.00006144,
 -0.00012838,0.00028516,0.00049442,0.00006776,0.00006015,-0.00292671,-0
 .00061985,-0.01522002,-0.00696510,-0.01641751,-0.00076783,0.00513929,-
 0.00176558,0.00060283,0.00066206,0.00016414,-0.00141595,0.00162214,0.0
 0282080,0.00000463,0.00012890,0.00004235,0.00127602,0.00116663,0.00303
 964,-0.13100953,-0.04114092,-0.22852709,0.00002791,0.00005649,0.000372
 19,0.00002141,0.00001235,0.00000730,-0.00000856,-0.00001940,0.00000433
 ,-0.00010540,-0.00008806,0.00020381,0.00004907,-0.00000598,-0.00009179
 ,0.00087098,0.00102461,0.00074747,-0.00100627,-0.00034629,-0.00089180,
 0.00029471,-0.00034142,-0.00021762,-0.00000376,-0.00006374,-0.00001973
 ,-0.00004487,-0.00003901,-0.00003445,-0.00000326,-0.00002165,-0.000010
 40,0.00134849,-0.00123138,0.00012876,0.14452804,0.04312100,0.24095904,
 -0.00046154,-0.00002296,-0.00003447,0.00111698,0.00004137,-0.00031669,
 -0.00139806,0.00326952,-0.00136290,-0.01281792,0.00103165,0.01409178,0
 .00020400,-0.00114512,-0.00044914,0.00037211,0.00022852,-0.00003490,-0
 .00014898,-0.00012610,0.00017876,-0.00005080,0.00006235,-0.00011903,0.
 00002002,-0.00001861,-0.00001411,0.00001378,0.00014367,-0.00002613,0.0
 0027358,0.00006481,-0.00009342,-0.16522342,-0.00067444,0.12837229,-0.0
 1249269,-0.00015559,0.01353511,-0.00109085,-0.00337536,-0.00151701,0.0
 0014584,0.00001570,0.00012599,-0.00065507,-0.00007528,0.00092475,0.000
 27177,-0.00064456,-0.00021947,0.00005179,0.00000053,-0.00002111,0.0000
 0361,0.00001005,-0.00000338,-0.00000030,0.00000077,0.00000148,-0.00000
 440,-0.00001332,0.00000140,-0.00000069,0.00000472,-0.00000108,0.000004
 30,0.00002469,0.00000550,-0.00005383,0.00002721,-0.00003887,0.17914429
 ,-0.00001246,0.00094717,-0.00000938,-0.00004013,-0.00227247,0.00001384
 ,0.00334483,-0.00474813,0.00150668,0.01828706,-0.00157996,-0.02176799,
 0.00081505,0.00154754,-0.00075120,-0.00038979,-0.00004377,-0.00017625,
 -0.00001167,0.00007605,-0.00008273,0.00004770,-0.00005984,0.00005396,-
 0.00002214,0.00000165,0.00001735,-0.00004865,-0.00011499,0.00005375,-0
 .00012006,0.00009788,0.00031215,-0.00121140,-0.04739423,0.00115076,-0.
 01904464,-0.00005163,0.02223945,-0.00318065,-0.00464882,-0.00172917,-0
 .00036548,0.00001598,0.00019770,0.00144776,0.00026074,-0.00127804,-0.0
 0070815,0.00104900,0.00038149,0.00008291,0.00000795,0.00006299,0.00000
 362,-0.00001239,0.00000463,0.00001066,0.00000528,-0.00000130,0.0000100
 8,0.00002699,0.00000143,0.00000807,0.00000126,-0.00000344,0.00000378,-
 0.00000037,-0.00001183,0.00006337,-0.00003158,-0.00000278,0.00070822,0
 .05511303,0.00006115,0.00003567,-0.00006286,-0.00026536,-0.00007427,0.
 00000330,-0.00025844,0.00005192,0.00099874,-0.00260693,0.00013119,0.00
 173229,0.00009725,0.00035435,0.00042211,-0.00034792,0.00005437,-0.0003
 8804,-0.00004893,-0.00011525,0.00014074,-0.00006501,-0.00004615,-0.000
 08318,0.00000013,-0.00000378,0.00001220,0.00005791,0.00004062,0.000050
 86,-0.00016390,-0.00037047,0.00018593,0.12893870,0.00054569,-0.1948976
 3,-0.00322837,-0.00017941,0.00219376,-0.00050878,0.00005313,0.00102000
 ,-0.00019046,0.00013796,0.00040501,0.00009488,0.00012071,0.00020144,0.
 00012092,-0.00045324,0.00076877,0.00013562,-0.00000244,0.00011039,0.00
 000837,-0.00001382,-0.00001861,-0.00000237,-0.00000581,-0.00000774,-0.
 00000273,0.00000425,0.00000221,-0.00000120,-0.00001008,0.00000419,-0.0
 0000586,-0.00001178,0.00000555,-0.00000512,-0.00000215,-0.00003823,-0.
 14108772,-0.00099999,0.20721541,0.00021429,0.00000176,-0.00005496,-0.0
 0045125,0.00000364,0.00002129,0.00083145,-0.00072845,-0.00123861,-0.01
 085914,0.00107067,-0.01722153,-0.00008623,-0.00081741,0.00074469,-0.00
 001531,-0.00019681,-0.00060134,0.00020448,0.00007635,0.00019339,0.0000
 3599,-0.00006024,0.00014936,-0.00001322,0.00000773,0.00004138,-0.00004
 846,-0.00016698,-0.00001353,0.00019092,0.00023193,-0.00021791,-0.11421
 099,-0.00013567,-0.10745457,-0.01017001,-0.00076515,-0.01645504,0.0005
 9820,0.00072196,-0.00112941,-0.00012894,0.00024037,0.00074374,0.000299
 37,0.00001070,0.00027357,-0.00170238,0.00323095,-0.00014007,0.00020405
 ,-0.00021117,0.00033377,0.00003390,0.00001775,-0.00001357,0.00000311,0
 .00000209,-0.00000136,0.00000476,0.00001126,-0.00000466,-0.00000227,-0
 .00000914,-0.00000079,-0.00001143,0.00002134,0.00000268,-0.00002080,-0
 .00003181,0.00012409,0.01226765,-0.00005282,0.01909725,0.12328428,0.00
 004060,0.00021923,0.00000616,-0.00004476,-0.00057803,-0.00000734,-0.00
 128084,0.00132221,0.00046186,0.01527252,-0.00160254,0.02547853,0.00033
 420,0.00195380,0.00016630,0.00014916,-0.00036360,0.00055085,-0.0004462
 8,-0.00027573,-0.00009441,-0.00012972,0.00011445,-0.00035723,0.0000084
 3,-0.00001394,-0.00006421,0.00024386,0.00033820,0.00004040,-0.00033286
 ,-0.00046648,0.00043228,-0.00049295,-0.04754378,-0.00102983,-0.0155865
 9,-0.00157195,-0.02613306,0.00103173,0.00108957,-0.00055157,0.00001363
 ,0.00010300,-0.00067051,-0.00035766,-0.00003940,-0.00009803,0.00362589
 ,-0.00470633,0.00007040,-0.00003757,-0.00090814,-0.00086342,0.00001009
 ,-0.00004154,0.00000322,0.00000171,-0.00000448,0.00000030,-0.00000140,
 -0.00000226,0.00001138,0.00000808,0.00001921,-0.00000058,0.00001016,-0
 .00000532,-0.00000777,-0.00003560,0.00007413,-0.00020788,-0.00004744,-
 0.00029703,0.00008465,0.00082884,0.05661266,-0.00010986,0.00005423,-0.
 00010035,0.00016981,-0.00008009,0.00013556,0.00045890,-0.00004054,0.00
 081793,-0.00099606,0.00076349,-0.00301034,-0.00071145,-0.00060584,0.00
 024678,0.00022237,-0.00034040,-0.00068370,0.00036069,0.00013777,0.0001
 2538,0.00001860,-0.00002373,0.00020184,-0.00001232,0.00001093,0.000042
 50,-0.00010096,-0.00020696,-0.00000427,0.00008966,0.00035659,-0.000124
 04,-0.10733806,-0.00049930,-0.23710907,-0.00049471,-0.00055582,-0.0021
 6541,0.00035826,0.00028863,0.00082184,-0.00038802,0.00002470,0.0005320
 1,-0.00004112,0.00005156,0.00020939,-0.00004733,0.00047540,0.00143910,
 -0.00014276,-0.00053443,0.00056606,0.00003566,0.00002513,-0.00000456,0
 .00000876,0.00001103,0.00000036,0.00000668,0.00000653,-0.00000613,-0.0
 0000089,-0.00001226,0.00000376,0.00001505,0.00000923,0.00000111,0.0000
 5112,-0.00002925,0.00010576,-0.01253075,-0.00009486,-0.02135075,0.1213
 3177,0.00196499,0.25684025,-0.00016967,-0.00023666,-0.00034826,0.00175
 024,-0.00081312,0.00052189,0.00001232,0.00006429,0.00020147,0.00020126
 ,0.00122993,0.00022770,0.00002136,0.00006497,0.00030205,0.00001376,0.0
 0002605,-0.00015722,0.00009599,0.00001133,0.00004744,-0.00000105,-0.00
 000293,0.00003996,0.00001045,0.00000309,0.00000560,-0.00004104,-0.0000
 3551,0.00001207,-0.00003526,-0.00000581,-0.00006486,-0.01041992,-0.001
 60543,-0.01813644,-0.09999233,-0.00211135,-0.10163568,0.00989361,0.001
 08706,0.02341116,-0.00009756,0.00000969,0.00001288,0.00006499,0.000041
 50,-0.00004475,0.00066879,-0.00042287,0.00033107,-0.00001330,0.0000221
 5,0.00014929,0.00000163,0.00000294,-0.00000670,-0.00000414,0.00000016,
 -0.00000198,-0.00000380,-0.00001098,-0.00000283,-0.00000482,-0.0000082
 2,0.00000538,-0.00000305,-0.00001386,0.00000801,0.00002182,-0.00001489
 ,0.00001339,0.00022862,0.00057451,0.00014514,-0.00139266,-0.00395537,0
 .00020651,0.10997651,-0.00013705,0.00015591,0.00016470,-0.00033015,-0.
 00029550,-0.00075510,0.00024006,-0.00010148,0.00017019,-0.00091542,0.0
 0181076,-0.00139886,-0.00008265,0.00005949,0.00033643,0.00000104,-0.00
 003155,-0.00019924,0.00014059,0.00002960,0.00004099,0.00001232,-0.0000
 1874,0.00006296,-0.00000342,0.00000377,0.00001680,-0.00003727,-0.00006
 348,0.00000567,0.00004441,0.00006339,-0.00006568,-0.01359195,-0.002546
 00,-0.02605795,-0.00167386,-0.05235650,-0.00864937,0.00009637,-0.00010
 129,0.00057751,-0.00005499,0.00008302,0.00016410,0.00005182,-0.0000081
 5,-0.00003101,0.00044695,-0.00041389,0.00066103,-0.00000979,0.00002880
 ,0.00018338,0.00000684,0.00001718,0.00000283,0.00000271,0.00000350,0.0
 0000028,0.00000170,0.00000239,-0.00000224,-0.00000092,-0.00000359,-0.0
 0000048,-0.00000221,0.00000622,0.00000131,0.00000273,-0.00003028,0.000
 03916,0.00064055,0.00112067,0.00045265,-0.00321658,-0.00452903,-0.0004
 8870,0.00670032,0.05424651,0.00131126,-0.00041147,0.00039734,-0.002186
 71,0.00171619,-0.00056228,0.00008875,-0.00037228,-0.00027402,0.0002108
 4,0.00047355,-0.00010022,0.00014684,-0.00012623,0.00036975,0.00005802,
 0.00013970,-0.00004883,0.00003869,0.00001351,0.00004559,0.00000196,0.0
 0000091,0.00001431,0.00000582,-0.00000075,0.00000014,-0.00001225,-0.00
 001187,0.00001566,-0.00005466,-0.00002395,-0.00006929,-0.00106508,-0.0
 0032401,-0.00097595,-0.10134012,-0.00864984,-0.25109994,-0.00805342,-0
 .00139819,-0.02176056,-0.00000042,0.00006567,0.00012946,-0.00001945,-0
 .00011926,-0.00001880,0.00034936,-0.00063751,0.00031337,0.00000157,0.0
 0001257,0.00002392,0.00001132,0.00000939,-0.00000224,-0.00000037,0.000
 00025,0.00000031,-0.00000204,-0.00000330,-0.00000175,-0.00000279,-0.00
 000257,0.00000265,-0.00000263,-0.00000720,0.00000327,0.00001027,-0.000
 01768,0.00002161,-0.00025810,-0.00040462,0.00076800,-0.00007162,0.0000
 5350,0.00147338,0.10846419,0.00934863,0.27518720,-0.00179205,0.0017924
 8,-0.00078212,-0.00080790,-0.00485570,0.00394886,0.00001091,0.00010000
 ,-0.00062162,-0.00248170,-0.00275453,-0.00039881,0.00099166,-0.0007450
 2,0.00006594,-0.00000063,0.00000539,0.00004967,-0.00004487,0.00001134,
 0.00003802,-0.00000895,-0.00001214,-0.00000481,0.00001534,-0.00000851,
 -0.00000984,-0.00008169,0.00004751,0.00006594,-0.00014524,-0.00017297,
 -0.00005531,0.01274267,-0.01754909,0.00184551,-0.13589744,0.12332815,-
 0.01510099,-0.01445803,0.01991097,0.00063491,-0.00001419,-0.00003708,-
 0.00001244,0.00008897,0.00008279,-0.00012594,-0.00000934,-0.00001104,0
 .00019111,0.00001448,-0.00000101,-0.00005450,-0.00000637,-0.00000446,-
 0.00000609,-0.00000501,-0.00000393,0.00000222,-0.00000657,-0.00001525,
 -0.00000157,-0.00000545,-0.00000177,-0.00000154,-0.00001072,-0.0000179
 6,0.00000717,0.00003768,-0.00001949,-0.00000568,0.00075969,0.00082048,
 0.00011593,0.00081031,0.00077155,0.00007072,-0.00882769,0.01189786,-0.
 00158407,0.14743241,-0.00010024,0.00011948,-0.00015593,-0.00040332,0.0
 0050814,0.00036579,-0.00039403,0.00066128,0.00009605,-0.00548483,-0.00
 320742,-0.00058572,0.00153872,-0.00073752,0.00016863,-0.00005137,-0.00
 019038,0.00015925,-0.00007489,0.00002763,0.00003806,-0.00000236,0.0000
 1069,0.00001888,0.00004777,-0.00000952,-0.00002230,-0.00011888,0.00001
 268,0.00009540,-0.00027469,-0.00032492,-0.00023284,0.01642156,-0.02241
 566,0.00267663,0.12244648,-0.21966156,0.01794780,-0.00114573,0.0024065
 5,-0.00002050,0.00002805,-0.00001903,-0.00004330,0.00010784,0.00004202
 ,-0.00004210,-0.00013016,0.00033744,0.00008426,0.00005673,0.00002255,-
 0.00005686,-0.00003770,-0.00004081,-0.00002757,-0.00002491,-0.00001324
 ,-0.00000650,-0.00001997,-0.00004453,-0.00000401,-0.00001476,-0.000015
 10,0.00001114,-0.00003359,-0.00006030,0.00002523,0.00006375,-0.0000008
 1,-0.00001317,-0.00005515,0.00081506,0.00052290,0.00016758,0.00107792,
 -0.00056142,-0.00100589,0.00169709,0.00063664,-0.13179182,0.23848426,0
 .00236262,-0.00189757,0.00099330,0.00179542,0.00389311,-0.00406114,-0.
 00031979,0.00010276,0.00039024,-0.00027131,-0.00016675,0.00017259,0.00
 000118,-0.00009317,0.00060208,0.00004170,0.00008648,0.00001270,0.00002
 837,0.00000135,0.00000583,0.00000629,-0.00000444,0.00000702,-0.0000033
 4,0.00000047,0.00000189,0.00000822,-0.00001945,0.00002141,-0.00007622,
 -0.00006382,-0.00005021,0.00093941,-0.00270889,-0.00076453,-0.01532171
 ,0.01889796,-0.05158784,0.01629005,-0.02252554,-0.00078952,0.00003333,
 0.00002494,0.00002039,-0.00004359,-0.00009099,0.00006844,0.00032593,-0
 .00033943,0.00035073,0.00000066,0.00000078,-0.00000968,0.00000637,0.00
 000509,0.00000066,0.00000053,0.00000057,0.00000010,0.00000143,0.000004
 66,0.00000032,0.00000086,0.00000191,-0.00000174,-0.00000319,-0.0000034
 2,-0.00000249,-0.00000190,-0.00001078,0.00000495,-0.00018655,0.0003126
 2,-0.00000759,0.00051988,-0.00007051,0.00025115,-0.01734645,0.02486379
 ,-0.00223613,0.01270407,-0.02024551,0.05450914,-0.00123619,0.00395996,
 0.00322995,-0.01171337,-0.00051465,-0.01765500,0.00030544,-0.00021472,
 0.00110246,-0.00010846,-0.00029256,0.00005377,-0.00004484,-0.00003797,
 0.00002760,0.00001445,0.00002120,-0.00000150,-0.00000847,-0.00000966,-
 0.00000437,-0.00000086,-0.00000142,-0.00000812,-0.00000522,-0.00000078
 ,0.00000143,0.00000899,0.00000250,0.00000289,0.00000594,0.00000102,0.0
 0000860,0.00154951,0.00048812,0.00010167,0.00982844,-0.00269950,0.0244
 6671,-0.09599260,0.00728445,-0.10733381,0.00059386,0.00036014,0.000273
 39,-0.00007555,-0.00007168,0.00034525,-0.00011715,0.00007267,-0.000009
 59,-0.00000044,-0.00000869,-0.00001390,0.00000531,0.00000213,0.0000020
 0,0.00000295,0.00000037,0.00000043,0.00000128,0.00000592,0.00000039,0.
 00000133,0.00000151,-0.00000108,0.00000075,0.00000319,-0.00000223,-0.0
 0000332,0.00000023,0.00000304,0.00015623,0.00041160,-0.00018064,-0.000
 19129,-0.00001202,-0.00046218,-0.00313993,-0.00047641,0.00399302,0.001
 58339,-0.00002277,-0.00091180,0.10709833,0.00266419,-0.00280353,-0.003
 57250,0.01268780,0.00170555,0.02851085,-0.00139740,-0.00038068,-0.0032
 7709,0.00038410,0.00020065,-0.00019562,0.00004064,-0.00000252,-0.00001
 925,-0.00000894,-0.00002706,0.00004715,-0.00001530,0.00001959,-0.00002
 442,0.00000407,-0.00000763,0.00000169,-0.00000547,-0.00000059,-0.00000
 134,0.00000420,0.00000522,0.00000007,0.00000249,0.00000120,0.00001293,
 0.00054833,0.00009265,0.00101757,-0.00088584,0.00037003,-0.00131656,0.
 00868020,-0.05373317,0.02343596,-0.00036360,-0.00158210,0.00004038,0.0
 0006720,0.00039971,-0.00041708,0.00001080,0.00010757,-0.00006385,-0.00
 000981,-0.00002246,-0.00002123,0.00000242,0.00000098,0.00000399,0.0000
 0269,0.00000070,0.00000136,0.00000214,0.00000661,0.00000127,0.00000246
 ,0.00000323,-0.00000299,0.00000208,0.00000506,-0.00000495,0.00000027,-
 0.00000237,-0.00000390,-0.00002444,0.00000667,-0.00013712,-0.00023052,
 0.00007499,-0.00006074,0.00047360,0.00101690,-0.00034826,-0.00053190,0
 .00017715,-0.00038018,-0.01122782,0.05079889,0.00065752,0.00059597,-0.
 00084205,-0.00065722,-0.00013529,0.00093622,-0.00063070,-0.00015035,-0
 .00062404,0.00041331,0.00004137,-0.00013382,-0.00002186,0.00003448,0.0
 0004045,-0.00000462,0.00005840,-0.00007176,0.00001247,-0.00000481,0.00
 002651,0.00000028,-0.00000045,-0.00000202,-0.00000029,0.00000012,0.000
 00317,0.00000187,-0.00000603,0.00000592,-0.00000174,0.00001170,-0.0000
 0059,-0.00144849,-0.00049726,0.00078540,-0.00965110,0.00183564,-0.0252
 7221,-0.10304571,0.01795469,-0.24021910,0.00028345,-0.00002219,0.00050
 749,0.00002999,0.00016194,0.00022673,0.00001667,-0.00017479,0.00013659
 ,0.00001555,0.00000098,0.00002577,0.00000450,0.00000715,0.00000165,0.0
 0000217,0.00000115,0.00000014,0.00000026,0.00000112,-0.00000079,-0.000
 00056,-0.00000167,0.00000173,0.00000123,-0.00000173,0.00000098,0.00000
 351,-0.00000835,0.00000897,0.00015893,-0.00023098,0.00041739,0.0007643
 4,0.00074074,0.00051093,0.00453988,0.00020966,-0.00249281,-0.00041224,
 -0.00043698,0.00140290,0.11022166,-0.01980449,0.26719895,0.00185859,-0
 .00136960,-0.00009666,0.01163769,0.01598726,0.00256951,-0.00216312,0.0
 0275264,-0.00041815,-0.00031290,0.00022650,0.00009486,0.00017980,-0.00
 002586,-0.00004037,0.00001800,-0.00003590,-0.00002237,0.00001139,-0.00
 000098,0.00001649,-0.00000133,0.00001066,0.00000852,0.00001135,0.00000
 082,-0.00000229,-0.00002246,0.00000066,0.00000254,-0.00000604,-0.00003
 301,-0.00003770,-0.00225040,0.00173993,0.00430736,-0.01253621,-0.01692
 434,-0.00402052,-0.15351486,-0.13218332,-0.01943870,-0.00006991,-0.000
 07901,0.00004087,0.00058779,0.00089986,-0.00007839,0.00006401,-0.00006
 601,-0.00001899,-0.00000299,0.00002047,0.00002781,-0.00000855,-0.00000
 413,-0.00000581,-0.00000549,-0.00000134,-0.00000106,-0.00000396,-0.000
 01422,-0.00000239,-0.00000420,-0.00000367,0.00000372,-0.00000473,-0.00
 000983,0.00000764,-0.00000129,0.00000745,0.00000005,-0.00063573,-0.001
 43167,0.00009649,0.00032162,0.00041063,-0.00002808,0.00118486,0.000246
 38,-0.00003817,0.00011634,0.00030857,-0.00058046,-0.00851855,-0.010878
 66,-0.00125308,0.16407129,0.00003653,0.00599892,0.00073490,-0.02214475
 ,-0.02644088,-0.00408877,0.00493868,-0.00324033,0.00067241,0.00045429,
 0.00024170,-0.00044675,-0.00004350,0.00016807,0.00009257,-0.00002879,0
 .00000464,0.00003428,0.00000442,-0.00000860,0.00001982,-0.00000310,0.0
 0001400,-0.00000151,0.00001415,0.00000164,-0.00000427,0.00001087,-0.00
 000832,-0.00001115,-0.00005597,-0.00001398,-0.00002586,0.00054086,0.00
 085636,-0.00024881,0.00166105,0.00228328,0.00103999,-0.12772094,-0.209
 99723,-0.02411765,0.00008022,0.00042124,-0.00017123,-0.00090315,-0.001
 45542,0.00009626,-0.00004593,-0.00001921,0.00011668,0.00002865,-0.0000
 0508,0.00001184,-0.00000988,-0.00000913,-0.00000819,-0.00000845,-0.000
 00308,-0.00000339,-0.00000474,-0.00001257,-0.00000145,-0.00000486,-0.0
 0000592,0.00000677,-0.00000394,-0.00001501,0.00000809,0.00000461,0.000
 00783,-0.00000395,0.00010403,0.00016229,-0.00016429,-0.00002216,-0.000
 04979,-0.00004586,-0.00006872,0.00015430,0.00038851,-0.00023485,0.0003
 4084,0.00042395,0.00297565,0.00356874,-0.00017972,0.14044972,0.2270607
 0,0.00064720,-0.00022000,-0.00118197,-0.00076394,0.00222751,-0.0006718
 0,0.00005259,-0.00035426,0.00125202,0.00018633,-0.00057575,-0.00007894
 ,-0.00017101,0.00003655,0.00008744,-0.00003157,0.00004162,-0.00002652,
 -0.00000214,-0.00000752,0.00000515,0.00000145,-0.00000428,-0.00000658,
 -0.00000508,0.00000047,0.00000330,0.00001589,-0.00000888,-0.00000035,-
 0.00000038,0.00001364,0.00003131,0.00294780,-0.00132457,-0.00383688,0.
 01467104,0.02051521,0.00326198,-0.01918733,-0.02445024,-0.05398782,0.0
 0034606,0.00042350,0.00022298,-0.00008198,-0.00009115,0.00038558,-0.00
 004584,0.00003363,-0.00001835,0.00001515,-0.00000141,-0.00000829,0.000
 00528,0.00000388,0.00000153,0.00000231,0.00000084,-0.00000071,0.000001
 98,0.00000668,0.00000098,0.00000195,0.00000041,-0.00000031,0.00000280,
 0.00000368,-0.00000276,-0.00000005,-0.00000591,0.00000245,0.00091885,0
 .00123578,0.00019632,0.00027780,0.00009078,0.00023354,-0.00089990,0.00
 034658,0.00087685,-0.00056252,-0.00039192,0.00069504,-0.01725005,-0.02
 342162,-0.00257870,0.01890732,0.02587677,0.05514353\\-0.00002683,-0.00
 001800,0.00001283,0.00006301,-0.00000843,-0.00000098,0.00002175,-0.000
 03175,0.00011414,-0.00003874,-0.00002965,0.00001040,0.00005844,0.00001
 263,-0.00000986,-0.00002843,-0.00003217,-0.00002900,-0.00001382,0.0000
 2351,0.00000007,-0.00003038,-0.00003372,-0.00002790,0.00000246,0.00003
 811,-0.00000451,0.00004457,0.00003032,0.00001476,-0.00000770,-0.000031
 21,0.00001209,0.00002502,-0.00001650,-0.00003565,0.00003703,0.00003293
 ,-0.00003086,-0.00005772,0.00001736,0.00014384,-0.00003772,-0.00000545
 ,-0.00005743,-0.00001615,0.00002324,-0.00002574,-0.00000967,0.00000570
 ,0.00001380,-0.00001368,-0.00000035,0.00000916,-0.00000672,0.00000453,
 0.00000331,0.00001648,0.00001632,-0.00001198,0.00000885,-0.00000231,0.
 00001095,0.00000571,0.00001105,0.00000636,0.00000896,0.00000018,-0.000
 00142,0.00000286,-0.00000432,-0.00000888,0.00001328,0.00001781,0.00000
 536,0.00000140,-0.00000177,-0.00000561,-0.00000275,-0.00000424,0.00001
 382,0.00003625,-0.00001899,-0.00002387,-0.00003319,0.00001464,-0.00007
 642,-0.00002258,-0.00000945,-0.00002078\\\@


 EDUCATION DOESN'T COST 
           ... IT PAYS!

 -- POSTMARK, UNIV. OF MISSISSIPPI, DEC 78
 Job cpu time:       0 days  0 hours  3 minutes  5.2 seconds.
 Elapsed time:       0 days  0 hours  3 minutes 10.8 seconds.
 File lengths (MBytes):  RWF=    206 Int=      0 D2E=      0 Chk=     16 Scr=      1
 Normal termination of Gaussian 16 at Sat Feb 24 02:30:26 2024.
