 Entering Gaussian System, Link 0=g16
 Input=/Volumes/SSD-PMU3/b3lyp_6-31gd_freq/VBXFYCNCJDMZMT-ZDUSSCGKSA-N_calculating/gaussianinput1.gjf
 Output=/Volumes/SSD-PMU3/b3lyp_6-31gd_freq/VBXFYCNCJDMZMT-ZDUSSCGKSA-N_calculating/gaussianinput1.log
 Initial command:
 /Applications/g16/l1.exe "/Users/macmini_m1_2022/PycharmProjects/sphere_model/sphere_model_lib/Gau-83648.inp" -scrdir="/Users/macmini_m1_2022/PycharmProjects/sphere_model/sphere_model_lib/"
 Entering Link 1 = /Applications/g16/l1.exe PID=     83649.
  
 Copyright (c) 1988,1990,1992,1993,1995,1998,2003,2009,2016,
            Gaussian, Inc.  All Rights Reserved.
  
 This is part of the Gaussian(R) 16 program.  It is based on
 the Gaussian(R) 09 system (copyright 2009, Gaussian, Inc.),
 the Gaussian(R) 03 system (copyright 2003, Gaussian, Inc.),
 the Gaussian(R) 98 system (copyright 1998, Gaussian, Inc.),
 the Gaussian(R) 94 system (copyright 1995, Gaussian, Inc.),
 the Gaussian 92(TM) system (copyright 1992, Gaussian, Inc.),
 the Gaussian 90(TM) system (copyright 1990, Gaussian, Inc.),
 the Gaussian 88(TM) system (copyright 1988, Gaussian, Inc.),
 the Gaussian 86(TM) system (copyright 1986, Carnegie Mellon
 University), and the Gaussian 82(TM) system (copyright 1983,
 Carnegie Mellon University). Gaussian is a federally registered
 trademark of Gaussian, Inc.
  
 This software contains proprietary and confidential information,
 including trade secrets, belonging to Gaussian, Inc.
  
 This software is provided under written license and may be
 used, copied, transmitted, or stored only in accord with that
 written license.
  
 The following legend is applicable only to US Government
 contracts under FAR:
  
                    RESTRICTED RIGHTS LEGEND
  
 Use, reproduction and disclosure by the US Government is
 subject to restrictions as set forth in subparagraphs (a)
 and (c) of the Commercial Computer Software - Restricted
 Rights clause in FAR 52.227-19.
  
 Gaussian, Inc.
 340 Quinnipiac St., Bldg. 40, Wallingford CT 06492
  
  
 ---------------------------------------------------------------
 Warning -- This program may not be used in any manner that
 competes with the business of Gaussian, Inc. or will provide
 assistance to any competitor of Gaussian, Inc.  The licensee
 of this program is prohibited from giving any competitor of
 Gaussian, Inc. access to this program.  By using this program,
 the user acknowledges that Gaussian, Inc. is engaged in the
 business of creating and licensing software in the field of
 computational chemistry and represents and warrants to the
 licensee that it is not a competitor of Gaussian, Inc. and that
 it will not use this program in any manner prohibited above.
 ---------------------------------------------------------------
  

 Cite this work as:
 Gaussian 16, Revision A.03,
 M. J. Frisch, G. W. Trucks, H. B. Schlegel, G. E. Scuseria, 
 M. A. Robb, J. R. Cheeseman, G. Scalmani, V. Barone, 
 G. A. Petersson, H. Nakatsuji, X. Li, M. Caricato, A. V. Marenich, 
 J. Bloino, B. G. Janesko, R. Gomperts, B. Mennucci, H. P. Hratchian, 
 J. V. Ortiz, A. F. Izmaylov, J. L. Sonnenberg, D. Williams-Young, 
 F. Ding, F. Lipparini, F. Egidi, J. Goings, B. Peng, A. Petrone, 
 T. Henderson, D. Ranasinghe, V. G. Zakrzewski, J. Gao, N. Rega, 
 G. Zheng, W. Liang, M. Hada, M. Ehara, K. Toyota, R. Fukuda, 
 J. Hasegawa, M. Ishida, T. Nakajima, Y. Honda, O. Kitao, H. Nakai, 
 T. Vreven, K. Throssell, J. A. Montgomery, Jr., J. E. Peralta, 
 F. Ogliaro, M. J. Bearpark, J. J. Heyd, E. N. Brothers, K. N. Kudin, 
 V. N. Staroverov, T. A. Keith, R. Kobayashi, J. Normand, 
 K. Raghavachari, A. P. Rendell, J. C. Burant, S. S. Iyengar, 
 J. Tomasi, M. Cossi, J. M. Millam, M. Klene, C. Adamo, R. Cammi, 
 J. W. Ochterski, R. L. Martin, K. Morokuma, O. Farkas, 
 J. B. Foresman, and D. J. Fox, Gaussian, Inc., Wallingford CT, 2016.
 
 ******************************************
 Gaussian 16:  EM64M-G16RevA.03 25-Dec-2016
                24-Feb-2024 
 ******************************************
 %nprocshared=10
 Will use up to   10 processors via shared memory.
 %mem=12GB
 %chk= 1.chk
 ---------------------
 # freq b3lyp/6-31g(d)
 ---------------------
 1/10=4,30=1,38=1/1,3;
 2/12=2,17=6,18=5,40=1/2;
 3/5=1,6=6,7=1,11=2,25=1,30=1,71=2,74=-5,140=1/1,2,3;
 4//1;
 5/5=2,38=5,98=1/2;
 8/6=4,10=90,11=11/1;
 11/6=1,8=1,9=11,15=111,16=1/1,2,10;
 10/6=1/2;
 6/7=2,8=2,9=2,10=2,28=1/1;
 7/8=1,10=1,25=1/1,2,3,16;
 1/10=4,30=1/3;
 99//99;
 ---------
 good luck
 ---------
 Symbolic Z-matrix:
 Charge =  0 Multiplicity = 1
 O                     1.21947   0.        0. 
 C                     0.        0.        0. 
 C                    -0.75405  -1.32694  -0.00445 
 C                    -1.6451   -1.57274   1.24159 
 C                    -2.95058  -0.80852   1.23999 
 C                    -4.16484  -1.5045    1.20673 
 C                    -5.3879   -0.83379   1.18875 
 C                    -5.40668   0.55977   1.20139 
 C                    -4.20261   1.26345   1.23338 
 C                    -2.96869   0.6015    1.2541 
 C                    -1.68785   1.40739   1.28425 
 C                    -0.80826   1.30234  -0.00445 
 C                     0.09106   2.54535  -0.2411 
 C                    -0.72678   3.72994  -0.77909 
 C                     0.91476   2.95909   0.9893 
 H                     0.00803  -2.10911  -0.0716 
 H                    -1.38177  -1.38442  -0.90419 
 H                    -1.86332  -2.64514   1.28829 
 H                    -1.06075  -1.34341   2.14417 
 H                    -4.14888  -2.59227   1.19714 
 H                    -6.31673  -1.39736   1.16497 
 H                    -6.3505    1.09825   1.18785 
 H                    -4.21746   2.35119   1.24568 
 H                    -1.08038   1.12968   2.15632 
 H                    -1.94999   2.46041   1.42611 
 H                    -1.50559   1.22678  -0.85281 
 H                     0.80613   2.25473  -1.02073 
 H                    -1.46547   4.08673  -0.04996 
 H                    -1.26612   3.46478  -1.69674 
 H                    -0.0693    4.5759   -1.01129 
 H                     0.27637   3.30464   1.81193 
 H                     1.58491   3.78763   0.73109 
 H                     1.52919   2.12966   1.34827 
 

 GradGradGradGradGradGradGradGradGradGradGradGradGradGradGradGradGradGrad
 Berny optimization.
 Initialization pass.
 Trust Radius=3.00D-01 FncErr=1.00D-07 GrdErr=1.00D-07 EigMax=2.50D+02 EigMin=1.00D-04
 Number of steps in this run=      2 maximum allowed number of steps=      2.
 GradGradGradGradGradGradGradGradGradGradGradGradGradGradGradGradGradGrad

                          Input orientation:                          
 ---------------------------------------------------------------------
 Center     Atomic      Atomic             Coordinates (Angstroms)
 Number     Number       Type             X           Y           Z
 ---------------------------------------------------------------------
      1          8           0        1.219465    0.000000    0.000000
      2          6           0        0.000000    0.000000    0.000000
      3          6           0       -0.754053   -1.326937   -0.004451
      4          6           0       -1.645103   -1.572737    1.241591
      5          6           0       -2.950578   -0.808517    1.239989
      6          6           0       -4.164840   -1.504498    1.206733
      7          6           0       -5.387899   -0.833790    1.188752
      8          6           0       -5.406678    0.559769    1.201388
      9          6           0       -4.202614    1.263451    1.233380
     10          6           0       -2.968693    0.601500    1.254099
     11          6           0       -1.687845    1.407386    1.284254
     12          6           0       -0.808260    1.302339   -0.004451
     13          6           0        0.091056    2.545345   -0.241101
     14          6           0       -0.726784    3.729943   -0.779086
     15          6           0        0.914763    2.959086    0.989304
     16          1           0        0.008033   -2.109106   -0.071597
     17          1           0       -1.381769   -1.384423   -0.904186
     18          1           0       -1.863315   -2.645142    1.288293
     19          1           0       -1.060753   -1.343408    2.144167
     20          1           0       -4.148882   -2.592271    1.197144
     21          1           0       -6.316727   -1.397362    1.164974
     22          1           0       -6.350495    1.098254    1.187848
     23          1           0       -4.217458    2.351187    1.245676
     24          1           0       -1.080384    1.129680    2.156324
     25          1           0       -1.949992    2.460408    1.426111
     26          1           0       -1.505591    1.226776   -0.852812
     27          1           0        0.806130    2.254726   -1.020730
     28          1           0       -1.465474    4.086734   -0.049959
     29          1           0       -1.266122    3.464776   -1.696739
     30          1           0       -0.069298    4.575895   -1.011292
     31          1           0        0.276371    3.304644    1.811934
     32          1           0        1.584910    3.787627    0.731092
     33          1           0        1.529186    2.129660    1.348266
 ---------------------------------------------------------------------
                    Distance matrix (angstroms):
                    1          2          3          4          5
     1  O    0.000000
     2  C    1.219465   0.000000
     3  C    2.378141   1.526230   0.000000
     4  C    3.495826   2.592569   1.551454   0.000000
     5  C    4.424989   3.301088   2.577230   1.512713   0.000000
     6  C    5.719306   4.589729   3.623805   2.520902   1.399974
     7  C    6.765027   5.580125   4.810349   3.815410   2.437990
     8  C    6.757399   5.566762   5.163393   4.324193   2.811783
     9  C    5.702322   4.558454   4.487194   3.819017   2.420886
    10  C    4.413075   3.278369   3.194910   2.545457   1.410204
    11  C    3.475988   2.545361   3.163740   2.980735   2.550820
    12  C    2.409933   1.532772   2.629835   3.243299   3.254823
    13  C    2.794677   2.558359   3.970489   4.708633   4.763775
    14  C    4.278707   3.879132   5.115940   5.748466   5.442384
    15  C    3.134925   3.251416   4.705581   5.210948   5.403567
    16  H    2.433315   2.110336   1.094108   2.178305   3.487860
    17  H    3.082304   2.154870   1.098570   2.170061   2.718514
    18  H    4.261456   3.482588   2.153907   1.095377   2.134869
    19  H    3.406111   2.743610   2.170460   1.099409   2.162194
    20  H    6.080475   5.036491   3.817036   2.703763   2.149313
    21  H    7.752675   6.573494   5.684704   4.675542   3.418088
    22  H    7.740894   6.553315   6.214764   5.410896   3.898452
    23  H    6.053092   4.986656   5.204478   4.691930   3.404225
    24  H    3.348913   2.663295   3.287918   2.908385   2.844979
    25  H    4.258269   3.448169   4.221464   4.048860   3.423695
    26  H    3.107764   2.121102   2.793918   3.499037   3.257333
    27  H    2.509288   2.602984   4.036744   5.077018   5.348566
    28  H    4.890070   4.341832   5.460405   5.807752   5.275697
    29  H    4.589307   4.060377   5.107501   5.844138   5.451862
    30  H    4.860292   4.686825   6.027109   6.735304   6.508605
    31  H    3.884997   3.778910   5.080607   5.273158   5.259127
    32  H    3.874811   4.170438   5.671908   6.279100   6.477204
    33  H    2.539528   2.948166   4.357876   4.878036   5.358441
                    6          7          8          9         10
     6  C    0.000000
     7  C    1.395007   0.000000
     8  C    2.409022   1.393743   0.000000
     9  C    2.768335   2.409422   1.394977   0.000000
    10  C    2.422445   2.813696   2.438912   1.400418   0.000000
    11  C    3.823687   4.326938   3.815107   2.519398   1.513583
    12  C    4.540036   5.192290   4.811539   3.613223   2.596651
    13  C    6.050628   6.594087   6.020662   4.717303   3.921252
    14  C    6.569861   6.813666   5.989465   4.713279   4.352833
    15  C    6.765591   7.358616   6.764785   5.396508   4.550776
    16  H    4.405967   5.686035   6.169480   5.550374   4.238603
    17  H    3.495122   4.553313   4.940973   4.420135   3.334728
    18  H    2.569969   3.964038   4.778538   4.555484   3.429827
    19  H    3.246550   4.460574   4.837146   4.182886   2.866204
    20  H    1.087932   2.151160   3.393733   3.856267   3.405329
    21  H    2.154957   1.086692   2.158675   3.399129   3.900349
    22  H    3.398788   2.158561   1.086711   2.154706   3.418733
    23  H    3.856241   3.393708   2.150671   1.087907   2.149625
    24  H    4.165872   4.831780   4.466936   3.258533   2.158401
    25  H    4.546884   4.767314   3.951153   2.558155   2.126706
    26  H    4.332804   4.846260   4.459049   3.409908   2.640211
    27  H    6.618451   7.265448   6.812464   5.581322   4.707153
    28  H    6.334645   6.413375   5.434928   4.136402   4.013364
    29  H    6.444098   6.617611   5.829443   4.696213   4.450229
    30  H    7.659261   7.898886   7.036537   5.752837   5.416115
    31  H    6.574076   7.042652   6.340674   4.956057   4.260118
    32  H    7.828949   8.377769   7.715086   6.333971   5.582136
    33  H    6.756409   7.526855   7.112829   5.798021   4.751321
                   11         12         13         14         15
    11  C    0.000000
    12  C    1.563798   0.000000
    13  C    2.605023   1.552365   0.000000
    14  C    3.251966   2.549502   1.536738   0.000000
    15  C    3.044394   2.588661   1.537391   2.533002   0.000000
    16  H    4.132802   3.508390   4.658276   5.927478   5.256828
    17  H    3.560499   2.890869   4.248761   5.157654   5.265495
    18  H    4.056327   4.285666   5.753240   6.797607   6.262147
    19  H    2.949502   3.417644   4.705164   5.864796   4.873174
    20  H    4.696972   5.269874   6.814743   7.455644   7.516732
    21  H    5.413630   6.244930   7.653866   7.830459   8.444166
    22  H    4.673881   5.672706   6.754965   6.513121   7.502406
    23  H    2.700220   3.779620   4.561962   4.264438   5.174453
    24  H    1.098470   2.184676   3.020600   3.937389   2.947757
    25  H    1.094395   2.165914   2.636795   2.823270   2.940459
    26  H    2.152414   1.100771   2.159189   2.622560   3.500343
    27  H    3.500121   2.132163   1.097092   2.141140   2.132642
    28  H    3.001413   2.861268   2.198909   1.097538   2.831464
    29  H    3.646508   2.783812   2.192297   1.096944   3.496685
    30  H    4.234227   3.503707   2.177623   1.096286   2.754057
    31  H    2.781399   2.912886   2.196777   2.810798   1.097121
    32  H    4.084417   3.527739   2.172562   2.761864   1.096472
    33  H    3.297736   2.824528   2.183369   3.489403   1.092848
                   16         17         18         19         20
    16  H    0.000000
    17  H    1.774801   0.000000
    18  H    2.374569   2.574541   0.000000
    19  H    2.576472   3.065484   1.752466   0.000000
    20  H    4.372996   3.678505   2.287995   3.463099   0.000000
    21  H    6.483693   5.351206   4.626558   5.346681   2.475559
    22  H    7.232167   5.935363   5.844475   5.904035   4.297343
    23  H    6.283645   5.159246   5.523324   4.941873   4.944172
    24  H    4.078973   3.972187   3.951676   2.473196   4.918193
    25  H    5.192056   4.531654   5.108145   3.971822   5.515171
    26  H    3.745593   2.614638   4.438924   3.973111   5.076852
    27  H    4.536611   4.247810   6.038728   5.142800   7.277671
    28  H    6.368683   5.538075   6.875125   5.870641   7.305139
    29  H    5.944133   4.914900   6.826284   6.157383   7.305661
    30  H    6.751166   6.104051   7.787809   6.780712   8.538314
    31  H    5.738326   5.666929   6.344479   4.847955   7.398273
    32  H    6.156485   6.182671   7.319921   5.943386   8.590499
    33  H    4.721976   5.088809   5.857593   4.404934   7.386469
                   21         22         23         24         25
    21  H    0.000000
    22  H    2.495949   0.000000
    23  H    4.297099   2.474476   0.000000
    24  H    5.898136   5.358452   3.487491   0.000000
    25  H    5.832577   4.612663   2.277255   1.749362   0.000000
    26  H    5.839914   5.258698   3.608625   3.040580   2.629226
    27  H    8.297598   7.578425   5.512018   3.862426   3.691280
    28  H    7.421996   5.858891   3.502029   3.709467   2.249106
    29  H    7.572212   6.306514   4.313730   4.509242   3.350914
    30  H    8.913266   7.508904   5.220197   4.788787   3.735402
    31  H    8.123814   7.012346   4.628631   2.586476   2.412112
    32  H    9.460879   8.391186   5.999636   4.024893   3.839283
    33  H    8.604175   7.948516   5.751827   2.909085   3.495731
                   26         27         28         29         30
    26  H    0.000000
    27  H    2.535534   0.000000
    28  H    2.970781   3.075522   0.000000
    29  H    2.403789   2.493078   1.771569   0.000000
    30  H    3.647554   2.480784   1.764298   1.771104   0.000000
    31  H    3.820183   3.067076   2.666896   3.836107   3.115473
    32  H    4.314847   2.454621   3.162965   3.758587   2.528571
    33  H    3.856140   2.480039   3.840984   4.343770   3.755893
                   31         32         33
    31  H    0.000000
    32  H    1.764587   0.000000
    33  H    1.779079   1.769990   0.000000
 Stoichiometry    C14H18O
 Framework group  C1[X(C14H18O)]
 Deg. of freedom    93
 Full point group                 C1      NOp   1
 Largest Abelian subgroup         C1      NOp   1
 Largest concise Abelian subgroup C1      NOp   1
                         Standard orientation:                         
 ---------------------------------------------------------------------
 Center     Atomic      Atomic             Coordinates (Angstroms)
 Number     Number       Type             X           Y           Z
 ---------------------------------------------------------------------
      1          8           0       -2.372734    2.053800   -0.103813
      2          6           0       -1.337824    1.450921   -0.333147
      3          6           0       -0.053033    2.231434   -0.596750
      4          6           0        1.080965    1.984087    0.432753
      5          6           0        1.816613    0.674536    0.253313
      6          6           0        3.178929    0.679646   -0.069171
      7          6           0        3.886749   -0.507621   -0.257409
      8          6           0        3.227101   -1.728242   -0.125243
      9          6           0        1.869430   -1.745065    0.194768
     10          6           0        1.148697   -0.560084    0.388502
     11          6           0       -0.324258   -0.627742    0.730202
     12          6           0       -1.286619   -0.080445   -0.374241
     13          6           0       -2.703799   -0.712242   -0.326583
     14          6           0       -2.697710   -2.137259   -0.901781
     15          6           0       -3.349263   -0.684792    1.068477
     16          1           0       -0.333038    3.289072   -0.588336
     17          1           0        0.321237    1.985832   -1.599973
     18          1           0        1.797737    2.807459    0.342485
     19          1           0        0.660456    2.058856    1.445809
     20          1           0        3.692786    1.633067   -0.171822
     21          1           0        4.944354   -0.476629   -0.505223
     22          1           0        3.763209   -2.662616   -0.268325
     23          1           0        1.355206   -2.697947    0.300274
     24          1           0       -0.523943   -0.100387    1.672889
     25          1           0       -0.584867   -1.674842    0.912858
     26          1           0       -0.833828   -0.345595   -1.341904
     27          1           0       -3.330754   -0.093353   -0.980429
     28          1           0       -2.093380   -2.824504   -0.295919
     29          1           0       -2.301083   -2.158380   -1.924291
     30          1           0       -3.715503   -2.543609   -0.930397
     31          1           0       -2.805212   -1.314224    1.783669
     32          1           0       -4.374716   -1.069324    1.015263
     33          1           0       -3.392665    0.333921    1.461741
 ---------------------------------------------------------------------
 Rotational constants (GHZ):           1.0149016           0.4270739           0.3270492
 Standard basis: 6-31G(d) (6D, 7F)
 There are   261 symmetry adapted cartesian basis functions of A   symmetry.
 There are   261 symmetry adapted basis functions of A   symmetry.
   261 basis functions,   492 primitive gaussians,   261 cartesian basis functions
    55 alpha electrons       55 beta electrons
       nuclear repulsion energy       991.1989771670 Hartrees.
 NAtoms=   33 NActive=   33 NUniq=   33 SFac= 1.00D+00 NAtFMM=   60 NAOKFM=F Big=F
 Integral buffers will be    131072 words long.
 Raffenetti 2 integral format.
 Two-electron integral symmetry is turned on.
 One-electron integrals computed using PRISM.
 NBasis=   261 RedAO= T EigKep=  3.98D-04  NBF=   261
 NBsUse=   261 1.00D-06 EigRej= -1.00D+00 NBFU=   261
 ExpMin= 1.61D-01 ExpMax= 5.48D+03 ExpMxC= 8.25D+02 IAcc=3 IRadAn=         5 AccDes= 0.00D+00
 Harris functional with IExCor=  402 and IRadAn=       5 diagonalized for initial guess.
 HarFok:  IExCor=  402 AccDes= 0.00D+00 IRadAn=         5 IDoV= 1 UseB2=F ITyADJ=14
 ICtDFT=  3500011 ScaDFX=  1.000000  1.000000  1.000000  1.000000
 FoFCou: FMM=F IPFlag=           0 FMFlag=      100000 FMFlg1=           0
         NFxFlg=           0 DoJE=T BraDBF=F KetDBF=T FulRan=T
         wScrn=  0.000000 ICntrl=       500 IOpCl=  0 I1Cent=   200000004 NGrid=           0
         NMat0=    1 NMatS0=      1 NMatT0=    0 NMatD0=    1 NMtDS0=    0 NMtDT0=    0
 Petite list used in FoFCou.
 Requested convergence on RMS density matrix=1.00D-08 within 128 cycles.
 Requested convergence on MAX density matrix=1.00D-06.
 Requested convergence on             energy=1.00D-06.
 No special actions if energy rises.
 Integral accuracy reduced to 1.0D-05 until final iterations.
 Initial convergence to 1.0D-05 achieved.  Increase integral accuracy.
 SCF Done:  E(RB3LYP) =  -619.566904314     A.U. after   15 cycles
            NFock= 15  Conv=0.36D-08     -V/T= 2.0098
 DoSCS=F DFT=T ScalE2(SS,OS)=  1.000000  1.000000
 Range of M.O.s used for correlation:     1   261
 NBasis=   261 NAE=    55 NBE=    55 NFC=     0 NFV=     0
 NROrb=    261 NOA=    55 NOB=    55 NVA=   206 NVB=   206
 Symmetrizing basis deriv contribution to polar:
 IMax=3 JMax=2 DiffMx= 0.00D+00
 G2DrvN: will do    34 centers at a time, making    1 passes.
 Calling FoFCou, ICntrl=  3107 FMM=F I1Cent=   0 AccDes= 0.00D+00.
 End of G2Drv F.D. properties file   721 does not exist.
 End of G2Drv F.D. properties file   722 does not exist.
 End of G2Drv F.D. properties file   788 does not exist.
          IDoAtm=111111111111111111111111111111111
          Differentiating once with respect to electric field.
                with respect to dipole field.
          Differentiating once with respect to nuclear coordinates.
 Keep R1 ints in memory in canonical form, NReq=595457192.
          There are   102 degrees of freedom in the 1st order CPHF.  IDoFFX=6 NUNeed=     3.
     99 vectors produced by pass  0 Test12= 1.13D-14 1.00D-09 XBig12= 1.62D+02 5.22D+00.
 AX will form    99 AO Fock derivatives at one time.
     99 vectors produced by pass  1 Test12= 1.13D-14 1.00D-09 XBig12= 2.75D+01 1.06D+00.
     99 vectors produced by pass  2 Test12= 1.13D-14 1.00D-09 XBig12= 1.93D-01 6.31D-02.
     99 vectors produced by pass  3 Test12= 1.13D-14 1.00D-09 XBig12= 5.40D-04 1.67D-03.
     99 vectors produced by pass  4 Test12= 1.13D-14 1.00D-09 XBig12= 4.84D-07 4.70D-05.
     58 vectors produced by pass  5 Test12= 1.13D-14 1.00D-09 XBig12= 3.35D-10 1.23D-06.
      4 vectors produced by pass  6 Test12= 1.13D-14 1.00D-09 XBig12= 2.38D-13 4.03D-08.
      1 vectors produced by pass  7 Test12= 1.13D-14 1.00D-09 XBig12= 1.82D-16 1.29D-09.
 InvSVY:  IOpt=1 It=  1 EMax= 8.88D-15
 Solved reduced A of dimension   558 with   102 vectors.
 Isotropic polarizability for W=    0.000000      141.05 Bohr**3.
 End of Minotr F.D. properties file   721 does not exist.
 End of Minotr F.D. properties file   722 does not exist.
 End of Minotr F.D. properties file   788 does not exist.

 **********************************************************************

            Population analysis using the SCF density.

 **********************************************************************

 Orbital symmetries:
       Occupied  (A) (A) (A) (A) (A) (A) (A) (A) (A) (A) (A) (A)
                 (A) (A) (A) (A) (A) (A) (A) (A) (A) (A) (A) (A)
                 (A) (A) (A) (A) (A) (A) (A) (A) (A) (A) (A) (A)
                 (A) (A) (A) (A) (A) (A) (A) (A) (A) (A) (A) (A)
                 (A) (A) (A) (A) (A) (A) (A)
       Virtual   (A) (A) (A) (A) (A) (A) (A) (A) (A) (A) (A) (A)
                 (A) (A) (A) (A) (A) (A) (A) (A) (A) (A) (A) (A)
                 (A) (A) (A) (A) (A) (A) (A) (A) (A) (A) (A) (A)
                 (A) (A) (A) (A) (A) (A) (A) (A) (A) (A) (A) (A)
                 (A) (A) (A) (A) (A) (A) (A) (A) (A) (A) (A) (A)
                 (A) (A) (A) (A) (A) (A) (A) (A) (A) (A) (A) (A)
                 (A) (A) (A) (A) (A) (A) (A) (A) (A) (A) (A) (A)
                 (A) (A) (A) (A) (A) (A) (A) (A) (A) (A) (A) (A)
                 (A) (A) (A) (A) (A) (A) (A) (A) (A) (A) (A) (A)
                 (A) (A) (A) (A) (A) (A) (A) (A) (A) (A) (A) (A)
                 (A) (A) (A) (A) (A) (A) (A) (A) (A) (A) (A) (A)
                 (A) (A) (A) (A) (A) (A) (A) (A) (A) (A) (A) (A)
                 (A) (A) (A) (A) (A) (A) (A) (A) (A) (A) (A) (A)
                 (A) (A) (A) (A) (A) (A) (A) (A) (A) (A) (A) (A)
                 (A) (A) (A) (A) (A) (A) (A) (A) (A) (A) (A) (A)
                 (A) (A) (A) (A) (A) (A) (A) (A) (A) (A) (A) (A)
                 (A) (A) (A) (A) (A) (A) (A) (A) (A) (A) (A) (A)
                 (A) (A)
 The electronic state is 1-A.
 Alpha  occ. eigenvalues --  -19.13678 -10.27051 -10.20061 -10.19776 -10.19763
 Alpha  occ. eigenvalues --  -10.19742 -10.19704 -10.19378 -10.19036 -10.19002
 Alpha  occ. eigenvalues --  -10.18964 -10.18943 -10.18707 -10.17351 -10.16502
 Alpha  occ. eigenvalues --   -1.03574  -0.86475  -0.81942  -0.79618  -0.76820
 Alpha  occ. eigenvalues --   -0.74002  -0.72365  -0.67808  -0.65632  -0.65132
 Alpha  occ. eigenvalues --   -0.60216  -0.57782  -0.55805  -0.52046  -0.50807
 Alpha  occ. eigenvalues --   -0.47461  -0.47320  -0.46574  -0.45156  -0.43753
 Alpha  occ. eigenvalues --   -0.43002  -0.42214  -0.41696  -0.41278  -0.39582
 Alpha  occ. eigenvalues --   -0.39208  -0.37968  -0.37726  -0.36898  -0.35882
 Alpha  occ. eigenvalues --   -0.35643  -0.34544  -0.33890  -0.33545  -0.32453
 Alpha  occ. eigenvalues --   -0.31995  -0.31317  -0.24894  -0.23998  -0.23725
 Alpha virt. eigenvalues --   -0.01508  -0.00406  -0.00033   0.08464   0.08987
 Alpha virt. eigenvalues --    0.10338   0.10578   0.12305   0.13412   0.14170
 Alpha virt. eigenvalues --    0.14580   0.15024   0.16146   0.16471   0.17172
 Alpha virt. eigenvalues --    0.17718   0.18048   0.18537   0.19354   0.19450
 Alpha virt. eigenvalues --    0.20164   0.21435   0.21729   0.22815   0.24858
 Alpha virt. eigenvalues --    0.25549   0.26198   0.27149   0.28039   0.29253
 Alpha virt. eigenvalues --    0.31845   0.33540   0.34251   0.35524   0.37224
 Alpha virt. eigenvalues --    0.37768   0.48487   0.49803   0.51001   0.51019
 Alpha virt. eigenvalues --    0.51709   0.53121   0.53530   0.54477   0.54992
 Alpha virt. eigenvalues --    0.56065   0.57138   0.58045   0.59111   0.60353
 Alpha virt. eigenvalues --    0.60857   0.61003   0.61708   0.62267   0.63632
 Alpha virt. eigenvalues --    0.64134   0.66210   0.67118   0.67314   0.69249
 Alpha virt. eigenvalues --    0.69989   0.71866   0.72385   0.73041   0.75048
 Alpha virt. eigenvalues --    0.76899   0.78015   0.79067   0.82120   0.82433
 Alpha virt. eigenvalues --    0.82934   0.83357   0.84003   0.84222   0.84907
 Alpha virt. eigenvalues --    0.86919   0.87500   0.88379   0.89316   0.90240
 Alpha virt. eigenvalues --    0.90722   0.91755   0.92165   0.92726   0.93400
 Alpha virt. eigenvalues --    0.94620   0.94852   0.96081   0.96477   0.98421
 Alpha virt. eigenvalues --    0.99292   1.00134   1.01810   1.03300   1.05172
 Alpha virt. eigenvalues --    1.06059   1.08541   1.11736   1.12367   1.13929
 Alpha virt. eigenvalues --    1.17636   1.18886   1.20789   1.21550   1.25861
 Alpha virt. eigenvalues --    1.30311   1.31186   1.34228   1.39148   1.41990
 Alpha virt. eigenvalues --    1.43160   1.44610   1.46057   1.48725   1.49705
 Alpha virt. eigenvalues --    1.50203   1.51978   1.52971   1.56266   1.59655
 Alpha virt. eigenvalues --    1.62836   1.63386   1.69357   1.72813   1.74660
 Alpha virt. eigenvalues --    1.75191   1.76980   1.79186   1.80035   1.81430
 Alpha virt. eigenvalues --    1.82692   1.84205   1.85613   1.87452   1.88781
 Alpha virt. eigenvalues --    1.89431   1.90923   1.92012   1.93208   1.94875
 Alpha virt. eigenvalues --    1.96293   1.98153   2.00382   2.01452   2.03305
 Alpha virt. eigenvalues --    2.03768   2.06562   2.07894   2.08601   2.11327
 Alpha virt. eigenvalues --    2.11410   2.13360   2.18015   2.18689   2.21081
 Alpha virt. eigenvalues --    2.22956   2.24001   2.26651   2.27805   2.28399
 Alpha virt. eigenvalues --    2.28933   2.31809   2.34299   2.35568   2.38628
 Alpha virt. eigenvalues --    2.41015   2.42220   2.42443   2.44394   2.47801
 Alpha virt. eigenvalues --    2.49889   2.53745   2.55530   2.61595   2.62831
 Alpha virt. eigenvalues --    2.64053   2.65563   2.67624   2.68533   2.69861
 Alpha virt. eigenvalues --    2.73855   2.76230   2.77193   2.79852   2.80647
 Alpha virt. eigenvalues --    2.83844   2.98039   2.99278   3.02851   3.09331
 Alpha virt. eigenvalues --    3.41295   4.02526   4.08945   4.10608   4.12545
 Alpha virt. eigenvalues --    4.16062   4.23110   4.28531   4.32588   4.33415
 Alpha virt. eigenvalues --    4.42162   4.43115   4.56253   4.59588   4.68154
 Alpha virt. eigenvalues --    4.74325
          Condensed to atoms (all electrons):
               1          2          3          4          5          6
     1  O    8.022438   0.565489  -0.077343  -0.000018  -0.000032  -0.000001
     2  C    0.565489   4.530311   0.344686  -0.026716  -0.004404  -0.000009
     3  C   -0.077343   0.344686   5.297943   0.322651  -0.038636  -0.001319
     4  C   -0.000018  -0.026716   0.322651   5.200933   0.349219  -0.060792
     5  C   -0.000032  -0.004404  -0.038636   0.349219   4.740418   0.527486
     6  C   -0.000001  -0.000009  -0.001319  -0.060792   0.527486   4.994743
     7  C   -0.000000   0.000005  -0.000159   0.007492  -0.024970   0.516762
     8  C   -0.000000   0.000005   0.000026  -0.000067  -0.040943  -0.027020
     9  C   -0.000000  -0.000070   0.000030   0.008923  -0.018980  -0.061265
    10  C    0.000043  -0.004350   0.001496  -0.069893   0.532992  -0.017462
    11  C   -0.000733  -0.023660   0.000586  -0.013075  -0.066606   0.008819
    12  C   -0.092367   0.293953  -0.124517   0.002306   0.000792   0.000017
    13  C    0.003348  -0.024048   0.005528  -0.000075   0.000032   0.000003
    14  C    0.000530   0.004037  -0.000107  -0.000002   0.000005   0.000000
    15  C   -0.006961  -0.004470  -0.000149   0.000009  -0.000013  -0.000000
    16  H    0.006203  -0.025434   0.335148  -0.023991   0.004309  -0.000038
    17  H    0.001982  -0.027854   0.345046  -0.037958  -0.001223   0.001786
    18  H   -0.000077   0.003114  -0.028679   0.361456  -0.033066  -0.005271
    19  H    0.000955  -0.004282  -0.048339   0.359606  -0.028425   0.001796
    20  H    0.000000   0.000006   0.000252  -0.011143  -0.039363   0.350083
    21  H    0.000000   0.000000   0.000001  -0.000181   0.003620  -0.038742
    22  H    0.000000   0.000000  -0.000000   0.000009   0.001040   0.004351
    23  H    0.000000   0.000003  -0.000000  -0.000179   0.005142   0.000685
    24  H    0.000948  -0.004785  -0.000088   0.001801  -0.006607  -0.000120
    25  H   -0.000069   0.002868  -0.000232   0.000027   0.004674  -0.000159
    26  H    0.002130  -0.033423   0.000828  -0.000523  -0.000551  -0.000155
    27  H    0.008609  -0.003491   0.000584   0.000003  -0.000008  -0.000000
    28  H   -0.000009  -0.000020  -0.000000  -0.000000   0.000002  -0.000000
    29  H    0.000008   0.000019  -0.000003   0.000000   0.000000  -0.000000
    30  H    0.000003  -0.000080   0.000002  -0.000000  -0.000000  -0.000000
    31  H    0.000143   0.000194   0.000012   0.000001  -0.000002  -0.000000
    32  H    0.000133   0.000034   0.000003  -0.000000   0.000000   0.000000
    33  H    0.011524   0.002311   0.000159  -0.000019   0.000004   0.000000
               7          8          9         10         11         12
     1  O   -0.000000  -0.000000  -0.000000   0.000043  -0.000733  -0.092367
     2  C    0.000005   0.000005  -0.000070  -0.004350  -0.023660   0.293953
     3  C   -0.000159   0.000026   0.000030   0.001496   0.000586  -0.124517
     4  C    0.007492  -0.000067   0.008923  -0.069893  -0.013075   0.002306
     5  C   -0.024970  -0.040943  -0.018980   0.532992  -0.066606   0.000792
     6  C    0.516762  -0.027020  -0.061265  -0.017462   0.008819   0.000017
     7  C    4.872936   0.549378  -0.027390  -0.040940  -0.000028   0.000032
     8  C    0.549378   4.874419   0.515429  -0.023648   0.007505  -0.000146
     9  C   -0.027390   0.515429   4.995060   0.526293  -0.061153  -0.001651
    10  C   -0.040940  -0.023648   0.526293   4.746925   0.341692  -0.031988
    11  C   -0.000028   0.007505  -0.061153   0.341692   5.250841   0.317363
    12  C    0.000032  -0.000146  -0.001651  -0.031988   0.317363   5.315155
    13  C   -0.000000   0.000003  -0.000091   0.003182  -0.027419   0.343013
    14  C   -0.000000  -0.000000   0.000010  -0.000103  -0.006088  -0.040113
    15  C    0.000000  -0.000000   0.000002   0.000520  -0.008631  -0.038741
    16  H    0.000002  -0.000000   0.000003  -0.000040  -0.000166   0.006868
    17  H   -0.000076  -0.000013  -0.000089  -0.000051  -0.000374   0.003024
    18  H    0.000273  -0.000001  -0.000166   0.004837   0.000099  -0.000237
    19  H   -0.000229   0.000031  -0.000118  -0.005696   0.001396   0.000368
    20  H   -0.045721   0.004600   0.000683   0.005239  -0.000177  -0.000002
    21  H    0.355922  -0.042130   0.004386   0.001017   0.000009   0.000000
    22  H   -0.042150   0.355777  -0.038515   0.003598  -0.000185   0.000001
    23  H    0.004606  -0.045604   0.350533  -0.040010  -0.010902   0.000222
    24  H    0.000032  -0.000238   0.002324  -0.027786   0.354857  -0.043163
    25  H   -0.000006   0.000299  -0.005206  -0.034202   0.363352  -0.036651
    26  H   -0.000011  -0.000124   0.002534   0.001906  -0.050804   0.353224
    27  H    0.000000  -0.000000  -0.000001  -0.000094   0.004832  -0.051541
    28  H    0.000000  -0.000001  -0.000057  -0.000120   0.000857  -0.006468
    29  H    0.000000   0.000000   0.000004  -0.000023   0.000023  -0.004857
    30  H   -0.000000   0.000000   0.000001   0.000003   0.000080   0.004378
    31  H    0.000000  -0.000000  -0.000009   0.000187   0.004171  -0.009366
    32  H   -0.000000   0.000000   0.000000  -0.000006   0.000033   0.004877
    33  H   -0.000000   0.000000  -0.000000  -0.000027  -0.000635  -0.005722
              13         14         15         16         17         18
     1  O    0.003348   0.000530  -0.006961   0.006203   0.001982  -0.000077
     2  C   -0.024048   0.004037  -0.004470  -0.025434  -0.027854   0.003114
     3  C    0.005528  -0.000107  -0.000149   0.335148   0.345046  -0.028679
     4  C   -0.000075  -0.000002   0.000009  -0.023991  -0.037958   0.361456
     5  C    0.000032   0.000005  -0.000013   0.004309  -0.001223  -0.033066
     6  C    0.000003   0.000000  -0.000000  -0.000038   0.001786  -0.005271
     7  C   -0.000000  -0.000000   0.000000   0.000002  -0.000076   0.000273
     8  C    0.000003  -0.000000  -0.000000  -0.000000  -0.000013  -0.000001
     9  C   -0.000091   0.000010   0.000002   0.000003  -0.000089  -0.000166
    10  C    0.003182  -0.000103   0.000520  -0.000040  -0.000051   0.004837
    11  C   -0.027419  -0.006088  -0.008631  -0.000166  -0.000374   0.000099
    12  C    0.343013  -0.040113  -0.038741   0.006868   0.003024  -0.000237
    13  C    4.883235   0.359352   0.376521  -0.000152  -0.000074   0.000003
    14  C    0.359352   5.136777  -0.055075   0.000002  -0.000009  -0.000000
    15  C    0.376521  -0.055075   5.124827   0.000006   0.000000  -0.000000
    16  H   -0.000152   0.000002   0.000006   0.566204  -0.026545  -0.006825
    17  H   -0.000074  -0.000009   0.000000  -0.026545   0.579728  -0.002584
    18  H    0.000003  -0.000000  -0.000000  -0.006825  -0.002584   0.578305
    19  H   -0.000013  -0.000000   0.000002  -0.000000   0.005849  -0.033441
    20  H   -0.000000  -0.000000  -0.000000  -0.000023   0.000121   0.008404
    21  H    0.000000  -0.000000   0.000000  -0.000000   0.000001  -0.000014
    22  H   -0.000000   0.000000  -0.000000   0.000000  -0.000000  -0.000000
    23  H   -0.000053   0.000004   0.000000  -0.000000   0.000002   0.000003
    24  H   -0.003186   0.000237   0.002418  -0.000008   0.000074   0.000009
    25  H   -0.005262   0.001779  -0.002121   0.000007   0.000001  -0.000004
    26  H   -0.042483  -0.005106   0.005211  -0.000086   0.001670  -0.000002
    27  H    0.382161  -0.045167  -0.041791  -0.000021  -0.000052   0.000000
    28  H   -0.030895   0.366303  -0.005120   0.000000   0.000001   0.000000
    29  H   -0.030143   0.368661   0.005204   0.000000  -0.000003  -0.000000
    30  H   -0.029878   0.371413  -0.003323  -0.000000  -0.000000   0.000000
    31  H   -0.034721  -0.005088   0.369372  -0.000000  -0.000000   0.000000
    32  H   -0.030306  -0.003669   0.369534  -0.000000   0.000000   0.000000
    33  H   -0.028513   0.005083   0.368551   0.000002  -0.000003   0.000000
              19         20         21         22         23         24
     1  O    0.000955   0.000000   0.000000   0.000000   0.000000   0.000948
     2  C   -0.004282   0.000006   0.000000   0.000000   0.000003  -0.004785
     3  C   -0.048339   0.000252   0.000001  -0.000000  -0.000000  -0.000088
     4  C    0.359606  -0.011143  -0.000181   0.000009  -0.000179   0.001801
     5  C   -0.028425  -0.039363   0.003620   0.001040   0.005142  -0.006607
     6  C    0.001796   0.350083  -0.038742   0.004351   0.000685  -0.000120
     7  C   -0.000229  -0.045721   0.355922  -0.042150   0.004606   0.000032
     8  C    0.000031   0.004600  -0.042130   0.355777  -0.045604  -0.000238
     9  C   -0.000118   0.000683   0.004386  -0.038515   0.350533   0.002324
    10  C   -0.005696   0.005239   0.001017   0.003598  -0.040010  -0.027786
    11  C    0.001396  -0.000177   0.000009  -0.000185  -0.010902   0.354857
    12  C    0.000368  -0.000002   0.000000   0.000001   0.000222  -0.043163
    13  C   -0.000013  -0.000000   0.000000  -0.000000  -0.000053  -0.003186
    14  C   -0.000000  -0.000000  -0.000000   0.000000   0.000004   0.000237
    15  C    0.000002  -0.000000   0.000000  -0.000000   0.000000   0.002418
    16  H   -0.000000  -0.000023  -0.000000   0.000000  -0.000000  -0.000008
    17  H    0.005849   0.000121   0.000001  -0.000000   0.000002   0.000074
    18  H   -0.033441   0.008404  -0.000014  -0.000000   0.000003   0.000009
    19  H    0.587128   0.000169   0.000003  -0.000000  -0.000001   0.003458
    20  H    0.000169   0.608198  -0.005329  -0.000196   0.000020  -0.000001
    21  H    0.000003  -0.005329   0.597672  -0.005241  -0.000195  -0.000000
    22  H   -0.000000  -0.000196  -0.005241   0.597497  -0.005326   0.000003
    23  H   -0.000001   0.000020  -0.000195  -0.005326   0.607882   0.000173
    24  H    0.003458  -0.000001  -0.000000   0.000003   0.000173   0.586376
    25  H    0.000022   0.000003  -0.000000  -0.000013   0.008085  -0.033165
    26  H    0.000073   0.000002  -0.000000   0.000001   0.000200   0.006211
    27  H   -0.000004   0.000000  -0.000000   0.000000   0.000001  -0.000105
    28  H    0.000000   0.000000  -0.000000  -0.000000   0.000288   0.000001
    29  H   -0.000000   0.000000  -0.000000  -0.000000   0.000007  -0.000004
    30  H   -0.000000   0.000000  -0.000000  -0.000000  -0.000000  -0.000002
    31  H   -0.000004   0.000000   0.000000   0.000000   0.000001   0.000008
    32  H    0.000000   0.000000  -0.000000   0.000000  -0.000000  -0.000011
    33  H   -0.000008   0.000000  -0.000000   0.000000  -0.000000   0.000942
              25         26         27         28         29         30
     1  O   -0.000069   0.002130   0.008609  -0.000009   0.000008   0.000003
     2  C    0.002868  -0.033423  -0.003491  -0.000020   0.000019  -0.000080
     3  C   -0.000232   0.000828   0.000584  -0.000000  -0.000003   0.000002
     4  C    0.000027  -0.000523   0.000003  -0.000000   0.000000  -0.000000
     5  C    0.004674  -0.000551  -0.000008   0.000002   0.000000  -0.000000
     6  C   -0.000159  -0.000155  -0.000000  -0.000000  -0.000000  -0.000000
     7  C   -0.000006  -0.000011   0.000000   0.000000   0.000000  -0.000000
     8  C    0.000299  -0.000124  -0.000000  -0.000001   0.000000   0.000000
     9  C   -0.005206   0.002534  -0.000001  -0.000057   0.000004   0.000001
    10  C   -0.034202   0.001906  -0.000094  -0.000120  -0.000023   0.000003
    11  C    0.363352  -0.050804   0.004832   0.000857   0.000023   0.000080
    12  C   -0.036651   0.353224  -0.051541  -0.006468  -0.004857   0.004378
    13  C   -0.005262  -0.042483   0.382161  -0.030895  -0.030143  -0.029878
    14  C    0.001779  -0.005106  -0.045167   0.366303   0.368661   0.371413
    15  C   -0.002121   0.005211  -0.041791  -0.005120   0.005204  -0.003323
    16  H    0.000007  -0.000086  -0.000021   0.000000   0.000000  -0.000000
    17  H    0.000001   0.001670  -0.000052   0.000001  -0.000003  -0.000000
    18  H   -0.000004  -0.000002   0.000000   0.000000  -0.000000   0.000000
    19  H    0.000022   0.000073  -0.000004   0.000000  -0.000000  -0.000000
    20  H    0.000003   0.000002   0.000000   0.000000   0.000000   0.000000
    21  H   -0.000000  -0.000000  -0.000000  -0.000000  -0.000000  -0.000000
    22  H   -0.000013   0.000001   0.000000  -0.000000  -0.000000  -0.000000
    23  H    0.008085   0.000200   0.000001   0.000288   0.000007  -0.000000
    24  H   -0.033165   0.006211  -0.000105   0.000001  -0.000004  -0.000002
    25  H    0.571679  -0.001804   0.000151   0.006034  -0.000034  -0.000261
    26  H   -0.001804   0.613123  -0.001369  -0.000099   0.005766   0.000059
    27  H    0.000151  -0.001369   0.606698   0.005348  -0.003082  -0.003635
    28  H    0.006034  -0.000099   0.005348   0.586814  -0.032316  -0.031430
    29  H   -0.000034   0.005766  -0.003082  -0.032316   0.580278  -0.029255
    30  H   -0.000261   0.000059  -0.003635  -0.031430  -0.029255   0.571887
    31  H    0.002180  -0.000005   0.005561   0.004054  -0.000008  -0.000180
    32  H   -0.000106  -0.000125  -0.004148  -0.000232  -0.000028   0.004344
    33  H    0.000129   0.000051  -0.003199  -0.000071  -0.000178   0.000014
              31         32         33
     1  O    0.000143   0.000133   0.011524
     2  C    0.000194   0.000034   0.002311
     3  C    0.000012   0.000003   0.000159
     4  C    0.000001  -0.000000  -0.000019
     5  C   -0.000002   0.000000   0.000004
     6  C   -0.000000   0.000000   0.000000
     7  C    0.000000  -0.000000  -0.000000
     8  C   -0.000000   0.000000   0.000000
     9  C   -0.000009   0.000000  -0.000000
    10  C    0.000187  -0.000006  -0.000027
    11  C    0.004171   0.000033  -0.000635
    12  C   -0.009366   0.004877  -0.005722
    13  C   -0.034721  -0.030306  -0.028513
    14  C   -0.005088  -0.003669   0.005083
    15  C    0.369372   0.369534   0.368551
    16  H   -0.000000  -0.000000   0.000002
    17  H   -0.000000   0.000000  -0.000003
    18  H    0.000000   0.000000   0.000000
    19  H   -0.000004   0.000000  -0.000008
    20  H    0.000000   0.000000   0.000000
    21  H    0.000000  -0.000000  -0.000000
    22  H    0.000000   0.000000   0.000000
    23  H    0.000001  -0.000000  -0.000000
    24  H    0.000008  -0.000011   0.000942
    25  H    0.002180  -0.000106   0.000129
    26  H   -0.000005  -0.000125   0.000051
    27  H    0.005561  -0.004148  -0.003199
    28  H    0.004054  -0.000232  -0.000071
    29  H   -0.000008  -0.000028  -0.000178
    30  H   -0.000180   0.004344   0.000014
    31  H    0.592349  -0.032708  -0.030010
    32  H   -0.032708   0.578958  -0.026011
    33  H   -0.030010  -0.026011   0.536829
 Mulliken charges:
               1
     1  O   -0.446878
     2  C    0.440060
     3  C   -0.335412
     4  C   -0.369805
     5  C    0.134096
     6  C   -0.194178
     7  C   -0.125758
     8  C   -0.127538
     9  C   -0.191452
    10  C    0.126506
    11  C   -0.385880
    12  C   -0.158064
    13  C   -0.069070
    14  C   -0.453665
    15  C   -0.455781
    16  H    0.164576
    17  H    0.157625
    18  H    0.153865
    19  H    0.159703
    20  H    0.124175
    21  H    0.129202
    22  H    0.129348
    23  H    0.124415
    24  H    0.159398
    25  H    0.158006
    26  H    0.143682
    27  H    0.143763
    28  H    0.137137
    29  H    0.139963
    30  H    0.145859
    31  H    0.133870
    32  H    0.139434
    33  H    0.168797
 Sum of Mulliken charges =  -0.00000
 Mulliken charges with hydrogens summed into heavy atoms:
               1
     1  O   -0.446878
     2  C    0.440060
     3  C   -0.013211
     4  C   -0.056236
     5  C    0.134096
     6  C   -0.070003
     7  C    0.003444
     8  C    0.001810
     9  C   -0.067037
    10  C    0.126506
    11  C   -0.068476
    12  C   -0.014382
    13  C    0.074692
    14  C   -0.030707
    15  C   -0.013679
 APT charges:
               1
     1  O   -0.645036
     2  C    0.683948
     3  C   -0.053746
     4  C    0.153553
     5  C   -0.006030
     6  C   -0.029884
     7  C   -0.021823
     8  C   -0.014303
     9  C   -0.045696
    10  C    0.036278
    11  C    0.104933
    12  C   -0.059654
    13  C    0.141501
    14  C    0.058009
    15  C    0.035028
    16  H   -0.034980
    17  H   -0.004350
    18  H   -0.035416
    19  H   -0.039249
    20  H    0.009176
    21  H    0.009991
    22  H    0.009874
    23  H    0.012755
    24  H   -0.034442
    25  H   -0.015548
    26  H   -0.030946
    27  H   -0.056446
    28  H   -0.020637
    29  H   -0.029494
    30  H   -0.034774
    31  H   -0.022763
    32  H   -0.035120
    33  H    0.015292
 Sum of APT charges =  -0.00000
 APT charges with hydrogens summed into heavy atoms:
               1
     1  O   -0.645036
     2  C    0.683948
     3  C   -0.093076
     4  C    0.078887
     5  C   -0.006030
     6  C   -0.020708
     7  C   -0.011832
     8  C   -0.004429
     9  C   -0.032941
    10  C    0.036278
    11  C    0.054943
    12  C   -0.090600
    13  C    0.085054
    14  C   -0.026895
    15  C   -0.007563
 Electronic spatial extent (au):  <R**2>=           3482.6939
 Charge=             -0.0000 electrons
 Dipole moment (field-independent basis, Debye):
    X=              2.0599    Y=             -1.1125    Z=             -0.3900  Tot=              2.3733
 Quadrupole moment (field-independent basis, Debye-Ang):
   XX=            -93.3107   YY=            -89.4162   ZZ=            -90.9544
   XY=              6.9561   XZ=             -0.8354   YZ=             -0.3431
 Traceless Quadrupole moment (field-independent basis, Debye-Ang):
   XX=             -2.0836   YY=              1.8109   ZZ=              0.2727
   XY=              6.9561   XZ=             -0.8354   YZ=             -0.3431
 Octapole moment (field-independent basis, Debye-Ang**2):
  XXX=             26.0268  YYY=             -0.4397  ZZZ=             -2.1707  XYY=             21.8001
  XXY=            -17.0545  XXZ=             -9.7417  XZZ=            -12.2138  YZZ=              7.3656
  YYZ=              0.2038  XYZ=              0.9234
 Hexadecapole moment (field-independent basis, Debye-Ang**3):
 XXXX=          -3016.8779 YYYY=          -1266.5558 ZZZZ=           -309.9435 XXXY=             26.0935
 XXXZ=            -29.2308 YYYX=              1.6876 YYYZ=             -6.8142 ZZZX=              4.5603
 ZZZY=              0.3648 XXYY=           -745.2453 XXZZ=           -600.9805 YYZZ=           -269.3681
 XXYZ=              7.7584 YYXZ=             -4.9133 ZZXY=             -5.4114
 N-N= 9.911989771670D+02 E-N=-3.418589156118D+03  KE= 6.135524329507D+02
  Exact polarizability: 180.659  -4.010 151.642 -10.927   1.554  90.848
 Approx polarizability: 252.466 -11.739 238.421 -22.929   2.884 142.866
 Calling FoFJK, ICntrl=    100127 FMM=F ISym2X=0 I1Cent= 0 IOpClX= 0 NMat=1 NMatS=1 NMatT=0.
 Full mass-weighted force constant matrix:
 Low frequencies ---   -3.8125    0.0003    0.0004    0.0008    4.0224    6.9965
 Low frequencies ---   50.1681   60.7994   99.4201
 Diagonal vibrational polarizability:
        5.1711424       6.1255028      25.5586532
 Harmonic frequencies (cm**-1), IR intensities (KM/Mole), Raman scattering
 activities (A**4/AMU), depolarization ratios for plane and unpolarized
 incident light, reduced masses (AMU), force constants (mDyne/A),
 and normal coordinates:
                      1                      2                      3
                      A                      A                      A
 Frequencies --     50.1591                60.7941                99.4199
 Red. masses --      4.8913                 3.3816                 3.0190
 Frc consts  --      0.0073                 0.0074                 0.0176
 IR Inten    --      1.5437                 0.1877                 1.1946
  Atom  AN      X      Y      Z        X      Y      Z        X      Y      Z
     1   8     0.05   0.01   0.33    -0.04   0.00  -0.06     0.05  -0.00   0.19
     2   6    -0.01   0.02   0.07    -0.00   0.03   0.04     0.01  -0.02   0.03
     3   6    -0.04  -0.00  -0.13    -0.01   0.06   0.11     0.00  -0.04  -0.05
     4   6     0.03   0.05  -0.19     0.04   0.02   0.05    -0.01  -0.00  -0.02
     5   6    -0.01   0.01  -0.10     0.00   0.00   0.01    -0.00   0.00   0.00
     6   6    -0.01  -0.03  -0.11    -0.03  -0.04  -0.12     0.01   0.02   0.05
     7   6    -0.01  -0.05   0.02    -0.08  -0.06  -0.16     0.02   0.03   0.04
     8   6    -0.01  -0.03   0.16    -0.09  -0.04  -0.05     0.02   0.02  -0.04
     9   6    -0.01   0.01   0.16    -0.06  -0.00   0.08     0.01   0.00  -0.08
    10   6    -0.01   0.03   0.02    -0.01   0.02   0.10     0.00  -0.01  -0.05
    11   6    -0.02   0.04   0.02    -0.00   0.08   0.13    -0.00  -0.03  -0.05
    12   6    -0.01   0.03  -0.00     0.05   0.03   0.06    -0.01  -0.01  -0.04
    13   6     0.00  -0.00  -0.05     0.07  -0.03  -0.05    -0.01  -0.02  -0.06
    14   6     0.04   0.05  -0.16     0.21  -0.06   0.01     0.04  -0.11   0.15
    15   6    -0.00  -0.13  -0.05    -0.07  -0.00  -0.12    -0.14   0.16  -0.12
    16   1    -0.03   0.00  -0.17    -0.02   0.06   0.18     0.01  -0.03  -0.09
    17   1    -0.12  -0.08  -0.14    -0.03   0.14   0.08     0.01  -0.09  -0.03
    18   1     0.04   0.02  -0.31     0.05   0.00   0.02    -0.02   0.00  -0.01
    19   1     0.09   0.15  -0.17     0.09   0.01   0.07    -0.04   0.01  -0.03
    20   1    -0.01  -0.04  -0.21    -0.02  -0.05  -0.20     0.01   0.02   0.10
    21   1    -0.01  -0.07   0.02    -0.10  -0.09  -0.27     0.03   0.04   0.07
    22   1    -0.01  -0.05   0.27    -0.12  -0.06  -0.07     0.03   0.03  -0.07
    23   1    -0.01   0.02   0.26    -0.07   0.01   0.15     0.01  -0.00  -0.13
    24   1    -0.02   0.06   0.00     0.01   0.16   0.09    -0.00  -0.05  -0.04
    25   1    -0.02   0.05   0.04    -0.03   0.10   0.21     0.01  -0.04  -0.07
    26   1     0.02   0.05   0.01     0.13   0.04   0.10    -0.01   0.01  -0.04
    27   1    -0.01   0.04   0.00     0.11  -0.09  -0.15     0.04  -0.12  -0.21
    28   1     0.09   0.03  -0.23     0.17  -0.00   0.12    -0.09  -0.04   0.36
    29   1     0.02   0.15  -0.18     0.33  -0.09   0.06     0.23  -0.28   0.22
    30   1     0.06   0.01  -0.17     0.23  -0.11  -0.09     0.03  -0.07   0.03
    31   1     0.00  -0.18  -0.10    -0.10   0.08  -0.03    -0.16   0.32   0.02
    32   1     0.00  -0.15  -0.09    -0.04  -0.08  -0.20    -0.11   0.07  -0.16
    33   1    -0.02  -0.17   0.04    -0.19   0.02  -0.18    -0.25   0.22  -0.30
                      4                      5                      6
                      A                      A                      A
 Frequencies --    131.2713               138.8873               196.2483
 Red. masses --      3.6915                 3.3081                 2.9902
 Frc consts  --      0.0375                 0.0376                 0.0679
 IR Inten    --      0.9318                 0.1883                 0.4405
  Atom  AN      X      Y      Z        X      Y      Z        X      Y      Z
     1   8     0.15  -0.01   0.04    -0.01   0.06   0.01     0.04   0.01   0.08
     2   6     0.09  -0.06  -0.07    -0.03   0.04  -0.02     0.02   0.03  -0.06
     3   6     0.11  -0.12  -0.17     0.00   0.00  -0.05     0.01   0.05  -0.00
     4   6    -0.05   0.03   0.05     0.03   0.05  -0.06    -0.09  -0.04   0.09
     5   6    -0.02   0.03   0.16     0.02   0.03   0.02    -0.07  -0.02   0.01
     6   6    -0.05   0.05   0.06     0.05  -0.04   0.15    -0.09   0.00  -0.04
     7   6    -0.08   0.06  -0.11    -0.02  -0.08   0.13    -0.08   0.01  -0.04
     8   6    -0.08   0.05  -0.14    -0.12  -0.05  -0.08    -0.04  -0.01   0.06
     9   6    -0.04   0.04   0.01    -0.13   0.02  -0.15    -0.03  -0.03   0.07
    10   6    -0.02   0.03   0.14    -0.04   0.05  -0.06    -0.05  -0.03   0.00
    11   6    -0.02   0.01   0.12    -0.02   0.11  -0.01    -0.05  -0.02  -0.10
    12   6     0.04  -0.06   0.03    -0.03   0.04  -0.02     0.03   0.03  -0.14
    13   6     0.01  -0.01  -0.00     0.02  -0.05   0.03     0.06  -0.00  -0.05
    14   6    -0.05   0.02  -0.06     0.16  -0.06   0.04     0.08  -0.05   0.06
    15   6    -0.00  -0.03  -0.01     0.08  -0.11   0.06     0.22   0.08   0.02
    16   1     0.12  -0.12  -0.41     0.02   0.01  -0.10     0.01   0.05   0.04
    17   1     0.23  -0.35  -0.06    -0.01  -0.05  -0.05     0.09   0.10   0.01
    18   1    -0.06   0.04   0.10     0.03   0.04  -0.13    -0.08  -0.03   0.26
    19   1    -0.21   0.07  -0.03     0.05   0.13  -0.05    -0.20  -0.16   0.05
    20   1    -0.06   0.05   0.06     0.12  -0.07   0.26    -0.11   0.01  -0.08
    21   1    -0.10   0.07  -0.21     0.01  -0.13   0.23    -0.09   0.02  -0.08
    22   1    -0.10   0.06  -0.28    -0.17  -0.07  -0.16    -0.01   0.00   0.10
    23   1    -0.04   0.03  -0.02    -0.21   0.05  -0.26    -0.02  -0.03   0.10
    24   1    -0.08   0.06   0.08     0.02   0.19  -0.04    -0.12  -0.04  -0.10
    25   1    -0.01   0.01   0.16    -0.03   0.13   0.08    -0.08  -0.02  -0.15
    26   1     0.08  -0.16   0.08    -0.03   0.04  -0.01     0.04   0.03  -0.14
    27   1     0.04   0.05   0.02    -0.07  -0.11   0.05    -0.03  -0.07  -0.04
    28   1    -0.03  -0.01  -0.12     0.30   0.03  -0.01     0.28   0.06  -0.02
    29   1    -0.09   0.06  -0.08     0.07  -0.01   0.01    -0.14  -0.08  -0.03
    30   1    -0.05   0.04  -0.03     0.21  -0.20   0.13     0.12  -0.16   0.31
    31   1    -0.06  -0.12  -0.04     0.17  -0.06   0.04     0.27   0.07  -0.02
    32   1    -0.03   0.06  -0.04     0.11  -0.22   0.11     0.19   0.13   0.16
    33   1     0.08  -0.05   0.05    -0.01  -0.12   0.06     0.32   0.09  -0.01
                      7                      8                      9
                      A                      A                      A
 Frequencies --    215.2936               232.6033               250.0255
 Red. masses --      2.6326                 1.1818                 1.1365
 Frc consts  --      0.0719                 0.0377                 0.0419
 IR Inten    --      1.6634                 0.0827                 0.0771
  Atom  AN      X      Y      Z        X      Y      Z        X      Y      Z
     1   8     0.02   0.16  -0.04    -0.00   0.02  -0.01    -0.01   0.02  -0.00
     2   6    -0.01   0.08   0.00    -0.01   0.00   0.01    -0.01   0.02   0.01
     3   6     0.03  -0.04  -0.09    -0.00  -0.02  -0.00    -0.01   0.01  -0.03
     4   6    -0.08  -0.08   0.02    -0.00  -0.02  -0.00    -0.02  -0.01  -0.02
     5   6    -0.05  -0.06  -0.01     0.00  -0.01  -0.01    -0.02  -0.01  -0.01
     6   6    -0.05   0.01  -0.03     0.00   0.00  -0.00    -0.02  -0.00   0.01
     7   6     0.00   0.04  -0.01     0.02   0.01   0.00    -0.01   0.00   0.02
     8   6     0.06   0.01   0.02     0.03   0.01  -0.00     0.00  -0.00  -0.01
     9   6     0.05  -0.05   0.00     0.02  -0.01  -0.01    -0.00  -0.02  -0.02
    10   6    -0.01  -0.08  -0.03     0.01  -0.02  -0.01    -0.01  -0.02  -0.01
    11   6    -0.01  -0.07  -0.02     0.01  -0.01   0.01     0.00  -0.02   0.01
    12   6    -0.04   0.07   0.07    -0.01   0.00   0.03     0.01   0.02   0.02
    13   6    -0.02   0.03   0.06    -0.02   0.01   0.01     0.03   0.01   0.00
    14   6     0.13   0.05   0.00     0.04   0.01   0.01     0.05   0.00   0.03
    15   6    -0.06  -0.07   0.05    -0.08   0.02  -0.02     0.01  -0.01  -0.00
    16   1     0.13  -0.01  -0.21     0.01  -0.01  -0.02     0.00   0.02  -0.03
    17   1     0.06  -0.19  -0.04    -0.01  -0.04  -0.00    -0.02  -0.01  -0.02
    18   1    -0.08  -0.07   0.17    -0.01  -0.02   0.00    -0.02  -0.02  -0.00
    19   1    -0.19  -0.17  -0.02    -0.00  -0.03  -0.00    -0.04  -0.01  -0.02
    20   1    -0.10   0.03  -0.03    -0.01   0.01   0.00    -0.02   0.00   0.01
    21   1    -0.00   0.08  -0.01     0.02   0.02   0.01    -0.00   0.02   0.04
    22   1     0.11   0.04   0.05     0.04   0.01   0.00     0.01   0.00  -0.01
    23   1     0.10  -0.07   0.01     0.04  -0.02  -0.01     0.00  -0.02  -0.03
    24   1     0.03  -0.18   0.05     0.03  -0.01   0.02     0.01  -0.05   0.03
    25   1    -0.04  -0.08  -0.14     0.00  -0.00   0.02    -0.01  -0.02  -0.03
    26   1    -0.09   0.10   0.04    -0.02   0.00   0.02     0.02   0.04   0.02
    27   1    -0.05   0.00   0.07    -0.00  -0.01  -0.02     0.03   0.01  -0.01
    28   1     0.07   0.05   0.06     0.47   0.14  -0.27    -0.15  -0.03   0.19
    29   1     0.30   0.12   0.06    -0.40   0.11  -0.16     0.29  -0.05   0.12
    30   1     0.16  -0.01  -0.18     0.13  -0.23   0.45     0.02   0.08  -0.20
    31   1     0.11   0.15   0.11    -0.25  -0.14  -0.04    -0.27  -0.42  -0.14
    32   1     0.06  -0.38   0.05    -0.16   0.23  -0.11    -0.15   0.45  -0.10
    33   1    -0.37  -0.05  -0.03     0.09  -0.00   0.06     0.44  -0.08   0.24
                     10                     11                     12
                      A                      A                      A
 Frequencies --    264.2995               316.0811               327.9859
 Red. masses --      3.6421                 2.4685                 3.4941
 Frc consts  --      0.1499                 0.1453                 0.2215
 IR Inten    --      2.9556                 1.2948                 0.6680
  Atom  AN      X      Y      Z        X      Y      Z        X      Y      Z
     1   8    -0.10  -0.14   0.01     0.05  -0.06   0.02    -0.13   0.08   0.04
     2   6    -0.03  -0.03   0.03     0.05  -0.04  -0.06    -0.16   0.04   0.01
     3   6    -0.11   0.01  -0.07     0.03   0.01  -0.00    -0.07  -0.14  -0.02
     4   6    -0.08  -0.03  -0.11    -0.08  -0.08   0.09    -0.07  -0.12   0.05
     5   6    -0.06  -0.05  -0.02    -0.01  -0.00  -0.11     0.10  -0.02   0.04
     6   6    -0.05  -0.01   0.07    -0.02   0.02  -0.11     0.11  -0.01   0.05
     7   6    -0.01   0.01   0.07     0.01   0.01   0.09     0.07  -0.03  -0.07
     8   6     0.00  -0.01  -0.07    -0.00   0.01   0.07     0.05  -0.02  -0.04
     9   6     0.01  -0.06  -0.06    -0.05  -0.00  -0.12     0.06  -0.02   0.07
    10   6     0.00  -0.08   0.04    -0.01   0.01  -0.09     0.07   0.00   0.02
    11   6     0.03  -0.05   0.12     0.04   0.13   0.09     0.04   0.18   0.01
    12   6     0.09  -0.01   0.09     0.03  -0.03   0.02    -0.06   0.05  -0.04
    13   6     0.09   0.07   0.01     0.01   0.01   0.02    -0.01  -0.03  -0.05
    14   6     0.09   0.13  -0.09    -0.02   0.03  -0.01    -0.04  -0.03  -0.05
    15   6     0.09   0.19   0.01    -0.04  -0.01   0.00     0.07   0.06  -0.03
    16   1    -0.10   0.01  -0.04    -0.00  -0.00   0.05     0.09  -0.10  -0.19
    17   1    -0.17   0.01  -0.10     0.11   0.07   0.01    -0.07  -0.35   0.03
    18   1    -0.06  -0.05  -0.16    -0.12  -0.01   0.37    -0.18  -0.01   0.16
    19   1    -0.06   0.05  -0.11    -0.21  -0.34   0.05    -0.15  -0.24   0.03
    20   1    -0.06  -0.00   0.11    -0.03   0.02  -0.13     0.13  -0.02   0.08
    21   1     0.00   0.05   0.13     0.04  -0.01   0.24     0.05  -0.06  -0.16
    22   1     0.02   0.01  -0.15     0.04   0.01   0.21     0.02  -0.03  -0.09
    23   1     0.02  -0.07  -0.10    -0.06   0.00  -0.14     0.07  -0.01   0.12
    24   1     0.09  -0.04   0.12     0.17   0.37  -0.02     0.11   0.37  -0.08
    25   1    -0.01  -0.04   0.12    -0.02   0.19   0.37    -0.04   0.23   0.23
    26   1     0.15  -0.01   0.12     0.05  -0.13   0.06    -0.02   0.11  -0.03
    27   1     0.14   0.12   0.01     0.04   0.04   0.03    -0.03  -0.04  -0.05
    28   1     0.13   0.08  -0.18    -0.05  -0.00  -0.00    -0.09  -0.06  -0.02
    29   1     0.07   0.26  -0.10     0.02   0.04   0.00    -0.00  -0.05  -0.03
    30   1     0.10   0.11  -0.12    -0.03   0.06  -0.05    -0.06   0.01  -0.09
    31   1     0.18   0.38   0.12    -0.06  -0.02   0.02     0.08   0.05  -0.04
    32   1     0.14   0.05   0.09    -0.03  -0.03  -0.05     0.03   0.14   0.07
    33   1    -0.02   0.25  -0.18    -0.06  -0.02   0.02     0.18   0.08  -0.07
                     13                     14                     15
                      A                      A                      A
 Frequencies --    356.3190               368.1277               409.3514
 Red. masses --      2.9416                 3.2583                 2.2535
 Frc consts  --      0.2200                 0.2602                 0.2225
 IR Inten    --      0.0950                 2.4427                 0.6166
  Atom  AN      X      Y      Z        X      Y      Z        X      Y      Z
     1   8    -0.03  -0.12  -0.01     0.02   0.14  -0.04     0.06   0.00   0.01
     2   6    -0.01  -0.09   0.01    -0.02  -0.00   0.13     0.02  -0.04  -0.05
     3   6     0.02  -0.13   0.03     0.03  -0.12   0.07     0.02  -0.01   0.07
     4   6     0.02   0.03   0.08     0.07   0.03   0.01     0.09  -0.04  -0.05
     5   6     0.06   0.07   0.03    -0.02   0.00  -0.01    -0.04  -0.09   0.00
     6   6     0.05   0.01  -0.05    -0.06   0.02  -0.12    -0.05   0.01   0.05
     7   6    -0.01  -0.04  -0.04    -0.01   0.04   0.06     0.01   0.08  -0.02
     8   6    -0.04  -0.01   0.07    -0.01   0.04   0.07     0.05   0.06  -0.02
     9   6    -0.05   0.07   0.01    -0.05   0.03  -0.12     0.04  -0.04   0.03
    10   6    -0.00   0.09  -0.05    -0.05   0.01  -0.02    -0.05  -0.08  -0.01
    11   6    -0.01  -0.02  -0.11    -0.02  -0.05   0.08    -0.07   0.08   0.01
    12   6    -0.06  -0.03  -0.03    -0.03  -0.03   0.10    -0.08  -0.04  -0.07
    13   6    -0.06   0.03   0.06     0.01  -0.11  -0.05    -0.09  -0.02   0.01
    14   6     0.14   0.09  -0.05    -0.03  -0.12  -0.09     0.05  -0.00  -0.05
    15   6    -0.04   0.09   0.09     0.11   0.08  -0.03    -0.01   0.04   0.06
    16   1     0.01  -0.13  -0.15     0.07  -0.11  -0.15    -0.03  -0.02   0.23
    17   1     0.07  -0.28   0.09    -0.01  -0.33   0.11     0.00   0.16   0.01
    18   1    -0.05   0.09   0.07     0.09  -0.00  -0.16     0.16  -0.13  -0.25
    19   1     0.02  -0.01   0.08     0.19   0.15   0.06     0.23   0.15   0.00
    20   1     0.09  -0.02  -0.09    -0.10   0.04  -0.21    -0.12   0.06   0.11
    21   1    -0.02  -0.10  -0.08     0.02   0.03   0.16     0.01   0.13  -0.05
    22   1    -0.08  -0.04   0.15     0.02   0.04   0.18     0.09   0.09  -0.05
    23   1    -0.10   0.10   0.01    -0.06   0.02  -0.20     0.13  -0.09   0.06
    24   1    -0.09  -0.13  -0.07     0.02  -0.10   0.11     0.01   0.36  -0.12
    25   1     0.09  -0.06  -0.21     0.02  -0.07   0.04    -0.17   0.16   0.31
    26   1    -0.15  -0.04  -0.07     0.05   0.08   0.11    -0.09  -0.11  -0.05
    27   1    -0.08   0.02   0.07     0.03  -0.11  -0.08    -0.13  -0.04   0.03
    28   1     0.14   0.10  -0.04    -0.04  -0.17  -0.15     0.05   0.02  -0.02
    29   1     0.34   0.29   0.02    -0.07  -0.08  -0.11     0.20   0.11   0.01
    30   1     0.21  -0.06  -0.30    -0.05  -0.07  -0.08     0.10  -0.11  -0.22
    31   1    -0.09   0.07   0.10     0.14   0.15   0.01    -0.00   0.04   0.06
    32   1    -0.08   0.20   0.11     0.06   0.18   0.16    -0.05   0.11   0.16
    33   1     0.06   0.11   0.05     0.26   0.15  -0.19     0.09   0.06   0.02
                     16                     17                     18
                      A                      A                      A
 Frequencies --    429.8123               482.3024               498.3397
 Red. masses --      2.4200                 3.5440                 2.9808
 Frc consts  --      0.2634                 0.4857                 0.4361
 IR Inten    --      1.7093                 5.1747                 1.6192
  Atom  AN      X      Y      Z        X      Y      Z        X      Y      Z
     1   8    -0.06  -0.08  -0.01    -0.05   0.00   0.04     0.03   0.01   0.00
     2   6    -0.01  -0.01   0.04    -0.05   0.05  -0.11    -0.01  -0.03  -0.04
     3   6     0.02  -0.11   0.03    -0.02   0.09  -0.06    -0.02  -0.00   0.00
     4   6     0.06  -0.00   0.01    -0.01   0.06   0.02    -0.01  -0.10  -0.04
     5   6    -0.01  -0.04   0.07     0.03  -0.01   0.23     0.07  -0.02  -0.06
     6   6    -0.05   0.01  -0.05    -0.04  -0.05  -0.13     0.09  -0.01  -0.09
     7   6     0.00   0.04   0.01     0.05  -0.04   0.04     0.14  -0.01   0.09
     8   6     0.03   0.03   0.04     0.09  -0.06   0.06    -0.03   0.06  -0.09
     9   6    -0.00  -0.02  -0.07     0.03  -0.03  -0.16    -0.01   0.09   0.01
    10   6    -0.02  -0.04   0.02     0.07  -0.04   0.19    -0.02   0.05   0.18
    11   6    -0.03   0.04  -0.00     0.00   0.03  -0.02    -0.11  -0.06   0.08
    12   6     0.01   0.04  -0.04     0.00   0.02  -0.08    -0.07  -0.02  -0.00
    13   6    -0.00   0.14  -0.08    -0.00  -0.05   0.05    -0.12   0.05  -0.08
    14   6    -0.00   0.11   0.12     0.00  -0.04  -0.04     0.02   0.03   0.02
    15   6     0.05  -0.07  -0.08    -0.05   0.02   0.06     0.04  -0.00  -0.02
    16   1     0.12  -0.08  -0.18    -0.00   0.09   0.02    -0.06  -0.02   0.23
    17   1     0.01  -0.33   0.08     0.03   0.16  -0.06    -0.06   0.22  -0.07
    18   1     0.10  -0.06  -0.21     0.02   0.02  -0.08    -0.09  -0.01   0.14
    19   1     0.18   0.19   0.04    -0.05   0.24  -0.01    -0.07  -0.30  -0.05
    20   1    -0.11   0.03  -0.14    -0.10  -0.05  -0.49     0.04   0.01  -0.18
    21   1     0.00   0.06   0.00     0.03   0.02  -0.02     0.16  -0.08   0.19
    22   1     0.06   0.04   0.09     0.09  -0.06   0.03    -0.14   0.02  -0.21
    23   1     0.01  -0.04  -0.16    -0.05  -0.03  -0.51     0.00   0.07  -0.10
    24   1    -0.01   0.12  -0.04    -0.10   0.04  -0.05    -0.28  -0.22   0.13
    25   1    -0.09   0.06   0.08    -0.07   0.04  -0.04    -0.00  -0.12  -0.11
    26   1     0.03   0.07  -0.04    -0.04  -0.03  -0.08    -0.00  -0.08   0.05
    27   1    -0.00   0.15  -0.07    -0.05  -0.08   0.07    -0.13   0.05  -0.07
    28   1     0.02   0.25   0.25    -0.02  -0.11  -0.10     0.08   0.18   0.14
    29   1    -0.02  -0.11   0.11     0.02   0.07  -0.03     0.10  -0.03   0.05
    30   1     0.01   0.08   0.25    -0.00  -0.02  -0.11     0.09  -0.13   0.01
    31   1     0.16  -0.14  -0.23    -0.13   0.04   0.15     0.19  -0.02  -0.15
    32   1     0.10  -0.22  -0.11    -0.07   0.07   0.01     0.04  -0.04   0.16
    33   1    -0.08  -0.16   0.14    -0.04   0.05  -0.01     0.09  -0.03   0.05
                     19                     20                     21
                      A                      A                      A
 Frequencies --    544.5370               572.3680               586.4879
 Red. masses --      3.1458                 3.8228                 3.4162
 Frc consts  --      0.5496                 0.7379                 0.6923
 IR Inten    --      0.7083                 6.0153                 0.6128
  Atom  AN      X      Y      Z        X      Y      Z        X      Y      Z
     1   8    -0.06  -0.03   0.01     0.15   0.16  -0.03    -0.00  -0.00   0.01
     2   6    -0.01   0.05   0.01    -0.02  -0.13   0.00    -0.01   0.00  -0.03
     3   6     0.06  -0.05   0.03    -0.18  -0.15   0.11    -0.01   0.01  -0.05
     4   6     0.08  -0.14  -0.03    -0.10  -0.05  -0.07     0.02  -0.15  -0.10
     5   6     0.02  -0.07  -0.07     0.02   0.04   0.05     0.10  -0.07   0.11
     6   6     0.01   0.07  -0.05    -0.01   0.06  -0.02     0.11   0.04   0.10
     7   6     0.00   0.07   0.09    -0.09   0.01   0.05     0.00   0.04  -0.18
     8   6    -0.11   0.11  -0.06    -0.05  -0.03   0.00    -0.04   0.10   0.21
     9   6    -0.07   0.00   0.06    -0.03  -0.05   0.01    -0.11   0.03  -0.11
    10   6    -0.02  -0.01   0.09     0.10   0.01   0.05    -0.06   0.01  -0.05
    11   6    -0.03   0.04  -0.09     0.11   0.02  -0.08    -0.04  -0.02   0.04
    12   6     0.08   0.07  -0.08     0.04  -0.08  -0.07     0.01   0.01   0.07
    13   6     0.16  -0.05   0.11     0.07   0.03   0.03     0.04  -0.00   0.01
    14   6    -0.01  -0.02  -0.01     0.02   0.08   0.04    -0.00  -0.00   0.00
    15   6    -0.05   0.00   0.05    -0.00  -0.01  -0.02     0.02  -0.00  -0.02
    16   1     0.23  -0.01  -0.03    -0.36  -0.20   0.40    -0.00   0.01   0.32
    17   1     0.01  -0.16   0.03    -0.24   0.17   0.01    -0.13   0.32  -0.17
    18   1     0.10  -0.15  -0.05    -0.19   0.01  -0.29    -0.01  -0.12  -0.04
    19   1     0.15  -0.15  -0.00     0.04   0.08  -0.02    -0.07  -0.12  -0.13
    20   1    -0.07   0.10  -0.07     0.00   0.04  -0.16     0.04   0.08   0.08
    21   1     0.02  -0.01   0.17    -0.10  -0.02   0.00    -0.05  -0.08  -0.43
    22   1    -0.12   0.12  -0.18    -0.01   0.01  -0.10    -0.03   0.08   0.37
    23   1    -0.04  -0.02   0.01    -0.12  -0.01  -0.10    -0.08   0.01  -0.23
    24   1    -0.18  -0.05  -0.07     0.05   0.08  -0.13    -0.01  -0.13   0.10
    25   1    -0.07   0.03  -0.23     0.13   0.03   0.00     0.00  -0.05  -0.08
    26   1     0.03   0.11  -0.12    -0.03  -0.04  -0.11     0.05  -0.02   0.09
    27   1     0.11  -0.08   0.12     0.10   0.08   0.04     0.06  -0.00  -0.00
    28   1    -0.10  -0.24  -0.17     0.01   0.08   0.04    -0.02  -0.04  -0.02
    29   1    -0.11   0.06  -0.05     0.01   0.07   0.04    -0.04  -0.01  -0.01
    30   1    -0.09   0.19   0.00     0.01   0.10   0.05    -0.02   0.06   0.03
    31   1    -0.27   0.02   0.24    -0.06  -0.04   0.01    -0.00   0.00   0.00
    32   1    -0.04   0.03  -0.23     0.02  -0.05  -0.17     0.02  -0.00  -0.04
    33   1    -0.15   0.03  -0.03    -0.10  -0.04   0.03     0.00   0.00  -0.03
                     22                     23                     24
                      A                      A                      A
 Frequencies --    633.7541               708.7943               746.0629
 Red. masses --      4.3684                 3.3392                 3.2331
 Frc consts  --      1.0337                 0.9884                 1.0603
 IR Inten    --      2.9406                 6.8424                 1.4620
  Atom  AN      X      Y      Z        X      Y      Z        X      Y      Z
     1   8     0.04   0.06  -0.00     0.07  -0.08  -0.09    -0.01  -0.03   0.03
     2   6    -0.02  -0.04  -0.02     0.16  -0.02   0.29    -0.03  -0.01  -0.11
     3   6    -0.08  -0.06   0.05     0.00   0.02  -0.02     0.06  -0.06  -0.02
     4   6    -0.06   0.03   0.03    -0.06  -0.03  -0.11     0.03  -0.12  -0.01
     5   6    -0.10  -0.01  -0.03    -0.03  -0.00   0.04    -0.03  -0.02   0.16
     6   6    -0.04  -0.20   0.03    -0.04  -0.05   0.03    -0.13  -0.08  -0.04
     7   6     0.19  -0.08  -0.09     0.02  -0.01   0.02    -0.01  -0.01   0.10
     8   6     0.12  -0.00  -0.01     0.04  -0.01   0.02    -0.00  -0.01  -0.07
     9   6     0.07   0.21  -0.04     0.03   0.05   0.01     0.05   0.14   0.07
    10   6    -0.16   0.07  -0.01    -0.01   0.02   0.04    -0.02   0.08  -0.15
    11   6    -0.17   0.01   0.02    -0.02   0.09  -0.11     0.10   0.07  -0.03
    12   6     0.04  -0.02  -0.06    -0.01   0.10   0.02    -0.05   0.07   0.13
    13   6     0.18  -0.01   0.08    -0.04  -0.00  -0.02    -0.01  -0.00   0.00
    14   6     0.02   0.05   0.03    -0.01  -0.06  -0.03    -0.00  -0.01  -0.00
    15   6     0.02  -0.01  -0.00    -0.02   0.00   0.02     0.01  -0.00  -0.04
    16   1    -0.14  -0.08  -0.00    -0.06  -0.00   0.03     0.07  -0.06   0.34
    17   1    -0.03  -0.08   0.07    -0.30  -0.02  -0.13     0.09   0.29  -0.09
    18   1    -0.08   0.04  -0.07    -0.07   0.00   0.22     0.07  -0.17  -0.16
    19   1     0.01   0.05   0.06    -0.29  -0.19  -0.18     0.04   0.09  -0.02
    20   1    -0.06  -0.18   0.17    -0.11  -0.04  -0.21    -0.21  -0.07  -0.28
    21   1     0.20   0.07  -0.03    -0.04   0.06  -0.22    -0.05   0.13  -0.03
    22   1    -0.07  -0.14   0.15    -0.06  -0.03  -0.21    -0.11  -0.06  -0.16
    23   1     0.15   0.17   0.04    -0.04   0.06  -0.23     0.01   0.17   0.17
    24   1    -0.25   0.06  -0.02    -0.01   0.19  -0.16     0.24  -0.17   0.13
    25   1    -0.18   0.01   0.03    -0.07   0.13   0.03     0.16   0.01  -0.27
    26   1     0.08  -0.05  -0.03    -0.09   0.34  -0.09    -0.03  -0.00   0.15
    27   1     0.14  -0.02   0.10    -0.05  -0.02  -0.02     0.03  -0.01  -0.04
    28   1    -0.07  -0.13  -0.08    -0.01  -0.05  -0.02    -0.02  -0.03  -0.01
    29   1    -0.08   0.07  -0.01    -0.02  -0.08  -0.03    -0.03  -0.02  -0.01
    30   1    -0.06   0.25   0.06    -0.01  -0.05  -0.01    -0.02   0.03   0.02
    31   1    -0.19  -0.01   0.16     0.02   0.01   0.01     0.07   0.01  -0.08
    32   1     0.04  -0.02  -0.30    -0.03   0.02   0.10     0.00   0.01   0.05
    33   1    -0.14  -0.01  -0.02     0.03   0.01   0.01     0.07   0.01  -0.05
                     25                     26                     27
                      A                      A                      A
 Frequencies --    755.6110               772.1422               786.8839
 Red. masses --      4.1653                 1.3655                 2.6049
 Frc consts  --      1.4012                 0.4797                 0.9503
 IR Inten    --      0.6839                29.6190                 6.5003
  Atom  AN      X      Y      Z        X      Y      Z        X      Y      Z
     1   8    -0.02  -0.00   0.02     0.02  -0.03  -0.01     0.06  -0.06   0.01
     2   6    -0.02   0.03  -0.06     0.03  -0.01   0.01     0.03  -0.05  -0.10
     3   6     0.06  -0.06   0.06    -0.01  -0.03  -0.00    -0.03  -0.07   0.04
     4   6     0.04  -0.11  -0.04    -0.02  -0.01  -0.01    -0.04   0.06   0.04
     5   6    -0.10   0.03  -0.20     0.02   0.00   0.05     0.00   0.03  -0.09
     6   6    -0.12  -0.05   0.12    -0.00   0.01  -0.05     0.05   0.06   0.02
     7   6    -0.15  -0.00  -0.08    -0.02   0.00  -0.06    -0.01   0.01   0.02
     8   6     0.08  -0.08   0.09    -0.00  -0.01  -0.07     0.06  -0.05   0.04
     9   6     0.05   0.13  -0.11    -0.00  -0.02  -0.04     0.02  -0.11   0.00
    10   6     0.10   0.10   0.20     0.02  -0.00   0.04     0.00  -0.03   0.00
    11   6     0.12   0.05   0.03    -0.01   0.05  -0.00    -0.11   0.11   0.03
    12   6     0.04   0.03  -0.05    -0.00   0.08   0.01    -0.07   0.17   0.09
    13   6    -0.06   0.01  -0.03    -0.01   0.01  -0.01     0.03  -0.00   0.01
    14   6    -0.01  -0.03  -0.02    -0.00  -0.03  -0.01     0.01  -0.03  -0.00
    15   6    -0.04   0.01   0.04    -0.01   0.00   0.01     0.02  -0.00  -0.02
    16   1     0.19  -0.02   0.05    -0.05  -0.04   0.09    -0.17  -0.10   0.03
    17   1     0.07  -0.08   0.07    -0.05   0.06  -0.04     0.14   0.03   0.08
    18   1     0.05  -0.12  -0.08    -0.04  -0.00  -0.07    -0.09   0.09  -0.13
    19   1     0.18  -0.21   0.02    -0.04   0.07  -0.02     0.10   0.08   0.09
    20   1    -0.04  -0.08   0.36     0.09   0.00   0.32     0.08   0.04  -0.08
    21   1    -0.14   0.20  -0.03     0.12  -0.01   0.55    -0.08   0.00  -0.27
    22   1     0.06  -0.09   0.07     0.16  -0.01   0.54     0.08   0.01  -0.32
    23   1    -0.12   0.20  -0.30     0.09  -0.03   0.35    -0.02  -0.12  -0.22
    24   1    -0.08  -0.16   0.10    -0.07  -0.08   0.06    -0.12  -0.26   0.23
    25   1     0.20  -0.02  -0.21    -0.04   0.03  -0.17    -0.19   0.05  -0.42
    26   1     0.08  -0.02  -0.02     0.02   0.09   0.02     0.02   0.06   0.17
    27   1    -0.05   0.03  -0.02    -0.03  -0.02  -0.01    -0.03  -0.08  -0.01
    28   1     0.03   0.06   0.04    -0.01  -0.04  -0.01    -0.06  -0.15  -0.06
    29   1     0.04  -0.04   0.00    -0.02  -0.05  -0.02    -0.08  -0.04  -0.04
    30   1     0.03  -0.14  -0.04    -0.01  -0.01   0.00    -0.05   0.13   0.05
    31   1     0.03  -0.00  -0.02     0.01   0.00   0.00     0.01   0.01  -0.00
    32   1    -0.04  -0.01   0.13    -0.01   0.00   0.04     0.01   0.02  -0.02
    33   1    -0.00  -0.00   0.07     0.00   0.00   0.02     0.04   0.01  -0.05
                     28                     29                     30
                      A                      A                      A
 Frequencies --    816.4150               858.0175               889.8695
 Red. masses --      2.6980                 2.5296                 1.5832
 Frc consts  --      1.0596                 1.0972                 0.7386
 IR Inten    --      3.9449                 0.3028                 0.3941
  Atom  AN      X      Y      Z        X      Y      Z        X      Y      Z
     1   8     0.04  -0.01  -0.00     0.02  -0.01  -0.00    -0.02   0.01   0.00
     2   6     0.06   0.06  -0.05     0.00  -0.03  -0.01    -0.01   0.00   0.00
     3   6    -0.10   0.02   0.06    -0.02   0.04  -0.03     0.02  -0.03  -0.02
     4   6    -0.12  -0.02   0.04    -0.03   0.04   0.05     0.02  -0.01  -0.00
     5   6    -0.02  -0.05   0.01    -0.05  -0.06  -0.04     0.02   0.02   0.05
     6   6     0.03  -0.04  -0.01    -0.03  -0.08  -0.04    -0.01   0.03  -0.10
     7   6     0.11  -0.01  -0.00     0.10   0.00  -0.08    -0.04  -0.00  -0.03
     8   6    -0.06   0.08   0.02    -0.06   0.11   0.05     0.03  -0.03   0.04
     9   6    -0.05   0.01   0.02    -0.04  -0.02   0.06     0.04   0.01   0.09
    10   6    -0.02  -0.02  -0.05     0.03  -0.03   0.09    -0.02   0.01  -0.06
    11   6     0.08   0.00   0.03     0.12   0.04  -0.10    -0.05  -0.03   0.02
    12   6     0.14   0.06  -0.03    -0.07   0.00   0.09     0.03   0.00  -0.01
    13   6    -0.05   0.06  -0.07    -0.03  -0.05   0.05     0.03   0.04  -0.03
    14   6    -0.02  -0.09  -0.06    -0.00   0.04   0.04     0.01  -0.03  -0.03
    15   6    -0.08   0.02   0.12     0.03  -0.02  -0.10    -0.02   0.02   0.06
    16   1     0.01   0.05  -0.22    -0.11   0.02  -0.11     0.02  -0.03   0.13
    17   1     0.04  -0.26   0.18     0.13   0.01   0.04    -0.04   0.10  -0.07
    18   1    -0.09  -0.10  -0.37     0.05  -0.04  -0.07    -0.01   0.02   0.00
[...]
 056236,-0.00017770,0.00009122,0.00014789,-0.00008661,-0.00089839,0.002
 92165,-0.00204472,0.17760016,-0.00067703,-0.00047442,0.00024354,0.0009
 3756,-0.00007388,0.00003283,-0.00005085,0.00000032,-0.00004001,0.00005
 488,-0.00002739,-0.00004038,0.00017378,-0.00002291,0.00001675,-0.00001
 784,0.00007667,0.00000112,0.00001588,0.00002068,0.00000652,-0.00006124
 ,0.00004639,-0.00001918,0.00004459,-0.00014899,-0.00004918,-0.00032957
 ,0.00023756,0.00010563,0.00012344,-0.00106703,-0.00017786,0.00032801,0
 .00146552,-0.00083848,0.01801547,-0.00822581,-0.01937739,0.05366546,-0
 .07429606,-0.05463103,-0.00131058,0.00071860,-0.00091048,-0.00002473,0
 .00000594,0.00001520,-0.00000526,-0.00001540,-0.00000858,-0.00001590,0
 .00001664,0.00002490,-0.00000363,-0.00000898,0.00001879,0.00001929,0.0
 0002825,-0.00000284,0.00000957,0.00001898,0.00000153,0.00001739,-0.000
 00219,-0.00000216,-0.00011246,0.00007482,0.00007287,-0.00003229,0.0003
 4189,-0.00001598,-0.00059949,-0.00042317,0.00141481,-0.00010348,-0.000
 10425,-0.00008799,0.00274165,-0.00375173,0.00258184,-0.06167356,0.0793
 2591,0.00002367,0.00009386,-0.00005438,-0.00024825,-0.00000954,0.00003
 457,0.00005820,-0.00007498,-0.00001167,0.00003144,-0.00000324,-0.00001
 892,-0.00001088,-0.00003906,0.00002161,0.00001109,0.00002442,-0.000008
 14,-0.00000608,0.00001329,0.00000551,-0.00004843,0.00003068,-0.0000232
 4,0.00002096,-0.00017626,-0.00006783,0.00004073,-0.00003133,0.00009362
 ,-0.00023148,0.00037989,-0.00045896,0.00065727,-0.00026441,0.00015936,
 -0.00844977,0.00214451,0.00884818,0.11506679,-0.05444240,-0.16666684,-
 0.00018482,-0.00007376,0.00152525,-0.00001740,-0.00003051,0.00000706,0
 .00001650,0.00000951,-0.00000350,-0.00001161,0.00000520,0.00001274,-0.
 00000795,0.00000493,0.00001141,-0.00000001,0.00001011,-0.00000403,0.00
 000178,0.00001106,0.00000404,-0.00001022,-0.00000649,0.00000104,-0.000
 02964,0.00006737,0.00009408,-0.00005267,0.00022752,0.00003896,0.000172
 04,0.00097493,-0.00022331,0.00014639,-0.00000111,-0.00010867,-0.001776
 56,0.00225334,0.00021445,-0.12854504,0.05832768,0.17949445,0.00021946,
 0.00010288,0.00007671,-0.00022475,0.00001897,0.00020405,-0.00000296,0.
 00002582,-0.00003967,0.00000488,0.00000945,0.00000547,-0.00000841,-0.0
 0000184,-0.00000175,0.00000217,-0.00000526,0.00000427,0.00000301,0.000
 00175,0.00000181,-0.00000770,0.00000007,-0.00000402,0.00001183,0.00000
 252,-0.00001554,0.00003392,-0.00005536,0.00000790,-0.00009762,0.000115
 76,0.00015767,0.00033013,-0.00110124,0.00051278,-0.00944338,-0.0059676
 7,-0.01465596,-0.11043187,-0.03206057,-0.10473248,-0.00159409,0.004204
 35,-0.00043987,0.00000149,0.00000893,-0.00000754,0.00001996,0.00001070
 ,0.00000150,0.00000562,0.00000467,-0.00000278,-0.00000594,-0.00000296,
 0.00001206,-0.00000176,0.00000333,-0.00000317,0.00000297,0.00000253,-0
 .00000036,0.00000128,-0.00000118,0.00000059,-0.00000155,0.00001033,0.0
 0002335,-0.00003778,-0.00008893,0.00009403,0.00003632,-0.00000283,-0.0
 0007905,0.00066789,0.00022125,0.00023615,0.00013151,-0.00053639,0.0003
 8028,0.01260984,0.00592790,0.01925510,0.11729845,-0.00024480,0.0000169
 5,-0.00000420,0.00044620,0.00004751,-0.00022888,-0.00005361,0.00005828
 ,0.00006789,-0.00001369,-0.00001273,0.00001836,0.00001260,-0.00000282,
 0.00000077,-0.00000143,-0.00000282,-0.00000288,0.00000604,0.00000251,0
 .00000183,-0.00000824,0.00000502,0.00000472,0.00000019,0.00000781,0.00
 000719,-0.00007968,-0.00000350,-0.00000256,-0.00010074,-0.00011591,-0.
 00006199,0.00099747,0.00159429,0.00106302,0.01171337,0.00684694,0.0230
 0024,-0.03251524,-0.06625807,-0.05608534,0.00215568,-0.00437915,0.0011
 4254,0.00000864,0.00003466,-0.00000144,-0.00001158,-0.00000671,-0.0000
 0996,0.00000431,0.00000492,-0.00000377,0.00000312,-0.00000374,-0.00000
 852,0.00000137,0.00000369,0.00000050,0.00000418,0.00000298,-0.00000080
 ,0.00000868,-0.00000064,-0.00000280,-0.00001227,-0.00000080,-0.0000084
 5,0.00004790,0.00000680,-0.00007427,0.00001730,0.00003580,0.00000343,-
 0.00051379,-0.00046050,-0.00025039,-0.00059633,0.00108786,-0.00063140,
 -0.00550598,-0.00346377,-0.00747795,0.03381950,0.07046517,0.00048665,0
 .00002080,-0.00003190,-0.00031207,0.00034299,0.00040304,-0.00002387,0.
 00000882,-0.00010348,0.00000079,0.00001939,-0.00001294,0.00005941,0.00
 006129,0.00000679,-0.00001621,0.00001057,0.00000432,0.00002062,-0.0000
 0518,0.00000203,0.00004262,0.00000051,0.00002549,0.00000563,0.00003691
 ,0.00006346,-0.00013549,0.00007457,-0.00001067,0.00028639,-0.00011206,
 -0.00017996,-0.00045247,-0.00139840,-0.00009993,-0.00428953,-0.0034422
 9,-0.00938207,-0.10477111,-0.05545574,-0.23159973,-0.00136316,0.003271
 08,0.00038583,0.00001332,0.00000499,0.00000265,0.00001625,0.00001536,0
 .00002387,0.00000931,0.00000263,-0.00000110,0.00000877,-0.00000819,0.0
 0002084,0.00000708,0.00000100,-0.00000233,0.00000135,-0.00000275,-0.00
 000464,0.00001343,0.00000305,-0.00001095,-0.00000238,-0.00004243,-0.00
 006930,-0.00004878,0.00002364,0.00013417,-0.00024971,0.00003968,0.0000
 4872,0.00068280,0.00088013,0.00036685,-0.00000506,0.00024846,0.0008587
 2,-0.01120657,-0.00577866,-0.01809544,0.11760124,0.06042491,0.24984147
 ,0.00008652,-0.00020044,-0.00001575,0.00076455,0.00084503,-0.00012663,
 -0.00024290,0.00021068,0.00007429,-0.00003102,-0.00001777,0.00002077,-
 0.00007159,0.00003518,-0.00000677,-0.00000188,-0.00002968,0.00000328,-
 0.00000329,-0.00001464,-0.00000256,0.00005362,-0.00003099,0.00002007,-
 0.00002622,0.00010224,0.00004942,0.00011040,-0.00010555,-0.00007633,-0
 .00000153,0.00034609,0.00024083,-0.00194164,0.00239670,-0.00159665,0.0
 1129197,0.01493248,-0.00475436,-0.14670609,-0.12366170,0.03380261,0.00
 084397,0.00049095,0.00017064,0.00005575,0.00010285,0.00000852,0.000000
 67,0.00000472,0.00000935,0.00000369,-0.00001177,-0.00000780,0.00000724
 ,0.00000156,-0.00000783,-0.00000601,-0.00001451,0.00000074,-0.00000589
 ,-0.00001220,-0.00000283,-0.00000505,0.00000406,-0.00000232,0.00005239
 ,-0.00005180,-0.00005783,0.00000600,-0.00012285,0.00003077,0.00012162,
 -0.00016598,-0.00030358,0.00002674,0.00020800,0.00023200,0.00094419,-0
 .00066668,0.00031004,-0.01375874,-0.01685255,0.00361508,-0.00973737,-0
 .01076885,0.00400736,0.15808721,0.00071693,-0.00002028,-0.00006393,-0.
 00226400,-0.00032531,0.00072728,0.00047986,-0.00038739,-0.00014911,0.0
 0005520,0.00003895,-0.00009229,0.00003399,-0.00002252,0.00001063,-0.00
 000542,0.00003836,0.00000084,-0.00001701,-0.00000295,-0.00000067,-0.00
 001209,0.00000982,-0.00001384,-0.00002154,-0.00010718,0.00000115,0.000
 00585,0.00015631,0.00011785,0.00024410,-0.00013672,-0.00048995,0.00459
 141,-0.00355330,0.00159460,-0.01634577,-0.02036975,0.00528584,-0.12284
 492,-0.20112882,0.04191686,-0.00125996,0.00076497,-0.00082460,-0.00007
 600,-0.00022232,-0.00001094,-0.00001835,-0.00001857,-0.00000146,-0.000
 03137,-0.00001545,0.00003056,-0.00000146,0.00002245,0.00001766,0.00000
 468,-0.00000751,-0.00000158,-0.00001319,-0.00000361,0.00000055,-0.0000
 1951,0.00000176,-0.00000172,-0.00000702,0.00001489,0.00001466,-0.00002
 793,0.00004862,0.00009013,-0.00011031,0.00015607,0.00010661,0.00039989
 ,0.00037048,0.00001812,-0.00019878,0.00068272,-0.00073862,0.00692284,0
 .00933345,-0.00185164,-0.00448820,-0.00608005,0.00141810,0.13320702,0.
 21980316,-0.00015408,-0.00013334,-0.00011178,0.00090704,0.00038083,0.0
 0012996,-0.00022911,0.00013851,-0.00000838,-0.00000226,-0.00001425,0.0
 0002216,0.00003848,0.00000950,0.00000062,-0.00000570,0.00001446,-0.000
 00073,0.00001513,0.00000494,0.00000212,-0.00000071,0.00001504,0.000005
 04,0.00002642,-0.00002745,-0.00000072,-0.00008004,-0.00001286,0.000002
 12,-0.00022692,-0.00008510,0.00010950,-0.00181316,0.00106260,-0.000521
 53,0.00709889,0.00799440,-0.00357311,0.03330598,0.04173397,-0.06100580
 ,0.00105512,0.00052263,0.00021461,0.00003350,0.00008808,0.00001062,0.0
 0000742,0.00000006,0.00000748,0.00000674,0.00000895,-0.00000388,0.0000
 0049,-0.00001164,0.00000240,0.00000488,0.00000994,-0.00000091,0.000006
 52,0.00000651,0.00000003,0.00001340,-0.00000059,-0.00000176,-0.0000339
 9,0.00000755,0.00000639,-0.00004017,0.00023013,0.00002883,-0.00017418,
 -0.00007087,0.00039161,0.00028244,0.00012542,0.00025854,-0.00026242,-0
 .00059505,0.00039630,0.01409533,0.01819998,-0.00502936,-0.01729162,-0.
 02207052,0.00739769,-0.03589818,-0.04720657,0.06128260,0.00045358,0.00
 038408,0.00031894,-0.00047058,-0.00006987,0.00004491,0.00008379,0.0000
 3258,-0.00007152,-0.00001371,0.00003705,0.00004311,-0.00001894,-0.0000
 0022,-0.00000583,0.00000604,0.00000265,0.00002574,-0.00000610,-0.00000
 530,-0.00000219,0.00000772,-0.00000236,0.00001488,-0.00000736,-0.00000
 275,-0.00001428,0.00007353,0.00001925,-0.00034710,-0.00073040,-0.00131
 124,0.00020461,0.00080933,0.00014895,0.00066049,0.01223676,-0.00514943
 ,-0.01421042,0.00131784,-0.00047452,0.00018967,-0.14074836,0.04866724,
 0.11328857,0.00000142,-0.00000230,-0.00000976,0.00000818,0.00000921,0.
 00000096,0.00001718,0.00000639,-0.00001895,-0.00000775,-0.00000280,-0.
 00000241,-0.00000170,-0.00000005,0.00000245,0.00000365,0.00000182,-0.0
 0000163,0.00000465,-0.00000001,0.00000190,-0.00000995,0.00000206,-0.00
 000159,-0.00057993,0.00007253,-0.00011380,-0.00071993,-0.00047199,0.00
 009373,0.00014052,0.00026482,0.00011021,-0.00127034,-0.00117656,-0.003
 70932,0.00003863,0.00008394,0.00038441,0.00016327,-0.00016659,0.000232
 72,-0.00009254,0.00009526,0.00002109,0.15241911,-0.00097945,-0.0007347
 4,-0.00041571,0.00112827,-0.00018317,0.00003181,-0.00012334,-0.0000381
 9,0.00001911,-0.00000247,-0.00005561,-0.00007479,0.00017316,-0.0000103
 8,0.00000364,-0.00003266,0.00003959,-0.00001400,0.00002723,0.00000653,
 0.00000240,0.00000493,-0.00000195,-0.00002056,0.00005105,0.00009920,0.
 00001042,-0.00016199,-0.00003134,0.00029816,-0.00013610,-0.00012082,-0
 .00033888,0.00086542,0.00046633,-0.00038689,0.00594084,-0.00394402,-0.
 00657913,-0.00030867,0.00030487,0.00093463,0.04815504,-0.07491495,-0.0
 5864768,-0.00001677,0.00001068,0.00001209,-0.00001314,-0.00002871,-0.0
 0000463,-0.00001853,0.00001084,0.00004375,0.00001461,-0.00001768,0.000
 03081,0.00001618,0.00002294,-0.00000002,0.00000637,0.00000690,0.000001
 28,0.00002374,0.00000468,-0.00000257,-0.00002368,-0.00000322,-0.000002
 32,-0.00022752,-0.00069798,0.00034703,-0.00059758,0.00016053,-0.000148
 02,-0.00009316,0.00008702,0.00017605,-0.00123270,0.00010154,-0.0015156
 7,-0.00010848,0.00047705,-0.00006051,-0.00009086,-0.00011342,-0.000013
 03,-0.00012182,0.00004692,0.00007589,-0.05150634,0.07628769,-0.0001805
 4,-0.00013332,0.00021795,0.00025712,0.00023869,0.00008272,0.00001946,-
 0.00007720,-0.00007611,0.00005898,-0.00001592,-0.00004460,0.00020237,0
 .00000761,-0.00001153,-0.00002274,0.00006933,-0.00002240,0.00000797,0.
 00001093,0.00000253,-0.00001594,0.00000751,-0.00002665,0.00001050,-0.0
 0001878,-0.00001136,-0.00028407,0.00036274,0.00045206,0.00067978,-0.00
 036185,0.00015733,0.00094116,0.00104504,0.00034355,0.01665524,-0.00818
 819,-0.02109362,0.00152775,-0.00067769,0.00108279,0.11283395,-0.059078
 23,-0.19109138,-0.00002141,-0.00003291,0.00000922,0.00000291,-0.000013
 50,-0.00000036,-0.00001745,0.00000845,0.00002326,-0.00000077,-0.000005
 37,0.00002006,0.00001984,0.00002077,-0.00000086,0.00000318,0.00000643,
 0.00000206,0.00000826,0.00000043,-0.00000211,-0.00003005,0.00001125,0.
 00000484,0.00020583,-0.00011067,0.00033082,-0.00060396,0.00044609,0.00
 006400,-0.00006834,0.00002083,0.00006162,-0.00407733,-0.00143651,-0.00
 390005,-0.00097010,0.00070610,0.00011205,-0.00028035,0.00006781,0.0004
 7958,-0.00002033,0.00005548,-0.00010264,-0.12480902,0.06688739,0.20942
 872,0.00060814,0.00014307,0.00037090,-0.00106303,0.00039188,-0.0001051
 5,0.00016728,-0.00009237,-0.00003226,-0.00000333,0.00002835,-0.0000293
 3,-0.00009842,0.00000145,0.00000944,0.00001955,-0.00000322,0.00001201,
 -0.00002477,-0.00000692,0.00000070,0.00000288,-0.00000133,-0.00000330,
 -0.00002299,-0.00008791,0.00000927,0.00016945,0.00002464,-0.00007135,0
 .00014245,0.00006695,-0.00039584,-0.00094126,0.00002160,-0.00338057,-0
 .01147138,-0.01298928,0.00493164,0.00008663,-0.00088862,0.00118310,-0.
 14546216,-0.11905148,0.03959109,-0.00000709,-0.00007530,0.00001646,0.0
 0001555,0.00003186,0.00001821,-0.00000831,-0.00001434,0.00000221,-0.00
 000099,0.00000990,0.00000609,-0.00000778,-0.00001730,-0.00000139,-0.00
 001030,-0.00000630,-0.00000134,-0.00002224,-0.00000037,0.00000129,0.00
 001607,0.00000544,0.00000278,-0.00004685,0.00014371,-0.00000780,0.0002
 9616,-0.00003761,0.00007460,-0.00053736,-0.00105103,0.00003247,0.00096
 528,0.00040097,0.00001464,-0.00007311,-0.00001619,-0.00005373,0.000420
 82,0.00028794,0.00002330,-0.00000737,0.00077582,-0.00065872,-0.0123664
 9,-0.01505759,0.00482821,0.15566348,-0.00010631,-0.00068143,-0.0007348
 9,0.00041543,0.00060216,0.00019468,-0.00003104,-0.00008080,0.00017361,
 0.00003980,-0.00004735,-0.00005612,0.00001334,-0.00000699,0.00000243,-
 0.00000375,0.00003491,0.00000022,-0.00001975,0.00000237,-0.00000045,-0
 .00000939,-0.00000995,-0.00000193,-0.00001063,-0.00007010,0.00000116,-
 0.00002074,0.00014156,0.00010447,0.00040154,0.00004306,-0.00004000,-0.
 00007076,0.00118839,-0.00211000,-0.00529339,-0.00805457,0.00204424,0.0
 0088296,0.00045972,0.00058814,-0.11982804,-0.19807688,0.04961437,0.000
 00331,-0.00004165,0.00001393,-0.00000136,0.00000628,-0.00000063,-0.000
 04132,-0.00002312,0.00002394,0.00000481,0.00002296,-0.00001375,0.00000
 395,-0.00000810,0.00000046,-0.00001241,-0.00000528,-0.00000164,-0.0000
 1709,0.00000236,-0.00000004,0.00000599,0.00000507,-0.00000381,0.000060
 06,-0.00003135,-0.00008800,-0.00017245,0.00009878,-0.00000449,-0.00041
 058,-0.00048247,0.00002557,0.00023545,0.00001223,-0.00012237,0.0000539
 2,0.00002551,-0.00001595,0.00019438,0.00012674,-0.00019468,-0.00009902
 ,0.00065294,-0.00012996,0.00726831,0.00916535,-0.00226201,0.13309156,0
 .21290525,0.00050641,-0.00000846,0.00016015,-0.00073619,0.00048922,-0.
 00004398,0.00013476,-0.00011712,-0.00005325,0.00000686,0.00001447,-0.0
 0004293,0.00007982,0.00001432,0.00000449,0.00000740,0.00002845,-0.0000
 1272,-0.00000166,0.00001108,0.00000074,-0.00000128,-0.00001151,-0.0000
 2716,0.00005080,0.00001685,0.00002451,-0.00010477,0.00003268,0.0003195
 8,0.00044716,0.00039675,-0.00055579,-0.00276875,-0.00036625,-0.0049517
 2,-0.01816602,-0.02184628,0.00623847,0.00018301,-0.00084346,0.00105516
 ,0.04083433,0.05019645,-0.06419123,-0.00001277,-0.00007371,0.00002563,
 0.00003073,0.00003255,0.00003066,-0.00000163,0.00000696,0.00001803,0.0
 0000388,-0.00001575,0.00003034,0.00000734,0.00000865,-0.00000052,0.000
 00208,0.00000306,0.00000301,0.00000744,0.00000185,-0.00000167,-0.00001
 111,0.00000257,0.00000397,0.00013678,-0.00028646,0.00036848,-0.0002626
 7,0.00015679,-0.00002092,-0.00096029,-0.00148334,0.00017446,0.00060384
 ,0.00006336,0.00133806,0.00001316,0.00015955,-0.00008188,0.00038943,-0
 .00014488,0.00012137,0.00000156,0.00045765,-0.00007647,0.01417361,0.01
 966628,-0.00624893,-0.04160769,-0.05336036,0.06980071,0.00102654,0.001
 06055,0.00128396,-0.00187065,-0.00059870,-0.00039778,0.00021142,-0.000
 05449,-0.00030056,-0.00004965,0.00009540,0.00003225,-0.00006399,0.0000
 3482,-0.00001347,0.00001698,-0.00004659,-0.00000695,0.00001207,-0.0000
 0430,0.00000348,0.00002935,-0.00001204,-0.00001335,0.00003479,0.000098
 78,0.00001452,0.00008177,-0.00025919,0.00016257,-0.00045181,0.00039243
 ,-0.00020600,0.00034918,0.00066090,0.00029862,-0.01045721,0.01371549,-
 0.00485008,-0.00122208,-0.00238085,-0.00321495,-0.13506611,0.11533544,
 -0.04764762,-0.00000139,-0.00003514,-0.00000905,0.00001766,0.00002601,
 0.00003004,0.00005250,0.00002137,-0.00002025,0.00000180,-0.00003598,0.
 00004108,-0.00000833,-0.00000182,-0.00000178,0.00000927,0.00000035,0.0
 0000152,0.00001596,0.00000024,-0.00000312,0.00001241,-0.00001907,-0.00
 000235,-0.00018002,-0.00016160,0.00040343,0.00021265,-0.00017605,-0.00
 012749,0.00015296,0.00000702,0.00004887,0.00068637,-0.00026931,0.00034
 577,0.00028192,-0.00027218,0.00018311,-0.00036965,0.00105832,-0.000642
 64,0.00018260,0.00022996,-0.00004760,-0.01074112,0.01444600,-0.0068601
 2,0.01360147,-0.01652677,0.00701441,0.14349234,0.00023613,-0.00225897,
 -0.00092490,-0.00114650,-0.00035663,-0.00049577,0.00008473,-0.00003764
 ,-0.00009307,-0.00001674,0.00005015,0.00007863,-0.00001811,0.00002941,
 -0.00000640,0.00001520,-0.00001476,-0.00000105,-0.00000058,0.00000548,
 0.00000089,-0.00000216,-0.00000477,0.00000547,0.00001083,-0.00000181,-
 0.00001850,-0.00004238,0.00002204,-0.00001079,0.00000253,-0.00013921,0
 .00029880,0.00023999,0.00055177,0.00070099,-0.00622423,0.00885735,-0.0
 0294051,-0.00094164,-0.00011011,-0.00140229,0.11674697,-0.20844568,0.0
 6885855,0.00001706,0.00001545,-0.00000403,0.00002090,0.00003349,0.0000
 1038,0.00003416,0.00001167,-0.00002725,-0.00000959,-0.00001301,0.00000
 590,-0.00000344,0.00000258,0.00000143,0.00000689,0.00000217,0.00000006
 ,0.00000491,-0.00000288,0.00000201,-0.00000444,-0.00000205,0.00000029,
 -0.00013143,0.00007166,-0.00012357,-0.00001563,0.00000981,-0.00007458,
 0.00023559,0.00004868,-0.00002211,0.00030981,0.00022165,0.00051593,-0.
 00007749,-0.00010819,-0.00001915,-0.00028179,0.00055671,-0.00045545,0.
 00006126,0.00025984,-0.00027118,0.00324622,-0.00640246,0.00243927,0.01
 397198,-0.01787561,0.00679802,-0.12632899,0.22502388,0.00211967,0.0003
 8727,0.00077678,-0.00316973,0.00001333,-0.00002392,0.00054419,-0.00011
 299,-0.00036979,0.00001737,0.00017835,0.00015466,-0.00005694,0.0000642
 1,-0.00002663,0.00002997,-0.00002392,-0.00000233,-0.00000726,-0.000001
 45,0.00000614,0.00001674,-0.00001299,0.00000690,-0.00001067,0.00001254
 ,0.00000852,-0.00002448,0.00006740,-0.00000979,0.00003970,-0.00045367,
 0.00028250,0.00081651,0.00001678,0.00108127,-0.01404571,0.02218192,-0.
 00840450,-0.00257195,-0.00304823,-0.00449131,-0.04638889,0.06598708,-0
 .07704055,-0.00001479,-0.00009801,-0.00000976,0.00005501,0.00007711,0.
 00002655,0.00006570,0.00001781,-0.00007362,-0.00001578,-0.00001535,-0.
 00000379,-0.00000711,-0.00000628,-0.00000043,0.00000736,-0.00000070,-0
 .00000094,0.00000610,-0.00000264,-0.00000246,0.00000454,-0.00001404,-0
 .00001565,-0.00008752,0.00007191,-0.00000180,0.00005746,0.00007179,-0.
 00010882,0.00020406,0.00001853,-0.00008174,0.00060048,0.00051196,0.000
 61209,-0.00028359,0.00005055,0.00017780,-0.00141026,0.00126779,-0.0005
 8245,0.00028242,-0.00041763,0.00016846,0.01350581,-0.02031633,0.009757
 45,-0.00477996,0.00635388,-0.00340867,0.05450153,-0.07282600,0.0815998
 4\\0.00014585,0.00005849,0.00000890,-0.00014990,0.00007832,0.00005008,
 0.00002060,-0.00002436,0.00001628,-0.00000658,-0.00005188,0.00000470,-
 0.00005913,-0.00002556,-0.00003345,0.00003118,0.00000586,-0.00001223,0
 .00002295,-0.00003411,0.00000244,0.00000651,0.00005786,0.00000704,0.00
 001849,0.00000717,-0.00001022,-0.00009199,0.00001704,0.00006455,0.0000
 2033,0.00001997,0.00006032,-0.00000327,-0.00002015,-0.00010693,-0.0000
 3708,-0.00000079,0.00005620,0.00006762,-0.00004404,0.00000722,-0.00000
 851,-0.00003475,-0.00007098,-0.00000754,-0.00002545,-0.00001639,-0.000
 01877,0.00000497,-0.00002154,0.00000804,0.00000933,-0.00001319,0.00000
 777,-0.00000670,0.00001255,0.00000484,0.00000558,0.00000044,0.00001646
 ,-0.00000195,-0.00000509,0.00001468,0.00000370,-0.00000539,0.00001106,
 -0.00000196,-0.00000375,-0.00000456,-0.00003045,-0.00000259,0.00000585
 ,-0.00003438,0.00001027,-0.00000229,-0.00003026,0.00001954,-0.00000720
 ,0.00000762,0.00001503,0.00003728,0.00001621,-0.00002401,-0.00001857,0
 .00000935,-0.00001763,-0.00000704,0.00001953,-0.00002051,-0.00004252,0
 .00000017,0.00003325,0.00002124,0.00004307,0.00000846,0.00000420,0.000
 00256,-0.00001336\\\@


 TO SEE A WORLD IN A GRAIN OF SAND
 AND A HEAVEN IN A WILD FLOWER
 HOLD INFINITY IN THE PALM OF YOUR HAND
 AND ETERNITY IN AN HOUR

                       -- WILLIAM BLAKE
 Job cpu time:       0 days  0 hours  4 minutes  5.7 seconds.
 Elapsed time:       0 days  0 hours  4 minutes 28.5 seconds.
 File lengths (MBytes):  RWF=    268 Int=      0 D2E=      0 Chk=     16 Scr=      1
 Normal termination of Gaussian 16 at Sat Feb 24 01:28:54 2024.
