 Entering Gaussian System, Link 0=g16
 Input=/Volumes/SSD-PMU3/b3lyp_6-31gd_freq/VBXFYCNCJDMZMT-ZDUSSCGKSA-N_calculating/gaussianinput0.gjf
 Output=/Volumes/SSD-PMU3/b3lyp_6-31gd_freq/VBXFYCNCJDMZMT-ZDUSSCGKSA-N_calculating/gaussianinput0.log
 Initial command:
 /Applications/g16/l1.exe "/Users/macmini_m1_2022/PycharmProjects/sphere_model/sphere_model_lib/Gau-83468.inp" -scrdir="/Users/macmini_m1_2022/PycharmProjects/sphere_model/sphere_model_lib/"
 Entering Link 1 = /Applications/g16/l1.exe PID=     83469.
  
 Copyright (c) 1988,1990,1992,1993,1995,1998,2003,2009,2016,
            Gaussian, Inc.  All Rights Reserved.
  
 This is part of the Gaussian(R) 16 program.  It is based on
 the Gaussian(R) 09 system (copyright 2009, Gaussian, Inc.),
 the Gaussian(R) 03 system (copyright 2003, Gaussian, Inc.),
 the Gaussian(R) 98 system (copyright 1998, Gaussian, Inc.),
 the Gaussian(R) 94 system (copyright 1995, Gaussian, Inc.),
 the Gaussian 92(TM) system (copyright 1992, Gaussian, Inc.),
 the Gaussian 90(TM) system (copyright 1990, Gaussian, Inc.),
 the Gaussian 88(TM) system (copyright 1988, Gaussian, Inc.),
 the Gaussian 86(TM) system (copyright 1986, Carnegie Mellon
 University), and the Gaussian 82(TM) system (copyright 1983,
 Carnegie Mellon University). Gaussian is a federally registered
 trademark of Gaussian, Inc.
  
 This software contains proprietary and confidential information,
 including trade secrets, belonging to Gaussian, Inc.
  
 This software is provided under written license and may be
 used, copied, transmitted, or stored only in accord with that
 written license.
  
 The following legend is applicable only to US Government
 contracts under FAR:
  
                    RESTRICTED RIGHTS LEGEND
  
 Use, reproduction and disclosure by the US Government is
 subject to restrictions as set forth in subparagraphs (a)
 and (c) of the Commercial Computer Software - Restricted
 Rights clause in FAR 52.227-19.
  
 Gaussian, Inc.
 340 Quinnipiac St., Bldg. 40, Wallingford CT 06492
  
  
 ---------------------------------------------------------------
 Warning -- This program may not be used in any manner that
 competes with the business of Gaussian, Inc. or will provide
 assistance to any competitor of Gaussian, Inc.  The licensee
 of this program is prohibited from giving any competitor of
 Gaussian, Inc. access to this program.  By using this program,
 the user acknowledges that Gaussian, Inc. is engaged in the
 business of creating and licensing software in the field of
 computational chemistry and represents and warrants to the
 licensee that it is not a competitor of Gaussian, Inc. and that
 it will not use this program in any manner prohibited above.
 ---------------------------------------------------------------
  

 Cite this work as:
 Gaussian 16, Revision A.03,
 M. J. Frisch, G. W. Trucks, H. B. Schlegel, G. E. Scuseria, 
 M. A. Robb, J. R. Cheeseman, G. Scalmani, V. Barone, 
 G. A. Petersson, H. Nakatsuji, X. Li, M. Caricato, A. V. Marenich, 
 J. Bloino, B. G. Janesko, R. Gomperts, B. Mennucci, H. P. Hratchian, 
 J. V. Ortiz, A. F. Izmaylov, J. L. Sonnenberg, D. Williams-Young, 
 F. Ding, F. Lipparini, F. Egidi, J. Goings, B. Peng, A. Petrone, 
 T. Henderson, D. Ranasinghe, V. G. Zakrzewski, J. Gao, N. Rega, 
 G. Zheng, W. Liang, M. Hada, M. Ehara, K. Toyota, R. Fukuda, 
 J. Hasegawa, M. Ishida, T. Nakajima, Y. Honda, O. Kitao, H. Nakai, 
 T. Vreven, K. Throssell, J. A. Montgomery, Jr., J. E. Peralta, 
 F. Ogliaro, M. J. Bearpark, J. J. Heyd, E. N. Brothers, K. N. Kudin, 
 V. N. Staroverov, T. A. Keith, R. Kobayashi, J. Normand, 
 K. Raghavachari, A. P. Rendell, J. C. Burant, S. S. Iyengar, 
 J. Tomasi, M. Cossi, J. M. Millam, M. Klene, C. Adamo, R. Cammi, 
 J. W. Ochterski, R. L. Martin, K. Morokuma, O. Farkas, 
 J. B. Foresman, and D. J. Fox, Gaussian, Inc., Wallingford CT, 2016.
 
 ******************************************
 Gaussian 16:  EM64M-G16RevA.03 25-Dec-2016
                24-Feb-2024 
 ******************************************
 %nprocshared=10
 Will use up to   10 processors via shared memory.
 %mem=12GB
 %chk= 0.chk
 ---------------------
 # freq b3lyp/6-31g(d)
 ---------------------
 1/10=4,30=1,38=1/1,3;
 2/12=2,17=6,18=5,40=1/2;
 3/5=1,6=6,7=1,11=2,25=1,30=1,71=2,74=-5,140=1/1,2,3;
 4//1;
 5/5=2,38=5,98=1/2;
 8/6=4,10=90,11=11/1;
 11/6=1,8=1,9=11,15=111,16=1/1,2,10;
 10/6=1/2;
 6/7=2,8=2,9=2,10=2,28=1/1;
 7/8=1,10=1,25=1/1,2,3,16;
 1/10=4,30=1/3;
 99//99;
 ---------
 good luck
 ---------
 Symbolic Z-matrix:
 Charge =  0 Multiplicity = 1
 O                     1.21917   0.        0. 
 C                     0.        0.        0. 
 C                    -0.76603  -1.31679  -0.02841 
 C                    -1.52445  -1.54731  -1.36306 
 C                    -2.81577  -0.77039  -1.50525 
 C                    -4.02404  -1.46503  -1.64225 
 C                    -5.2394   -0.79607  -1.78725 
 C                    -5.25714   0.59698  -1.79836 
 C                    -4.06044   1.29997  -1.65842 
 C                    -2.83298   0.64144  -1.50628 
 C                    -1.56094   1.45455  -1.37111 
 C                    -0.77549   1.31872  -0.02841 
 C                    -1.63507   1.53762   1.24692 
 C                    -0.79894   1.32472   2.5204 
 C                    -2.26708   2.93832   1.26518 
 H                    -0.0257   -2.10942   0.11413 
 H                    -1.48358  -1.36192   0.80077 
 H                    -1.74801  -2.61676  -1.44053 
 H                    -0.8431   -1.31991  -2.19562 
 H                    -4.0082   -2.55278  -1.64097 
 H                    -6.16169  -1.36065  -1.89452 
 H                    -6.19327   1.13598  -1.91677 
 H                    -4.07528   2.38744  -1.67739 
 H                    -0.86684   1.20241  -2.186 
 H                    -1.80599   2.51225  -1.51137 
 H                     0.00577   2.08953  -0.04192 
 H                    -2.4515    0.80239   1.24325 
 H                    -0.38453   0.31234   2.58384 
 H                     0.04468   2.02519   2.55708 
 H                    -1.41079   1.48958   3.41466 
 H                    -1.49535   3.71754   1.21358 
 H                    -2.9614    3.09181   0.43362 
 H                    -2.82991   3.09064   2.19359 
 

 GradGradGradGradGradGradGradGradGradGradGradGradGradGradGradGradGradGrad
 Berny optimization.
 Initialization pass.
 Trust Radius=3.00D-01 FncErr=1.00D-07 GrdErr=1.00D-07 EigMax=2.50D+02 EigMin=1.00D-04
 Number of steps in this run=      2 maximum allowed number of steps=      2.
 GradGradGradGradGradGradGradGradGradGradGradGradGradGradGradGradGradGrad

                          Input orientation:                          
 ---------------------------------------------------------------------
 Center     Atomic      Atomic             Coordinates (Angstroms)
 Number     Number       Type             X           Y           Z
 ---------------------------------------------------------------------
      1          8           0        1.219171    0.000000    0.000000
      2          6           0        0.000000    0.000000    0.000000
      3          6           0       -0.766034   -1.316791   -0.028409
      4          6           0       -1.524451   -1.547313   -1.363056
      5          6           0       -2.815767   -0.770393   -1.505248
      6          6           0       -4.024036   -1.465029   -1.642250
      7          6           0       -5.239403   -0.796074   -1.787254
      8          6           0       -5.257141    0.596979   -1.798364
      9          6           0       -4.060445    1.299967   -1.658418
     10          6           0       -2.832976    0.641436   -1.506281
     11          6           0       -1.560943    1.454550   -1.371110
     12          6           0       -0.775490    1.318722   -0.028409
     13          6           0       -1.635068    1.537622    1.246921
     14          6           0       -0.798935    1.324724    2.520402
     15          6           0       -2.267081    2.938316    1.265183
     16          1           0       -0.025704   -2.109419    0.114130
     17          1           0       -1.483579   -1.361920    0.800774
     18          1           0       -1.748009   -2.616764   -1.440527
     19          1           0       -0.843096   -1.319912   -2.195623
     20          1           0       -4.008197   -2.552784   -1.640970
     21          1           0       -6.161686   -1.360650   -1.894524
     22          1           0       -6.193266    1.135976   -1.916772
     23          1           0       -4.075277    2.387442   -1.677387
     24          1           0       -0.866835    1.202407   -2.185995
     25          1           0       -1.805989    2.512250   -1.511371
     26          1           0        0.005771    2.089526   -0.041916
     27          1           0       -2.451499    0.802390    1.243248
     28          1           0       -0.384525    0.312341    2.583838
     29          1           0        0.044675    2.025194    2.557076
     30          1           0       -1.410791    1.489581    3.414663
     31          1           0       -1.495347    3.717544    1.213583
     32          1           0       -2.961399    3.091814    0.433622
     33          1           0       -2.829906    3.090642    2.193589
 ---------------------------------------------------------------------
                    Distance matrix (angstroms):
                    1          2          3          4          5
     1  O    0.000000
     2  C    1.219171   0.000000
     3  C    2.382391   1.523665   0.000000
     4  C    3.432136   2.564381   1.552295   0.000000
     5  C    4.374929   3.284482   2.584765   1.513711   0.000000
     6  C    5.686345   4.586519   3.638823   2.516475   1.400429
     7  C    6.748421   5.592795   4.834844   3.813813   2.440123
     8  C    6.747823   5.588204   5.192812   4.326714   2.813526
     9  C    5.684594   4.574656   4.511928   3.824331   2.420553
    10  C    4.370380   3.272014   3.207960   2.554090   1.411934
    11  C    3.424134   2.536178   3.180418   3.002096   2.557919
    12  C    2.391340   1.530104   2.635530   3.249059   3.272336
    13  C    3.473582   2.567594   3.244898   4.042405   3.780928
    14  C    3.489996   2.957299   3.670848   4.884283   4.966184
    15  C    4.731632   3.920975   4.693875   5.251667   4.661638
    16  H    2.452017   2.112661   1.093922   2.178138   3.492825
    17  H    3.130643   2.167273   1.097475   2.172142   2.728070
    18  H    4.210312   3.460940   2.155987   1.095311   2.133865
    19  H    3.288749   2.696987   2.168586   1.099602   2.161023
    20  H    6.044408   5.027438   3.826180   2.693920   2.148773
    21  H    7.740649   6.588396   5.709411   4.671322   3.419812
    22  H    7.740070   6.581869   6.247946   5.413361   3.900140
    23  H    6.045220   5.012124   5.233695   4.699767   3.404103
    24  H    3.252042   2.641166   3.318388   2.944596   2.855467
    25  H    4.212747   3.443434   4.235828   4.072016   3.434448
    26  H    2.416654   2.089954   3.492687   4.160960   4.275693
    27  H    3.957690   2.863449   2.991460   3.629510   3.187565
    28  H    3.057060   2.630900   3.102169   4.509514   4.878921
    29  H    3.466914   3.262215   4.302423   5.531039   5.700869
    30  H    4.560206   3.983605   4.488450   5.662353   5.593475
    31  H    4.760412   4.186762   5.236313   5.861624   5.410834
    32  H    5.217711   4.303165   4.946605   5.178259   4.324011
    33  H    5.546073   4.729933   5.349982   5.988703   5.346886
                    6          7          8          9         10
     6  C    0.000000
     7  C    1.394863   0.000000
     8  C    2.407654   1.393210   0.000000
     9  C    2.765283   2.408304   1.394940   0.000000
    10  C    2.423697   2.817139   2.442103   1.401245   0.000000
    11  C    3.829398   4.332384   3.818357   2.520705   1.515749
    12  C    4.572396   5.243321   4.872253   3.667180   2.622226
    13  C    4.803165   5.257717   4.824726   3.792088   3.133409
    14  C    5.959167   6.539988   6.249556   5.301000   4.562716
    15  C    5.561430   5.665487   4.879307   3.801024   3.643749
    16  H    4.414382   5.702876   6.192750   5.571802   4.251319
    17  H    3.526035   4.596116   4.983229   4.446741   3.340181
    18  H    2.558805   3.952842   4.771813   4.553638   3.434726
    19  H    3.231975   4.446199   4.828673   4.183741   2.877794
    20  H    1.087871   2.150185   3.391997   3.853145   3.406219
    21  H    2.155014   1.086673   2.158648   3.398506   3.903766
    22  H    3.397962   2.158575   1.086678   2.154661   3.421202
    23  H    3.852972   3.391465   2.148766   1.087742   2.149680
    24  H    4.168788   4.824134   4.448774   3.238364   2.154625
    25  H    4.555833   4.775924   3.957408   2.563947   2.134168
    26  H    5.606717   6.235763   5.745524   4.446414   3.507109
    27  H    3.992513   4.417175   4.143094   3.354990   2.780529
    28  H    5.853623   6.626075   6.559505   5.699520   4.778314
    29  H    6.809582   7.399611   7.008488   5.928605   5.167836
    30  H    6.413356   6.851455   6.539633   5.726497   5.192076
    31  H    6.434991   6.587543   5.741154   4.546735   4.318490
    32  H    5.118912   5.023671   4.059113   2.965679   3.127950
    33  H    6.074022   6.062949   5.295802   4.422522   4.437078
                   11         12         13         14         15
    11  C    0.000000
    12  C    1.561484   0.000000
    13  C    2.620397   1.553466   0.000000
    14  C    3.967540   2.548926   1.538245   0.000000
    15  C    3.106482   2.553685   1.536788   2.516884   0.000000
    16  H    4.155090   3.512072   4.144174   4.263962   5.641660
    17  H    3.557467   2.893921   2.937574   3.262501   4.395632
    18  H    4.076200   4.292775   4.949147   5.667894   6.200743
    19  H    2.982074   3.415227   4.543548   5.407120   5.668987
    20  H    4.703254   5.295215   5.541036   6.530808   6.452084
    21  H    5.419054   6.298613   6.225667   7.447275   6.605513
    22  H    4.675217   5.740349   5.563043   6.987342   5.365463
    23  H    2.699253   3.840558   3.902357   5.430029   3.497392
    24  H    1.099727   2.162649   3.533761   4.708476   4.109099
    25  H    1.094737   2.164628   2.930408   4.321987   2.846645
    26  H    2.150475   1.097584   2.158252   2.792481   2.755868
    27  H    2.837828   2.166268   1.098699   2.152887   2.143985
    28  H    4.281380   2.826569   2.202843   1.095755   3.489787
    29  H    4.281856   2.802946   2.185353   1.097124   2.801249
    30  H    4.788256   3.505359   2.179843   1.096015   2.729896
    31  H    3.435998   2.795547   2.184649   2.813957   1.097922
    32  H    2.810510   2.852284   2.199118   3.486188   1.094136
    33  H    4.122395   3.506794   2.176164   2.711110   1.096318
                   16         17         18         19         20
    16  H    0.000000
    17  H    1.776410   0.000000
    18  H    2.375014   2.582245   0.000000
    19  H    2.574181   3.064372   1.752388   0.000000
    20  H    4.374608   3.708634   2.269960   3.441726   0.000000
    21  H    6.499663   5.399011   4.611343   5.327262   2.474467
    22  H    7.259199   5.983786   5.836966   5.893510   4.296224
    23  H    6.311128   5.188053   5.523980   4.945709   4.940816
    24  H    4.119013   3.984587   3.989769   2.522449   4.926121
    25  H    5.212628   4.523180   5.129831   4.010091   5.524589
    26  H    4.201961   3.852372   5.213542   4.121080   6.341920
    27  H    3.954494   2.411823   4.403199   4.349363   4.690332
    28  H    3.477518   2.681490   5.160839   5.071271   6.260107
    29  H    4.802912   4.110073   6.382971   5.879287   7.416687
    30  H    5.075902   3.868950   6.367783   6.300066   6.974716
    31  H    6.109185   5.096225   6.872525   6.117522   7.333478
    32  H    5.981071   4.706857   6.129650   5.555489   6.104196
    33  H    6.263253   4.855702   6.852137   6.531890   6.923906
                   21         22         23         24         25
    21  H    0.000000
    22  H    2.496925   0.000000
    23  H    4.295165   2.471710   0.000000
    24  H    5.889793   5.333644   3.457903   0.000000
    25  H    5.841084   4.615916   2.278773   1.747231   0.000000
    26  H    7.305710   6.546175   4.406640   2.479011   2.370753
    27  H    5.318820   4.908954   3.698534   3.798800   3.305787
    28  H    7.498681   7.394277   6.007140   4.876079   4.861162
    29  H    8.354615   7.727738   5.919114   4.899444   4.496047
    30  H    7.673479   7.170865   5.816753   5.634335   5.046568
    31  H    7.564595   6.207581   4.096696   4.275286   2.995765
    32  H    5.957058   4.449114   2.488619   3.849604   2.335351
    33  H    6.901263   5.659327   4.126729   5.157503   3.887116
                   26         27         28         29         30
    26  H    0.000000
    27  H    3.057211   0.000000
    28  H    3.194574   2.511914   0.000000
    29  H    2.600079   3.074456   1.766011   0.000000
    30  H    3.783453   2.504066   1.769007   1.772207   0.000000
    31  H    2.545599   3.068099   3.834962   2.653430   3.133005
    32  H    3.167778   2.481321   4.357657   3.831868   3.722652
    33  H    3.747103   2.506479   3.721712   3.087154   2.463393
                   31         32         33
    31  H    0.000000
    32  H    1.774595   0.000000
    33  H    1.770442   1.764873   0.000000
 Stoichiometry    C14H18O
 Framework group  C1[X(C14H18O)]
 Deg. of freedom    93
 Full point group                 C1      NOp   1
 Largest Abelian subgroup         C1      NOp   1
 Largest concise Abelian subgroup C1      NOp   1
                         Standard orientation:                         
 ---------------------------------------------------------------------
 Center     Atomic      Atomic             Coordinates (Angstroms)
 Number     Number       Type             X           Y           Z
 ---------------------------------------------------------------------
      1          8           0       -2.767575   -1.770360    0.716351
      2          6           0       -1.794950   -1.194330    0.259658
      3          6           0       -0.829177   -1.932231   -0.659220
      4          6           0        0.562858   -2.165132   -0.012988
      5          6           0        1.470449   -0.953763    0.000578
      6          6           0        2.687981   -0.999656   -0.689864
      7          6           0        3.564323    0.085507   -0.699283
      8          6           0        3.225726    1.245077   -0.005175
      9          6           0        2.013670    1.304243    0.682777
     10          6           0        1.121100    0.224139    0.696323
     11          6           0       -0.176820    0.337547    1.470943
     12          6           0       -1.500454    0.256470    0.646534
     13          6           0       -1.566360    1.226419   -0.565123
     14          6           0       -2.872838    1.036768   -1.354646
     15          6           0       -1.432884    2.691358   -0.120317
     16          1           0       -1.293347   -2.896186   -0.887257
     17          1           0       -0.697161   -1.381983   -1.599567
     18          1           0        1.058897   -2.969064   -0.567374
     19          1           0        0.414611   -2.548234    1.007002
     20          1           0        2.954817   -1.908254   -1.225319
     21          1           0        4.503995    0.021197   -1.241261
     22          1           0        3.898269    2.098575    0.004626
     23          1           0        1.755747    2.206829    1.232318
     24          1           0       -0.221365   -0.443710    2.243635
     25          1           0       -0.177290    1.287859    2.014411
     26          1           0       -2.314895    0.522111    1.332691
     27          1           0       -0.723657    1.001724   -1.233333
     28          1           0       -2.977272    0.020957   -1.752014
     29          1           0       -3.746261    1.229706   -0.719360
     30          1           0       -2.914703    1.730623   -2.202030
     31          1           0       -2.221127    2.957060    0.596278
     32          1           0       -0.465166    2.897283    0.346855
     33          1           0       -1.529252    3.361901   -0.982291
 ---------------------------------------------------------------------
 Rotational constants (GHZ):           0.9170648           0.4905636           0.3800780
 Standard basis: 6-31G(d) (6D, 7F)
 There are   261 symmetry adapted cartesian basis functions of A   symmetry.
 There are   261 symmetry adapted basis functions of A   symmetry.
   261 basis functions,   492 primitive gaussians,   261 cartesian basis functions
    55 alpha electrons       55 beta electrons
       nuclear repulsion energy      1007.3377577238 Hartrees.
 NAtoms=   33 NActive=   33 NUniq=   33 SFac= 1.00D+00 NAtFMM=   60 NAOKFM=F Big=F
 Integral buffers will be    131072 words long.
 Raffenetti 2 integral format.
 Two-electron integral symmetry is turned on.
 One-electron integrals computed using PRISM.
 NBasis=   261 RedAO= T EigKep=  4.07D-04  NBF=   261
 NBsUse=   261 1.00D-06 EigRej= -1.00D+00 NBFU=   261
 ExpMin= 1.61D-01 ExpMax= 5.48D+03 ExpMxC= 8.25D+02 IAcc=3 IRadAn=         5 AccDes= 0.00D+00
 Harris functional with IExCor=  402 and IRadAn=       5 diagonalized for initial guess.
 HarFok:  IExCor=  402 AccDes= 0.00D+00 IRadAn=         5 IDoV= 1 UseB2=F ITyADJ=14
 ICtDFT=  3500011 ScaDFX=  1.000000  1.000000  1.000000  1.000000
 FoFCou: FMM=F IPFlag=           0 FMFlag=      100000 FMFlg1=           0
         NFxFlg=           0 DoJE=T BraDBF=F KetDBF=T FulRan=T
         wScrn=  0.000000 ICntrl=       500 IOpCl=  0 I1Cent=   200000004 NGrid=           0
         NMat0=    1 NMatS0=      1 NMatT0=    0 NMatD0=    1 NMtDS0=    0 NMtDT0=    0
 Petite list used in FoFCou.
 Requested convergence on RMS density matrix=1.00D-08 within 128 cycles.
 Requested convergence on MAX density matrix=1.00D-06.
 Requested convergence on             energy=1.00D-06.
 No special actions if energy rises.
 Integral accuracy reduced to 1.0D-05 until final iterations.
 Initial convergence to 1.0D-05 achieved.  Increase integral accuracy.
 SCF Done:  E(RB3LYP) =  -619.566268640     A.U. after   15 cycles
            NFock= 15  Conv=0.47D-08     -V/T= 2.0098
 DoSCS=F DFT=T ScalE2(SS,OS)=  1.000000  1.000000
 Range of M.O.s used for correlation:     1   261
 NBasis=   261 NAE=    55 NBE=    55 NFC=     0 NFV=     0
 NROrb=    261 NOA=    55 NOB=    55 NVA=   206 NVB=   206
 Symmetrizing basis deriv contribution to polar:
 IMax=3 JMax=2 DiffMx= 0.00D+00
 G2DrvN: will do    34 centers at a time, making    1 passes.
 Calling FoFCou, ICntrl=  3107 FMM=F I1Cent=   0 AccDes= 0.00D+00.
 End of G2Drv F.D. properties file   721 does not exist.
 End of G2Drv F.D. properties file   722 does not exist.
 End of G2Drv F.D. properties file   788 does not exist.
          IDoAtm=111111111111111111111111111111111
          Differentiating once with respect to electric field.
                with respect to dipole field.
          Differentiating once with respect to nuclear coordinates.
 Keep R1 ints in memory in canonical form, NReq=595457143.
          There are   102 degrees of freedom in the 1st order CPHF.  IDoFFX=6 NUNeed=     3.
     99 vectors produced by pass  0 Test12= 1.13D-14 1.00D-09 XBig12= 1.50D+02 5.41D+00.
 AX will form    99 AO Fock derivatives at one time.
     99 vectors produced by pass  1 Test12= 1.13D-14 1.00D-09 XBig12= 2.04D+01 1.08D+00.
     99 vectors produced by pass  2 Test12= 1.13D-14 1.00D-09 XBig12= 1.49D-01 6.51D-02.
     99 vectors produced by pass  3 Test12= 1.13D-14 1.00D-09 XBig12= 4.51D-04 1.65D-03.
     99 vectors produced by pass  4 Test12= 1.13D-14 1.00D-09 XBig12= 4.76D-07 7.16D-05.
     58 vectors produced by pass  5 Test12= 1.13D-14 1.00D-09 XBig12= 3.15D-10 1.56D-06.
      5 vectors produced by pass  6 Test12= 1.13D-14 1.00D-09 XBig12= 1.84D-13 5.22D-08.
      1 vectors produced by pass  7 Test12= 1.13D-14 1.00D-09 XBig12= 1.02D-16 1.51D-09.
 InvSVY:  IOpt=1 It=  1 EMax= 3.55D-15
 Solved reduced A of dimension   559 with   102 vectors.
 Isotropic polarizability for W=    0.000000      139.88 Bohr**3.
 End of Minotr F.D. properties file   721 does not exist.
 End of Minotr F.D. properties file   722 does not exist.
 End of Minotr F.D. properties file   788 does not exist.

 **********************************************************************

            Population analysis using the SCF density.

 **********************************************************************

 Orbital symmetries:
       Occupied  (A) (A) (A) (A) (A) (A) (A) (A) (A) (A) (A) (A)
                 (A) (A) (A) (A) (A) (A) (A) (A) (A) (A) (A) (A)
                 (A) (A) (A) (A) (A) (A) (A) (A) (A) (A) (A) (A)
                 (A) (A) (A) (A) (A) (A) (A) (A) (A) (A) (A) (A)
                 (A) (A) (A) (A) (A) (A) (A)
       Virtual   (A) (A) (A) (A) (A) (A) (A) (A) (A) (A) (A) (A)
                 (A) (A) (A) (A) (A) (A) (A) (A) (A) (A) (A) (A)
                 (A) (A) (A) (A) (A) (A) (A) (A) (A) (A) (A) (A)
                 (A) (A) (A) (A) (A) (A) (A) (A) (A) (A) (A) (A)
                 (A) (A) (A) (A) (A) (A) (A) (A) (A) (A) (A) (A)
                 (A) (A) (A) (A) (A) (A) (A) (A) (A) (A) (A) (A)
                 (A) (A) (A) (A) (A) (A) (A) (A) (A) (A) (A) (A)
                 (A) (A) (A) (A) (A) (A) (A) (A) (A) (A) (A) (A)
                 (A) (A) (A) (A) (A) (A) (A) (A) (A) (A) (A) (A)
                 (A) (A) (A) (A) (A) (A) (A) (A) (A) (A) (A) (A)
                 (A) (A) (A) (A) (A) (A) (A) (A) (A) (A) (A) (A)
                 (A) (A) (A) (A) (A) (A) (A) (A) (A) (A) (A) (A)
                 (A) (A) (A) (A) (A) (A) (A) (A) (A) (A) (A) (A)
                 (A) (A) (A) (A) (A) (A) (A) (A) (A) (A) (A) (A)
                 (A) (A) (A) (A) (A) (A) (A) (A) (A) (A) (A) (A)
                 (A) (A) (A) (A) (A) (A) (A) (A) (A) (A) (A) (A)
                 (A) (A) (A) (A) (A) (A) (A) (A) (A) (A) (A) (A)
                 (A) (A)
 The electronic state is 1-A.
 Alpha  occ. eigenvalues --  -19.13201 -10.26638 -10.20063 -10.19882 -10.19829
 Alpha  occ. eigenvalues --  -10.19732 -10.19634 -10.19449 -10.19253 -10.19119
 Alpha  occ. eigenvalues --  -10.19084 -10.19048 -10.19027 -10.17695 -10.17517
 Alpha  occ. eigenvalues --   -1.03114  -0.86530  -0.82308  -0.79541  -0.77105
 Alpha  occ. eigenvalues --   -0.73917  -0.72712  -0.68543  -0.65218  -0.65027
 Alpha  occ. eigenvalues --   -0.60279  -0.58244  -0.56234  -0.52875  -0.50217
 Alpha  occ. eigenvalues --   -0.47467  -0.47254  -0.45812  -0.45600  -0.44453
 Alpha  occ. eigenvalues --   -0.43382  -0.42193  -0.41670  -0.40710  -0.39849
 Alpha  occ. eigenvalues --   -0.39147  -0.38626  -0.38327  -0.36470  -0.36171
 Alpha  occ. eigenvalues --   -0.35618  -0.34569  -0.33987  -0.33640  -0.33268
 Alpha  occ. eigenvalues --   -0.32410  -0.31590  -0.24928  -0.24098  -0.23316
 Alpha virt. eigenvalues --   -0.01212  -0.00564  -0.00148   0.07681   0.09510
 Alpha virt. eigenvalues --    0.10402   0.10506   0.12010   0.12861   0.13921
 Alpha virt. eigenvalues --    0.14353   0.15084   0.15628   0.15911   0.16887
 Alpha virt. eigenvalues --    0.17269   0.18276   0.18609   0.19717   0.19974
 Alpha virt. eigenvalues --    0.20729   0.22060   0.22464   0.23363   0.23601
 Alpha virt. eigenvalues --    0.24461   0.25103   0.26293   0.27249   0.29542
 Alpha virt. eigenvalues --    0.31512   0.33501   0.34463   0.35309   0.36731
 Alpha virt. eigenvalues --    0.36942   0.47562   0.49161   0.49735   0.51017
 Alpha virt. eigenvalues --    0.52147   0.52408   0.53526   0.54253   0.55040
 Alpha virt. eigenvalues --    0.56418   0.57830   0.58128   0.58761   0.60022
 Alpha virt. eigenvalues --    0.61024   0.61172   0.61347   0.62975   0.63328
 Alpha virt. eigenvalues --    0.64577   0.65740   0.67346   0.68254   0.69777
 Alpha virt. eigenvalues --    0.70555   0.71885   0.72425   0.73689   0.74801
 Alpha virt. eigenvalues --    0.76638   0.80079   0.80679   0.81265   0.82409
 Alpha virt. eigenvalues --    0.83161   0.83275   0.83904   0.85096   0.85713
 Alpha virt. eigenvalues --    0.87227   0.87688   0.88315   0.90031   0.90155
 Alpha virt. eigenvalues --    0.90678   0.90876   0.92253   0.93453   0.93911
 Alpha virt. eigenvalues --    0.94570   0.95067   0.95706   0.97308   0.98202
 Alpha virt. eigenvalues --    0.99072   1.00353   1.02095   1.03742   1.04206
 Alpha virt. eigenvalues --    1.06785   1.08507   1.10078   1.12342   1.13085
 Alpha virt. eigenvalues --    1.17149   1.18442   1.21494   1.23349   1.26747
 Alpha virt. eigenvalues --    1.31712   1.33150   1.34415   1.39077   1.40664
 Alpha virt. eigenvalues --    1.42502   1.42955   1.44947   1.47785   1.48591
 Alpha virt. eigenvalues --    1.50132   1.51199   1.53850   1.56807   1.60035
 Alpha virt. eigenvalues --    1.64599   1.65424   1.68234   1.68981   1.74476
 Alpha virt. eigenvalues --    1.75979   1.76740   1.78021   1.80521   1.82702
 Alpha virt. eigenvalues --    1.83385   1.84123   1.86705   1.87181   1.88737
 Alpha virt. eigenvalues --    1.91140   1.92168   1.93422   1.94536   1.95305
 Alpha virt. eigenvalues --    1.96944   1.98330   1.99101   2.00785   2.02690
 Alpha virt. eigenvalues --    2.04034   2.05887   2.06710   2.09991   2.11077
 Alpha virt. eigenvalues --    2.12163   2.13648   2.15718   2.19326   2.21281
 Alpha virt. eigenvalues --    2.21505   2.23549   2.25398   2.26439   2.28437
 Alpha virt. eigenvalues --    2.29288   2.31335   2.32439   2.34732   2.37712
 Alpha virt. eigenvalues --    2.40555   2.41025   2.45804   2.46191   2.47746
 Alpha virt. eigenvalues --    2.49146   2.52501   2.52762   2.60907   2.62481
 Alpha virt. eigenvalues --    2.64445   2.65213   2.67473   2.69130   2.73342
 Alpha virt. eigenvalues --    2.73882   2.76580   2.78273   2.79406   2.79526
 Alpha virt. eigenvalues --    2.81176   2.97010   2.99357   3.01232   3.09447
 Alpha virt. eigenvalues --    3.40848   4.07136   4.09318   4.10630   4.12894
 Alpha virt. eigenvalues --    4.16846   4.22117   4.29633   4.31562   4.32826
 Alpha virt. eigenvalues --    4.42755   4.42827   4.55137   4.61510   4.69419
 Alpha virt. eigenvalues --    4.74613
          Condensed to atoms (all electrons):
               1          2          3          4          5          6
     1  O    8.032211   0.563051  -0.083414  -0.000828  -0.000018  -0.000001
     2  C    0.563051   4.514035   0.323606  -0.024792  -0.004285  -0.000011
     3  C   -0.083414   0.323606   5.325869   0.321246  -0.038694  -0.000995
     4  C   -0.000828  -0.024792   0.321246   5.202055   0.349653  -0.059788
     5  C   -0.000018  -0.004285  -0.038694   0.349653   4.752199   0.526586
     6  C   -0.000001  -0.000011  -0.000995  -0.059788   0.526586   4.993656
     7  C   -0.000000   0.000002  -0.000166   0.007476  -0.024618   0.516620
     8  C   -0.000000   0.000005   0.000022  -0.000054  -0.040471  -0.027614
     9  C   -0.000000  -0.000038  -0.000009   0.008781  -0.020136  -0.060739
    10  C    0.000019  -0.007189   0.003064  -0.069331   0.527850  -0.017962
    11  C    0.000141  -0.026348  -0.001255  -0.012529  -0.068283   0.008741
    12  C   -0.076016   0.332677  -0.119965   0.000989   0.003559   0.000024
    13  C    0.000249  -0.032230   0.000757  -0.000713  -0.002580  -0.000100
    14  C    0.000815   0.001142  -0.001247   0.000112   0.000013  -0.000000
    15  C   -0.000080   0.003180  -0.000111   0.000001   0.000095   0.000006
    16  H    0.005766  -0.024735   0.336944  -0.023631   0.004314  -0.000044
    17  H    0.002625  -0.024331   0.341076  -0.036623  -0.001742   0.001654
    18  H   -0.000083   0.002922  -0.028509   0.361733  -0.033371  -0.005618
    19  H    0.001475  -0.003022  -0.049746   0.359107  -0.028296   0.001576
    20  H    0.000000   0.000005   0.000270  -0.011301  -0.039426   0.350453
    21  H    0.000000   0.000000   0.000001  -0.000181   0.003638  -0.038721
    22  H    0.000000   0.000000  -0.000000   0.000009   0.001001   0.004392
    23  H    0.000000   0.000004  -0.000001  -0.000174   0.005081   0.000705
    24  H    0.001355  -0.002295   0.000056   0.001673  -0.007166  -0.000125
    25  H   -0.000106   0.003437  -0.000220   0.000001   0.005001  -0.000156
    26  H    0.006008  -0.034674   0.007840  -0.000140  -0.000108   0.000002
    27  H   -0.000082  -0.007287   0.002755  -0.000438   0.002018  -0.000028
    28  H   -0.000031   0.007060   0.000350   0.000045  -0.000001   0.000000
    29  H    0.000205  -0.001016   0.000129  -0.000004  -0.000002  -0.000000
    30  H    0.000026   0.000219   0.000030  -0.000001   0.000001   0.000000
    31  H   -0.000007  -0.000007   0.000001  -0.000001   0.000002  -0.000000
    32  H    0.000000  -0.000027  -0.000002  -0.000004   0.000004  -0.000009
    33  H    0.000001  -0.000076   0.000007  -0.000000  -0.000003  -0.000000
               7          8          9         10         11         12
     1  O   -0.000000  -0.000000  -0.000000   0.000019   0.000141  -0.076016
     2  C    0.000002   0.000005  -0.000038  -0.007189  -0.026348   0.332677
     3  C   -0.000166   0.000022  -0.000009   0.003064  -0.001255  -0.119965
     4  C    0.007476  -0.000054   0.008781  -0.069331  -0.012529   0.000989
     5  C   -0.024618  -0.040471  -0.020136   0.527850  -0.068283   0.003559
     6  C    0.516620  -0.027614  -0.060739  -0.017962   0.008741   0.000024
     7  C    4.872489   0.549614  -0.026997  -0.040850  -0.000076   0.000020
     8  C    0.549614   4.873060   0.515971  -0.024271   0.007340  -0.000128
     9  C   -0.026997   0.515971   5.001543   0.521868  -0.058694  -0.001321
    10  C   -0.040850  -0.024271   0.521868   4.750827   0.340134  -0.036724
    11  C   -0.000076   0.007340  -0.058694   0.340134   5.268535   0.310912
    12  C    0.000020  -0.000128  -0.001321  -0.036724   0.310912   5.251316
    13  C    0.000008  -0.000006   0.001575  -0.005157  -0.037101   0.350399
    14  C   -0.000000  -0.000000   0.000009   0.000104   0.005124  -0.052998
    15  C   -0.000001   0.000002  -0.001658  -0.002300  -0.003091  -0.040508
    16  H    0.000002   0.000000   0.000002  -0.000066  -0.000138   0.006751
    17  H   -0.000060  -0.000009  -0.000111  -0.000751  -0.000314  -0.000158
    18  H    0.000311  -0.000004  -0.000163   0.004843   0.000020  -0.000220
    19  H   -0.000232   0.000035  -0.000117  -0.006117   0.001504   0.000144
    20  H   -0.045694   0.004635   0.000668   0.005204  -0.000172   0.000000
    21  H    0.356000  -0.042169   0.004405   0.001003   0.000009  -0.000000
    22  H   -0.042057   0.356045  -0.038723   0.003617  -0.000176   0.000001
    23  H    0.004557  -0.045136   0.349681  -0.039511  -0.011073   0.000312
    24  H    0.000032  -0.000224   0.002053  -0.029310   0.356861  -0.044749
    25  H   -0.000007   0.000341  -0.006729  -0.032637   0.357203  -0.025562
    26  H    0.000000   0.000001  -0.000077   0.005147  -0.032797   0.334124
    27  H   -0.000016  -0.000074   0.000756   0.009511  -0.010119  -0.041222
    28  H   -0.000000   0.000000   0.000000   0.000005   0.000030  -0.006649
    29  H    0.000000   0.000000  -0.000000   0.000003  -0.000033  -0.005443
    30  H   -0.000000  -0.000000   0.000001   0.000003  -0.000126   0.004684
    31  H    0.000000   0.000000   0.000002   0.000206  -0.001154  -0.005562
    32  H   -0.000002   0.000023   0.003417   0.000093   0.002322  -0.006310
    33  H    0.000000  -0.000001   0.000021  -0.000001   0.000084   0.004392
              13         14         15         16         17         18
     1  O    0.000249   0.000815  -0.000080   0.005766   0.002625  -0.000083
     2  C   -0.032230   0.001142   0.003180  -0.024735  -0.024331   0.002922
     3  C    0.000757  -0.001247  -0.000111   0.336944   0.341076  -0.028509
     4  C   -0.000713   0.000112   0.000001  -0.023631  -0.036623   0.361733
     5  C   -0.002580   0.000013   0.000095   0.004314  -0.001742  -0.033371
     6  C   -0.000100  -0.000000   0.000006  -0.000044   0.001654  -0.005618
     7  C    0.000008  -0.000000  -0.000001   0.000002  -0.000060   0.000311
     8  C   -0.000006  -0.000000   0.000002   0.000000  -0.000009  -0.000004
     9  C    0.001575   0.000009  -0.001658   0.000002  -0.000111  -0.000163
    10  C   -0.005157   0.000104  -0.002300  -0.000066  -0.000751   0.004843
    11  C   -0.037101   0.005124  -0.003091  -0.000138  -0.000314   0.000020
    12  C    0.350399  -0.052998  -0.040508   0.006751  -0.000158  -0.000220
    13  C    4.913558   0.377428   0.372107  -0.000077   0.001912   0.000004
    14  C    0.377428   5.123926  -0.055628  -0.000060  -0.000155  -0.000000
    15  C    0.372107  -0.055628   5.122580   0.000003   0.000064   0.000000
    16  H   -0.000077  -0.000060   0.000003   0.565445  -0.027731  -0.006917
    17  H    0.001912  -0.000155   0.000064  -0.027731   0.579102  -0.002558
    18  H    0.000004  -0.000000   0.000000  -0.006917  -0.002558   0.578384
    19  H    0.000030  -0.000005   0.000002   0.000008   0.005810  -0.033446
    20  H   -0.000000  -0.000000   0.000000  -0.000022   0.000106   0.008560
    21  H   -0.000000   0.000000   0.000000  -0.000000   0.000001  -0.000015
    22  H    0.000000   0.000000   0.000000   0.000000  -0.000000  -0.000000
    23  H   -0.000102   0.000001  -0.000527  -0.000000   0.000001   0.000003
    24  H    0.005319  -0.000114  -0.000067  -0.000017   0.000024   0.000025
    25  H   -0.006867  -0.000039   0.003749   0.000006   0.000005  -0.000003
    26  H   -0.037659  -0.004972  -0.007606  -0.000200  -0.000117   0.000007
    27  H    0.370976  -0.047063  -0.042638   0.000002   0.002777   0.000006
    28  H   -0.028687   0.368538   0.005215   0.000068   0.001293  -0.000000
    29  H   -0.033257   0.373363  -0.005170  -0.000001  -0.000020   0.000000
    30  H   -0.030149   0.369353  -0.004423   0.000000  -0.000088  -0.000000
    31  H   -0.035100  -0.005018   0.371217   0.000000   0.000002  -0.000000
    32  H   -0.026727   0.005100   0.365923  -0.000000  -0.000000   0.000000
    33  H   -0.029904  -0.004511   0.371509  -0.000000  -0.000003   0.000000
              19         20         21         22         23         24
     1  O    0.001475   0.000000   0.000000   0.000000   0.000000   0.001355
     2  C   -0.003022   0.000005   0.000000   0.000000   0.000004  -0.002295
     3  C   -0.049746   0.000270   0.000001  -0.000000  -0.000001   0.000056
     4  C    0.359107  -0.011301  -0.000181   0.000009  -0.000174   0.001673
     5  C   -0.028296  -0.039426   0.003638   0.001001   0.005081  -0.007166
     6  C    0.001576   0.350453  -0.038721   0.004392   0.000705  -0.000125
     7  C   -0.000232  -0.045694   0.356000  -0.042057   0.004557   0.000032
     8  C    0.000035   0.004635  -0.042169   0.356045  -0.045136  -0.000224
     9  C   -0.000117   0.000668   0.004405  -0.038723   0.349681   0.002053
    10  C   -0.006117   0.005204   0.001003   0.003617  -0.039511  -0.029310
    11  C    0.001504  -0.000172   0.000009  -0.000176  -0.011073   0.356861
    12  C    0.000144   0.000000  -0.000000   0.000001   0.000312  -0.044749
    13  C    0.000030  -0.000000  -0.000000   0.000000  -0.000102   0.005319
    14  C   -0.000005  -0.000000   0.000000   0.000000   0.000001  -0.000114
    15  C    0.000002   0.000000   0.000000   0.000000  -0.000527  -0.000067
    16  H    0.000008  -0.000022  -0.000000   0.000000  -0.000000  -0.000017
    17  H    0.005810   0.000106   0.000001  -0.000000   0.000001   0.000024
    18  H   -0.033446   0.008560  -0.000015  -0.000000   0.000003   0.000025
    19  H    0.585981   0.000186   0.000003  -0.000000  -0.000000   0.003269
    20  H    0.000186   0.607248  -0.005345  -0.000196   0.000020  -0.000001
    21  H    0.000003  -0.005345   0.596985  -0.005238  -0.000196  -0.000000
    22  H   -0.000000  -0.000196  -0.005238   0.596894  -0.005313   0.000003
    23  H   -0.000000   0.000020  -0.000196  -0.005313   0.604775   0.000122
    24  H    0.003269  -0.000001  -0.000000   0.000003   0.000122   0.588413
    25  H    0.000030   0.000003  -0.000000  -0.000014   0.007702  -0.033838
    26  H   -0.000048  -0.000000   0.000000  -0.000000  -0.000017  -0.000929
    27  H    0.000020  -0.000002   0.000000  -0.000003   0.000005   0.000070
    28  H    0.000003  -0.000000  -0.000000   0.000000  -0.000000  -0.000002
    29  H   -0.000000  -0.000000   0.000000  -0.000000  -0.000000  -0.000002
    30  H    0.000000   0.000000   0.000000  -0.000000   0.000000   0.000002
    31  H   -0.000000  -0.000000  -0.000000  -0.000000  -0.000002  -0.000026
    32  H   -0.000000   0.000000  -0.000000  -0.000005   0.002952   0.000112
    33  H   -0.000000   0.000000  -0.000000   0.000000   0.000010   0.000001
              25         26         27         28         29         30
     1  O   -0.000106   0.006008  -0.000082  -0.000031   0.000205   0.000026
     2  C    0.003437  -0.034674  -0.007287   0.007060  -0.001016   0.000219
     3  C   -0.000220   0.007840   0.002755   0.000350   0.000129   0.000030
     4  C    0.000001  -0.000140  -0.000438   0.000045  -0.000004  -0.000001
     5  C    0.005001  -0.000108   0.002018  -0.000001  -0.000002   0.000001
     6  C   -0.000156   0.000002  -0.000028   0.000000  -0.000000   0.000000
     7  C   -0.000007   0.000000  -0.000016  -0.000000   0.000000  -0.000000
     8  C    0.000341   0.000001  -0.000074   0.000000   0.000000  -0.000000
     9  C   -0.006729  -0.000077   0.000756   0.000000  -0.000000   0.000001
    10  C   -0.032637   0.005147   0.009511   0.000005   0.000003   0.000003
    11  C    0.357203  -0.032797  -0.010119   0.000030  -0.000033  -0.000126
    12  C   -0.025562   0.334124  -0.041222  -0.006649  -0.005443   0.004684
    13  C   -0.006867  -0.037659   0.370976  -0.028687  -0.033257  -0.030149
    14  C   -0.000039  -0.004972  -0.047063   0.368538   0.373363   0.369353
    15  C    0.003749  -0.007606  -0.042638   0.005215  -0.005170  -0.004423
    16  H    0.000006  -0.000200   0.000002   0.000068  -0.000001   0.000000
    17  H    0.000005  -0.000117   0.002777   0.001293  -0.000020  -0.000088
    18  H   -0.000003   0.000007   0.000006  -0.000000   0.000000  -0.000000
    19  H    0.000030  -0.000048   0.000020   0.000003  -0.000000   0.000000
    20  H    0.000003  -0.000000  -0.000002  -0.000000  -0.000000   0.000000
    21  H   -0.000000   0.000000   0.000000  -0.000000   0.000000   0.000000
    22  H   -0.000014  -0.000000  -0.000003   0.000000  -0.000000  -0.000000
    23  H    0.007702  -0.000017   0.000005  -0.000000  -0.000000   0.000000
    24  H   -0.033838  -0.000929   0.000070  -0.000002  -0.000002   0.000002
    25  H    0.580245  -0.006533   0.000042  -0.000003  -0.000004  -0.000001
    26  H   -0.006533   0.612018   0.006305  -0.000120   0.005047  -0.000042
    27  H    0.000042   0.006305   0.617965  -0.003245   0.005516  -0.002954
    28  H   -0.000003  -0.000120  -0.003245   0.566221  -0.030362  -0.029517
    29  H   -0.000004   0.005047   0.005516  -0.030362   0.566053  -0.030652
    30  H   -0.000001  -0.000042  -0.002954  -0.029517  -0.030652   0.575817
    31  H    0.000695   0.005692   0.005652  -0.000051   0.004423  -0.000231
    32  H    0.000422  -0.000182  -0.003679  -0.000179  -0.000053   0.000010
    33  H   -0.000109   0.000032  -0.002832  -0.000022  -0.000166   0.004645
              31         32         33
     1  O   -0.000007   0.000000   0.000001
     2  C   -0.000007  -0.000027  -0.000076
     3  C    0.000001  -0.000002   0.000007
     4  C   -0.000001  -0.000004  -0.000000
     5  C    0.000002   0.000004  -0.000003
     6  C   -0.000000  -0.000009  -0.000000
     7  C    0.000000  -0.000002   0.000000
     8  C    0.000000   0.000023  -0.000001
     9  C    0.000002   0.003417   0.000021
    10  C    0.000206   0.000093  -0.000001
    11  C   -0.001154   0.002322   0.000084
    12  C   -0.005562  -0.006310   0.004392
    13  C   -0.035100  -0.026727  -0.029904
    14  C   -0.005018   0.005100  -0.004511
    15  C    0.371217   0.365923   0.371509
    16  H    0.000000  -0.000000  -0.000000
    17  H    0.000002  -0.000000  -0.000003
    18  H   -0.000000   0.000000   0.000000
    19  H   -0.000000  -0.000000  -0.000000
    20  H   -0.000000   0.000000   0.000000
    21  H   -0.000000  -0.000000  -0.000000
    22  H   -0.000000  -0.000005   0.000000
    23  H   -0.000002   0.002952   0.000010
    24  H   -0.000026   0.000112   0.000001
    25  H    0.000695   0.000422  -0.000109
    26  H    0.005692  -0.000182   0.000032
    27  H    0.005652  -0.003679  -0.002832
    28  H   -0.000051  -0.000179  -0.000022
    29  H    0.004423  -0.000053  -0.000166
    30  H   -0.000231   0.000010   0.004645
    31  H    0.579409  -0.031260  -0.031030
    32  H   -0.031260   0.569835  -0.029032
    33  H   -0.031030  -0.029032   0.571388
 Mulliken charges:
               1
     1  O   -0.453281
     2  C    0.441021
     3  C   -0.339688
     4  C   -0.372346
     5  C    0.128181
     6  C   -0.192505
     7  C   -0.126353
     8  C   -0.126931
     9  C   -0.195242
    10  C    0.138677
    11  C   -0.395480
    12  C   -0.136769
    13  C   -0.087906
    14  C   -0.453218
    15  C   -0.451846
    16  H    0.164327
    17  H    0.158319
    18  H    0.154089
    19  H    0.161844
    20  H    0.124803
    21  H    0.129821
    22  H    0.129762
    23  H    0.126122
    24  H    0.159474
    25  H    0.153944
    26  H    0.143997
    27  H    0.137303
    28  H    0.150043
    29  H    0.151444
    30  H    0.143391
    31  H    0.142148
    32  H    0.147255
    33  H    0.145600
 Sum of Mulliken charges =  -0.00000
 Mulliken charges with hydrogens summed into heavy atoms:
               1
     1  O   -0.453281
     2  C    0.441021
     3  C   -0.017042
     4  C   -0.056413
     5  C    0.128181
     6  C   -0.067702
     7  C    0.003468
     8  C    0.002831
     9  C   -0.069120
    10  C    0.138677
    11  C   -0.082062
    12  C    0.007228
    13  C    0.049397
    14  C   -0.008340
    15  C   -0.016843
 APT charges:
               1
     1  O   -0.631043
     2  C    0.679815
     3  C   -0.054055
     4  C    0.158125
     5  C    0.001264
     6  C   -0.031648
     7  C   -0.016488
     8  C   -0.012284
     9  C   -0.047631
    10  C    0.000285
    11  C    0.120577
    12  C   -0.045805
    13  C    0.125551
    14  C    0.063536
    15  C    0.060522
    16  H   -0.029939
    17  H    0.000994
    18  H   -0.034196
    19  H   -0.039327
    20  H    0.010416
    21  H    0.010932
    22  H    0.011312
    23  H    0.015244
    24  H   -0.047006
    25  H   -0.025206
    26  H   -0.052254
    27  H   -0.055170
    28  H   -0.019505
    29  H   -0.016536
    30  H   -0.032256
    31  H   -0.022595
    32  H   -0.014601
    33  H   -0.031028
 Sum of APT charges =   0.00000
 APT charges with hydrogens summed into heavy atoms:
               1
     1  O   -0.631043
     2  C    0.679815
     3  C   -0.083000
     4  C    0.084601
     5  C    0.001264
     6  C   -0.021232
     7  C   -0.005556
     8  C   -0.000972
     9  C   -0.032386
    10  C    0.000285
    11  C    0.048365
    12  C   -0.098059
    13  C    0.070380
    14  C   -0.004761
    15  C   -0.007702
 Electronic spatial extent (au):  <R**2>=           3161.6962
 Charge=             -0.0000 electrons
 Dipole moment (field-independent basis, Debye):
    X=              2.2397    Y=              1.3041    Z=             -0.9513  Tot=              2.7608
 Quadrupole moment (field-independent basis, Debye-Ang):
   XX=            -96.8630   YY=            -88.7022   ZZ=            -89.7682
   XY=             -6.0549   XZ=              1.0098   YZ=              4.0055
 Traceless Quadrupole moment (field-independent basis, Debye-Ang):
   XX=             -5.0852   YY=              3.0756   ZZ=              2.0096
   XY=             -6.0549   XZ=              1.0098   YZ=              4.0055
 Octapole moment (field-independent basis, Debye-Ang**2):
  XXX=             32.0446  YYY=             -4.8499  ZZZ=              3.4787  XYY=             14.4271
  XXY=             25.9373  XXZ=            -20.5433  XZZ=             -5.7791  YZZ=             -1.8217
  YYZ=             -3.6799  XYZ=             -2.4878
 Hexadecapole moment (field-independent basis, Debye-Ang**3):
 XXXX=          -2519.5062 YYYY=          -1283.1129 ZZZZ=           -469.3968 XXXY=            -23.9315
 XXXZ=            -38.5237 YYYX=              2.4326 YYYZ=             12.9487 ZZZX=             -7.9666
 ZZZY=             -5.5486 XXYY=           -649.8534 XXZZ=           -505.8202 YYZZ=           -285.4344
 XXYZ=             31.0648 YYXZ=             11.0058 ZZXY=             -4.3451
 N-N= 1.007337757724D+03 E-N=-3.450752672032D+03  KE= 6.135640387990D+02
  Exact polarizability: 166.742  10.456 146.948 -17.449  10.711 105.959
 Approx polarizability: 237.824  24.160 227.239 -40.851  21.630 171.977
 Calling FoFJK, ICntrl=    100127 FMM=F ISym2X=0 I1Cent= 0 IOpClX= 0 NMat=1 NMatS=1 NMatT=0.
 Full mass-weighted force constant matrix:
 Low frequencies ---   -7.9746    0.0004    0.0004    0.0008    3.2399    4.3605
 Low frequencies ---   56.0363   62.5591   74.6146
 Diagonal vibrational polarizability:
        9.5689629       9.0624163      21.0151679
 Harmonic frequencies (cm**-1), IR intensities (KM/Mole), Raman scattering
 activities (A**4/AMU), depolarization ratios for plane and unpolarized
 incident light, reduced masses (AMU), force constants (mDyne/A),
 and normal coordinates:
                      1                      2                      3
                      A                      A                      A
 Frequencies --     56.0360                62.5575                74.6122
 Red. masses --      5.1666                 3.7835                 2.7327
 Frc consts  --      0.0096                 0.0087                 0.0090
 IR Inten    --      2.2190                 0.1643                 0.7487
  Atom  AN      X      Y      Z        X      Y      Z        X      Y      Z
     1   8     0.18  -0.10   0.30    -0.05   0.02   0.04    -0.07   0.01  -0.11
     2   6     0.00  -0.00   0.05    -0.02  -0.02   0.04    -0.01  -0.03  -0.02
     3   6    -0.09   0.07  -0.10    -0.04  -0.06   0.06     0.02  -0.06   0.04
     4   6    -0.06   0.04  -0.19    -0.01  -0.01   0.01     0.03  -0.00   0.03
     5   6    -0.05   0.04  -0.09    -0.04   0.02  -0.01     0.01   0.02   0.01
     6   6    -0.03   0.05  -0.05    -0.10   0.09  -0.11     0.01   0.04  -0.00
     7   6     0.02   0.01   0.08    -0.13   0.12  -0.12    -0.01   0.05  -0.00
     8   6     0.05  -0.04   0.17    -0.10   0.06  -0.01    -0.02   0.04   0.02
     9   6     0.02  -0.04   0.12    -0.04  -0.01   0.09    -0.01   0.02   0.02
    10   6    -0.03  -0.00  -0.00    -0.02  -0.03   0.08    -0.00   0.01   0.01
    11   6    -0.04   0.02  -0.03    -0.02  -0.07   0.09    -0.01  -0.01  -0.00
    12   6    -0.04   0.02  -0.04     0.01  -0.02   0.02    -0.00  -0.03  -0.01
    13   6    -0.02  -0.03  -0.08     0.15  -0.04  -0.00    -0.02  -0.06  -0.03
    14   6    -0.06  -0.00  -0.01     0.22  -0.02  -0.13    -0.14   0.07   0.15
    15   6     0.10  -0.01  -0.17     0.15  -0.04  -0.02     0.22  -0.06  -0.11
    16   1    -0.09   0.08  -0.12    -0.04  -0.07   0.12     0.04  -0.08   0.08
    17   1    -0.15   0.13  -0.07    -0.08  -0.10   0.03     0.00  -0.10   0.01
    18   1    -0.07   0.10  -0.28    -0.00   0.01  -0.01     0.05  -0.00   0.05
    19   1    -0.02  -0.06  -0.22     0.04  -0.02   0.01     0.05   0.02   0.04
    20   1    -0.04   0.08  -0.11    -0.12   0.13  -0.19     0.02   0.04  -0.01
    21   1     0.04   0.01   0.12    -0.18   0.18  -0.21    -0.01   0.07  -0.01
    22   1     0.09  -0.07   0.28    -0.12   0.08  -0.01    -0.02   0.05   0.02
    23   1     0.04  -0.08   0.19    -0.03  -0.05   0.16    -0.02   0.01   0.04
    24   1    -0.06   0.02  -0.02    -0.04  -0.11   0.04    -0.00  -0.01   0.00
    25   1    -0.04   0.02  -0.03    -0.03  -0.10   0.13    -0.03  -0.01  -0.00
    26   1    -0.03   0.05  -0.05    -0.01   0.03  -0.03    -0.01  -0.03  -0.01
    27   1    -0.06  -0.12  -0.10     0.20  -0.08   0.08    -0.13  -0.19  -0.12
    28   1    -0.15  -0.03   0.09     0.23  -0.02  -0.12    -0.34   0.06   0.24
    29   1    -0.02   0.13   0.00     0.16   0.02  -0.22    -0.03   0.25   0.24
    30   1    -0.04  -0.08  -0.08     0.33  -0.03  -0.15    -0.15   0.02   0.10
    31   1     0.15   0.08  -0.14     0.08   0.00  -0.11     0.38   0.07   0.02
    32   1     0.14  -0.05  -0.24     0.10  -0.06   0.09     0.33  -0.15  -0.29
    33   1     0.09  -0.06  -0.20     0.27  -0.05  -0.04     0.15  -0.08  -0.12
                      4                      5                      6
                      A                      A                      A
 Frequencies --    110.0487               163.1708               180.4240
 Red. masses --      4.3466                 3.5459                 2.9636
 Frc consts  --      0.0310                 0.0556                 0.0568
 IR Inten    --      1.4476                 0.7667                 0.1164
  Atom  AN      X      Y      Z        X      Y      Z        X      Y      Z
     1   8     0.19  -0.14   0.08     0.10  -0.02  -0.09    -0.05   0.02  -0.05
     2   6     0.05  -0.02  -0.06     0.07   0.04  -0.07    -0.03   0.05   0.03
     3   6     0.06   0.04  -0.09     0.08   0.11  -0.11    -0.04   0.16  -0.08
     4   6    -0.02  -0.05   0.07    -0.04   0.01   0.10    -0.05   0.02  -0.12
     5   6    -0.00  -0.07   0.11    -0.02  -0.02   0.11     0.01  -0.01   0.02
     6   6     0.01  -0.07   0.12    -0.11  -0.01  -0.05     0.05  -0.03   0.09
     7   6    -0.07  -0.01   0.00    -0.11  -0.01  -0.14     0.02  -0.01   0.06
     8   6    -0.15   0.04  -0.14     0.00  -0.05  -0.01    -0.06   0.05  -0.08
     9   6    -0.13   0.03  -0.11     0.08  -0.06   0.13    -0.06   0.04  -0.08
    10   6    -0.06  -0.03   0.01     0.04  -0.02   0.14    -0.01  -0.01   0.00
    11   6    -0.07  -0.03   0.00     0.00   0.05   0.07     0.04  -0.04   0.07
    12   6    -0.04  -0.00  -0.06     0.04   0.03   0.00     0.01   0.01   0.12
    13   6     0.03   0.06  -0.00    -0.01   0.00  -0.02     0.04  -0.06   0.07
    14   6     0.02   0.19  -0.02    -0.05  -0.09   0.06     0.05  -0.14   0.07
    15   6     0.12   0.04   0.07    -0.05   0.03  -0.10     0.06  -0.02  -0.09
    16   1     0.05   0.08  -0.21     0.05   0.17  -0.27    -0.06   0.21  -0.24
    17   1     0.19   0.12  -0.03     0.24   0.22  -0.02    -0.03   0.31   0.01
    18   1     0.01  -0.08   0.13    -0.01  -0.06   0.22    -0.08   0.07  -0.22
    19   1    -0.15  -0.03   0.06    -0.21   0.09   0.11    -0.06  -0.10  -0.16
    20   1     0.06  -0.11   0.21    -0.19   0.01  -0.12     0.10  -0.05   0.15
    21   1    -0.07  -0.01   0.00    -0.20   0.02  -0.29     0.05  -0.02   0.11
    22   1    -0.22   0.10  -0.25     0.02  -0.07  -0.04    -0.11   0.09  -0.15
    23   1    -0.18   0.07  -0.20     0.15  -0.07   0.18    -0.11   0.06  -0.14
    24   1    -0.10  -0.04  -0.02    -0.08   0.10   0.12     0.07  -0.07   0.04
    25   1    -0.07  -0.04   0.01    -0.01   0.09   0.01     0.07  -0.06   0.11
    26   1    -0.07  -0.04  -0.08     0.01  -0.01  -0.01     0.02   0.03   0.13
    27   1     0.02   0.05  -0.01    -0.03   0.00  -0.04     0.05  -0.13   0.10
    28   1    -0.07   0.19  -0.00     0.00  -0.10   0.06     0.09  -0.16   0.11
    29   1     0.04   0.29  -0.03    -0.02  -0.17   0.12     0.04  -0.16   0.06
    30   1     0.10   0.18  -0.03    -0.16  -0.09   0.07     0.02  -0.18   0.05
    31   1     0.16   0.04   0.12    -0.04   0.06  -0.11    -0.04   0.12  -0.25
    32   1     0.15  -0.03   0.03    -0.04   0.08  -0.13    -0.00  -0.03   0.05
    33   1     0.11   0.08   0.11    -0.07  -0.03  -0.15     0.25  -0.13  -0.19
                      7                      8                      9
                      A                      A                      A
 Frequencies --    211.3474               229.7804               235.2256
 Red. masses --      1.8977                 1.4293                 1.2450
 Frc consts  --      0.0499                 0.0445                 0.0406
 IR Inten    --      0.5167                 0.0888                 0.3594
  Atom  AN      X      Y      Z        X      Y      Z        X      Y      Z
     1   8    -0.02  -0.07  -0.04    -0.00   0.05  -0.00     0.00  -0.06  -0.02
     2   6    -0.02  -0.03   0.00     0.02   0.03   0.02    -0.01  -0.02   0.01
     3   6    -0.02   0.04  -0.04     0.02   0.01   0.02     0.02   0.01   0.01
     4   6    -0.05   0.07   0.03     0.04  -0.05  -0.04     0.01   0.02   0.04
     5   6    -0.04   0.06  -0.01     0.04  -0.05   0.01     0.00   0.02  -0.01
     6   6    -0.05   0.00  -0.01     0.04  -0.01   0.00    -0.01   0.00  -0.03
     7   6     0.01  -0.04   0.00    -0.00   0.03  -0.02     0.01  -0.01  -0.01
     8   6     0.05  -0.02  -0.01    -0.03   0.01  -0.00     0.03  -0.02   0.01
     9   6     0.04   0.05  -0.03    -0.01  -0.04   0.03     0.03   0.01  -0.01
    10   6    -0.01   0.08  -0.02     0.01  -0.06   0.03     0.00   0.02  -0.02
    11   6     0.00   0.07   0.01     0.01  -0.03   0.01     0.00  -0.00  -0.00
    12   6    -0.02  -0.04   0.05     0.01   0.03   0.01    -0.03  -0.02   0.03
    13   6     0.00  -0.06   0.04    -0.02   0.02  -0.00    -0.03  -0.01   0.03
    14   6     0.05  -0.02  -0.04    -0.01   0.01  -0.01    -0.02   0.06  -0.01
    15   6     0.03  -0.07   0.07    -0.07   0.04  -0.03    -0.02   0.00  -0.02
    16   1     0.02   0.04  -0.11    -0.01   0.02   0.02     0.03   0.00  -0.01
    17   1     0.00   0.10  -0.01     0.01   0.01   0.02     0.03   0.02   0.02
    18   1    -0.03   0.03   0.11     0.01  -0.01  -0.12     0.01  -0.01   0.08
    19   1    -0.10   0.14   0.05     0.08  -0.13  -0.06    -0.00   0.07   0.05
    20   1    -0.09  -0.02   0.01     0.06   0.01  -0.01    -0.03   0.00  -0.03
    21   1     0.02  -0.10   0.02    -0.02   0.07  -0.04     0.01  -0.02  -0.01
    22   1     0.10  -0.06  -0.00    -0.07   0.04  -0.02     0.06  -0.04   0.03
    23   1     0.08   0.07  -0.04    -0.04  -0.05   0.03     0.04   0.01  -0.00
    24   1     0.08   0.13   0.07    -0.04  -0.05  -0.00     0.03  -0.01  -0.01
    25   1    -0.04   0.12  -0.07     0.05  -0.04   0.03    -0.00  -0.01   0.02
    26   1    -0.02  -0.05   0.05     0.01   0.02   0.02    -0.02  -0.03   0.05
    27   1     0.03  -0.07   0.08    -0.01   0.03   0.00    -0.02  -0.04   0.05
    28   1    -0.11  -0.11   0.22    -0.26  -0.13   0.41    -0.15   0.02   0.13
    29   1     0.02   0.32  -0.20    -0.00   0.52  -0.15    -0.01   0.29  -0.07
    30   1     0.29  -0.25  -0.24     0.23  -0.33  -0.30     0.13  -0.05  -0.10
    31   1     0.22  -0.16   0.31    -0.02  -0.02   0.05    -0.32   0.17  -0.42
    32   1     0.15  -0.03  -0.20    -0.04   0.12  -0.14    -0.21  -0.08   0.42
    33   1    -0.26  -0.03   0.14    -0.22   0.02  -0.03     0.48  -0.06  -0.12
                     10                     11                     12
                      A                      A                      A
 Frequencies --    299.9703               317.4480               324.0347
 Red. masses --      3.2507                 2.3307                 2.7995
 Frc consts  --      0.1723                 0.1384                 0.1732
 IR Inten    --      1.2303                 0.8607                 1.6393
  Atom  AN      X      Y      Z        X      Y      Z        X      Y      Z
     1   8     0.09   0.05  -0.03    -0.00   0.02  -0.01    -0.01   0.11   0.08
     2   6     0.09   0.00  -0.09     0.04  -0.04   0.00    -0.03   0.03  -0.07
     3   6    -0.00  -0.16  -0.06    -0.03  -0.09  -0.03    -0.07   0.01  -0.08
     4   6    -0.03  -0.03  -0.00     0.02  -0.04  -0.15    -0.09   0.08   0.05
     5   6    -0.11   0.04  -0.06    -0.03   0.01   0.08     0.01   0.02   0.02
     6   6    -0.11   0.02  -0.03    -0.02  -0.01   0.10     0.03  -0.01   0.06
     7   6    -0.03  -0.05   0.10    -0.03  -0.01  -0.02     0.00   0.02   0.00
     8   6    -0.03  -0.02   0.05    -0.00   0.02  -0.07     0.00   0.05  -0.04
     9   6    -0.09   0.05  -0.07     0.06   0.00   0.04     0.04   0.03   0.04
    10   6    -0.07   0.04  -0.04     0.02   0.03   0.10     0.06   0.01   0.04
    11   6     0.00   0.03   0.03    -0.01   0.17   0.03     0.04  -0.11  -0.03
    12   6     0.09   0.01  -0.03     0.04  -0.02  -0.02     0.08  -0.02  -0.12
    13   6     0.11   0.05   0.03     0.01  -0.04  -0.03     0.04  -0.05  -0.11
    14   6     0.07  -0.08   0.16    -0.02   0.04  -0.00    -0.05  -0.04   0.02
    15   6    -0.01   0.08  -0.01    -0.01  -0.06   0.04    -0.01  -0.12   0.09
    16   1    -0.04  -0.19   0.15    -0.04  -0.11   0.08    -0.02  -0.02  -0.06
    17   1    -0.02  -0.33  -0.17    -0.14  -0.14  -0.08    -0.04  -0.01  -0.09
    18   1     0.06  -0.04   0.10     0.07   0.14  -0.36    -0.08  -0.02   0.21
    19   1    -0.05   0.06   0.03     0.09  -0.30  -0.24    -0.20   0.22   0.09
    20   1    -0.11   0.02  -0.04    -0.04  -0.03   0.13     0.06  -0.02   0.09
    21   1     0.03  -0.11   0.21    -0.07  -0.04  -0.10    -0.01   0.03  -0.02
    22   1     0.02  -0.06   0.12    -0.04   0.04  -0.18    -0.02   0.07  -0.11
    23   1    -0.11   0.06  -0.10     0.09   0.02   0.03     0.05   0.02   0.06
    24   1     0.03   0.03   0.03    -0.04   0.34   0.20    -0.01  -0.24  -0.17
    25   1    -0.01   0.04   0.02    -0.06   0.29  -0.18    -0.02  -0.20   0.13
    26   1     0.03  -0.06  -0.08    -0.00  -0.04  -0.06     0.09   0.03  -0.14
    27   1     0.10   0.09   0.00    -0.00  -0.02  -0.04     0.00   0.01  -0.18
    28   1     0.00  -0.18   0.42    -0.09   0.05  -0.02    -0.20  -0.09   0.19
    29   1     0.13   0.09   0.20     0.01   0.07   0.02     0.04   0.14   0.10
    30   1    -0.00  -0.29  -0.01     0.00   0.06   0.02    -0.08  -0.16  -0.07
    31   1    -0.11   0.07  -0.11    -0.12  -0.08  -0.07    -0.14  -0.26   0.00
    32   1    -0.07   0.17   0.09    -0.08  -0.10   0.21    -0.10  -0.21   0.30
    33   1     0.04   0.03  -0.05     0.15  -0.02   0.06     0.14   0.04   0.19
                     13                     14                     15
                      A                      A                      A
 Frequencies --    360.8397               401.1608               406.6403
 Red. masses --      2.9827                 2.6776                 2.1856
 Frc consts  --      0.2288                 0.2539                 0.2129
 IR Inten    --      0.2998                 0.2885                 0.0391
  Atom  AN      X      Y      Z        X      Y      Z        X      Y      Z
     1   8     0.04   0.11  -0.01     0.02   0.07  -0.01     0.04   0.00  -0.02
     2   6     0.07   0.08   0.04     0.07   0.02   0.04     0.02   0.04  -0.02
     3   6     0.09   0.09   0.04     0.05   0.04   0.01     0.04  -0.01   0.05
     4   6     0.06  -0.08   0.02     0.04  -0.00  -0.02     0.07   0.04  -0.05
     5   6     0.01  -0.06  -0.01    -0.03   0.03   0.03    -0.02   0.08   0.04
     6   6    -0.03   0.02  -0.08    -0.10   0.03  -0.07    -0.05  -0.01   0.03
     7   6    -0.02   0.01   0.01     0.00  -0.07   0.06     0.00  -0.08  -0.02
     8   6    -0.03  -0.04   0.09     0.01  -0.04   0.01     0.02  -0.05  -0.05
     9   6    -0.09  -0.03  -0.05    -0.05   0.06  -0.09     0.04   0.04  -0.00
    10   6    -0.07  -0.04  -0.07     0.01   0.02   0.07    -0.02   0.07   0.05
    11   6    -0.04   0.11  -0.05     0.04  -0.07   0.11    -0.06  -0.09   0.05
    12   6    -0.02   0.05  -0.01     0.06  -0.02   0.03    -0.06   0.05  -0.02
    13   6    -0.04  -0.04  -0.04     0.02  -0.10  -0.05    -0.08   0.06  -0.01
    14   6    -0.05  -0.08  -0.03    -0.03   0.13  -0.04    -0.06  -0.09  -0.05
    15   6     0.08  -0.12   0.13    -0.09  -0.11  -0.07     0.07   0.04   0.05
    16   1     0.01   0.17  -0.11     0.03   0.06  -0.05     0.05  -0.04   0.17
    17   1     0.19   0.20   0.12     0.06   0.10   0.05    -0.01  -0.11  -0.02
    18   1     0.02  -0.07  -0.03     0.06   0.08  -0.11     0.11   0.18  -0.21
    19   1     0.07  -0.10   0.02     0.07  -0.11  -0.05     0.17  -0.14  -0.10
    20   1    -0.02   0.05  -0.14    -0.19   0.05  -0.15    -0.13  -0.05   0.06
    21   1    -0.01   0.04   0.04     0.04  -0.13   0.14    -0.00  -0.13  -0.02
    22   1    -0.00  -0.06   0.20     0.05  -0.07   0.03     0.05  -0.08  -0.09
    23   1    -0.14  -0.04  -0.06    -0.07   0.12  -0.19     0.12   0.07  -0.02
    24   1    -0.06   0.21   0.06     0.03  -0.19  -0.01    -0.07  -0.33  -0.19
    25   1     0.04   0.17  -0.18     0.02  -0.15   0.25    -0.08  -0.26   0.34
    26   1    -0.03   0.06  -0.03     0.04  -0.00  -0.00    -0.07   0.01  -0.02
    27   1    -0.04  -0.05  -0.05     0.00  -0.11  -0.06    -0.08   0.05  -0.01
    28   1    -0.03  -0.11   0.05    -0.20   0.23  -0.26     0.09  -0.14   0.05
    29   1    -0.05  -0.04  -0.05     0.03   0.15   0.02    -0.12  -0.12  -0.14
    30   1    -0.04  -0.15  -0.09     0.06   0.33   0.11    -0.07  -0.19  -0.14
    31   1     0.02  -0.13   0.06    -0.10  -0.24  -0.03     0.13   0.13   0.09
    32   1     0.04  -0.35   0.30    -0.10   0.03  -0.10     0.11  -0.16   0.04
    33   1     0.32   0.04   0.23    -0.25  -0.12  -0.05     0.16   0.11   0.09
                     16                     17                     18
                      A                      A                      A
 Frequencies --    441.1149               472.8621               501.0277
 Red. masses --      2.6365                 3.4514                 3.2483
 Frc consts  --      0.3023                 0.4547                 0.4804
 IR Inten    --      1.4743                 3.0344                 2.7465
  Atom  AN      X      Y      Z        X      Y      Z        X      Y      Z
     1   8    -0.08  -0.10   0.01    -0.06  -0.04   0.04     0.03  -0.05  -0.04
     2   6    -0.09  -0.04   0.04    -0.07  -0.06  -0.03    -0.01   0.04   0.00
     3   6     0.03   0.08   0.09    -0.07  -0.04  -0.06    -0.01   0.02   0.04
     4   6     0.06   0.01  -0.01    -0.05  -0.07   0.01     0.01   0.14  -0.00
     5   6     0.03   0.02   0.06     0.07  -0.09   0.15     0.04   0.05  -0.12
     6   6    -0.02   0.01  -0.02    -0.06   0.10  -0.12     0.07   0.01  -0.12
     7   6     0.00  -0.02  -0.04     0.07   0.02   0.07     0.15  -0.06   0.07
     8   6     0.03  -0.05   0.02     0.09   0.05   0.04    -0.10  -0.03  -0.11
     9   6    -0.00   0.02  -0.03    -0.01   0.08  -0.14    -0.04  -0.10   0.01
    10   6    -0.02   0.03   0.01     0.13  -0.07   0.16     0.01  -0.12   0.16
    11   6    -0.08  -0.01  -0.05     0.05   0.01   0.02    -0.08   0.04   0.11
    12   6    -0.03   0.01  -0.11     0.03  -0.03  -0.04    -0.04   0.05  -0.01
    13   6     0.16   0.03  -0.10    -0.06   0.07  -0.00     0.03   0.00  -0.05
    14   6     0.07  -0.01   0.12    -0.05  -0.04  -0.05    -0.01  -0.01   0.00
    15   6    -0.03   0.02   0.01     0.05   0.08   0.03    -0.00  -0.02   0.01
    16   1     0.10   0.10  -0.13    -0.03  -0.04  -0.14     0.02  -0.05   0.27
    17   1     0.05   0.26   0.19    -0.02   0.02  -0.01    -0.13  -0.16  -0.08
    18   1     0.03   0.13  -0.22    -0.05  -0.05  -0.02    -0.05  -0.01   0.17
    19   1     0.17  -0.19  -0.07    -0.12  -0.15  -0.03     0.01   0.36   0.08
    20   1    -0.09   0.01  -0.06    -0.17   0.23  -0.40    -0.00   0.01  -0.16
    21   1    -0.02  -0.02  -0.07     0.06  -0.02   0.06     0.24  -0.03   0.21
    22   1     0.05  -0.06   0.04     0.07   0.06   0.02    -0.24   0.08  -0.20
    23   1     0.01   0.06  -0.09    -0.18   0.18  -0.40    -0.03  -0.05  -0.06
    24   1    -0.09  -0.01  -0.06    -0.04   0.09   0.10    -0.24   0.20   0.26
    25   1    -0.13  -0.01  -0.04     0.00   0.06  -0.07    -0.02   0.16  -0.08
    26   1    -0.06   0.17  -0.20     0.06  -0.04   0.01    -0.09   0.10  -0.08
    27   1     0.17   0.07  -0.11    -0.08   0.11  -0.04     0.02  -0.01  -0.05
    28   1    -0.03  -0.05   0.25     0.08  -0.09   0.04    -0.04  -0.01   0.03
    29   1     0.24   0.03   0.34    -0.11  -0.07  -0.13     0.03  -0.00   0.06
    30   1    -0.16  -0.08   0.08    -0.05  -0.13  -0.12    -0.08  -0.02  -0.00
    31   1    -0.12  -0.19  -0.02     0.09   0.19   0.03    -0.03  -0.10   0.02
    32   1    -0.10   0.15   0.09     0.08  -0.05   0.03    -0.02  -0.04   0.06
    33   1    -0.10   0.08   0.06     0.15   0.10   0.03     0.01   0.05   0.07
                     19                     20                     21
                      A                      A                      A
 Frequencies --    528.9594               550.7292               593.1912
 Red. masses --      4.5355                 2.7194                 3.9979
 Frc consts  --      0.7477                 0.4860                 0.8288
 IR Inten    --      5.5523                 4.0745                 2.3540
  Atom  AN      X      Y      Z        X      Y      Z        X      Y      Z
     1   8    -0.06   0.21   0.15     0.10  -0.04  -0.06    -0.00  -0.01   0.00
     2   6    -0.03  -0.05  -0.12    -0.02   0.14  -0.06    -0.00  -0.01  -0.01
     3   6     0.09  -0.05  -0.15    -0.09   0.00   0.01    -0.00   0.03   0.01
     4   6     0.10   0.05  -0.00    -0.07   0.00  -0.01     0.04   0.23  -0.05
     5   6     0.08   0.05   0.06     0.06  -0.06   0.11     0.15   0.02   0.08
     6   6     0.07   0.03  -0.02     0.05   0.03   0.03     0.04  -0.17  -0.05
     7   6     0.10  -0.01  -0.10     0.02   0.06  -0.09    -0.15  -0.06  -0.02
     8   6     0.04  -0.09   0.00     0.10  -0.02   0.07    -0.14  -0.13   0.13
     9   6    -0.02  -0.04  -0.05    -0.00   0.00  -0.09    -0.14   0.11   0.04
    10   6    -0.09   0.01   0.05    -0.02  -0.01  -0.02     0.08   0.01   0.02
    11   6    -0.19  -0.01   0.01    -0.05   0.00   0.01     0.09  -0.01  -0.11
    12   6    -0.12  -0.11  -0.01    -0.09   0.09   0.05     0.07  -0.05  -0.01
    13   6    -0.02  -0.05   0.15     0.03  -0.05   0.01    -0.02  -0.00   0.03
    14   6     0.06   0.01   0.06     0.03   0.01   0.04    -0.00  -0.00  -0.01
    15   6    -0.01  -0.01  -0.02    -0.02  -0.09  -0.01     0.01   0.01   0.01
    16   1     0.21  -0.09  -0.25    -0.18  -0.06   0.48     0.15  -0.11   0.29
    17   1     0.13   0.01  -0.11    -0.17  -0.40  -0.23    -0.23  -0.15  -0.13
    18   1     0.17   0.02   0.10    -0.12  -0.01  -0.04     0.01   0.23  -0.09
    19   1    -0.00   0.10  -0.00    -0.13  -0.06  -0.04     0.03   0.14  -0.09
    20   1    -0.03   0.01  -0.03     0.02   0.07  -0.06    -0.07  -0.13  -0.17
    21   1     0.07   0.04  -0.15    -0.05   0.10  -0.23    -0.19   0.19  -0.12
    22   1    -0.00  -0.06   0.07     0.10  -0.02   0.16    -0.07  -0.19   0.04
    23   1     0.04   0.03  -0.14    -0.05   0.04  -0.18    -0.22   0.18  -0.12
    24   1    -0.17   0.07   0.09    -0.05  -0.07  -0.06     0.10   0.12   0.01
    25   1    -0.28   0.05  -0.10    -0.00  -0.05   0.10     0.06   0.07  -0.25
    26   1    -0.20  -0.29  -0.04    -0.11   0.12   0.03     0.15  -0.05   0.08
    27   1     0.01  -0.09   0.19     0.05  -0.15   0.08    -0.04   0.03   0.00
    28   1     0.07   0.03  -0.00    -0.04   0.03  -0.01     0.03   0.00  -0.02
    29   1     0.01   0.00  -0.01     0.07   0.02   0.09    -0.05  -0.00  -0.07
    30   1     0.16   0.05   0.09     0.03   0.06   0.08     0.05  -0.00  -0.01
    31   1     0.01   0.13  -0.06    -0.04  -0.17   0.00     0.02   0.08  -0.01
    32   1     0.01   0.10  -0.11    -0.04  -0.03   0.00     0.02   0.02  -0.02
    33   1    -0.05  -0.19  -0.16    -0.08  -0.07   0.01     0.03  -0.03  -0.03
                     22                     23                     24
                      A                      A                      A
 Frequencies --    630.0271               705.4379               743.1777
 Red. masses --      3.8789                 4.3202                 3.2381
 Frc consts  --      0.9071                 1.2667                 1.0537
 IR Inten    --      1.2891                 1.9765                 2.3644
  Atom  AN      X      Y      Z        X      Y      Z        X      Y      Z
     1   8    -0.06  -0.02  -0.00    -0.06  -0.04   0.06     0.04   0.05  -0.07
     2   6     0.04  -0.10   0.09    -0.15   0.04  -0.07     0.20  -0.08   0.16
     3   6    -0.03  -0.04  -0.06     0.04  -0.09  -0.15    -0.08  -0.02   0.03
     4   6    -0.01   0.05  -0.02     0.09  -0.15   0.00    -0.11  -0.07  -0.04
     5   6     0.00   0.04  -0.02     0.09  -0.03  -0.06     0.05  -0.03  -0.04
     6   6     0.10   0.00   0.10     0.07  -0.14  -0.13     0.09  -0.10  -0.07
     7   6     0.02   0.07  -0.18    -0.06  -0.03   0.02     0.03  -0.01   0.01
     8   6     0.04  -0.11   0.11    -0.06   0.00   0.00     0.02   0.00   0.02
     9   6    -0.09  -0.05  -0.12    -0.00   0.19   0.09     0.02   0.14   0.07
    10   6    -0.10   0.00  -0.01     0.05   0.10  -0.02     0.02   0.07   0.03
    11   6     0.03   0.03   0.23     0.03   0.09   0.15    -0.15   0.01  -0.01
    12   6     0.12  -0.00   0.03    -0.11   0.15   0.09    -0.05  -0.04  -0.03
    13   6     0.02   0.06  -0.12     0.03   0.01  -0.05    -0.00  -0.00  -0.00
    14   6    -0.08  -0.01  -0.07    -0.01  -0.00  -0.01     0.02   0.00   0.01
    15   6     0.01   0.07   0.01    -0.00  -0.03  -0.01     0.00   0.03   0.01
    16   1     0.04  -0.05  -0.15    -0.00  -0.06  -0.19    -0.23   0.09  -0.11
    17   1    -0.13   0.10   0.01     0.22  -0.14  -0.15    -0.21   0.22   0.15
    18   1     0.03  -0.05   0.15     0.14  -0.20   0.11    -0.13  -0.22   0.15
    19   1    -0.11   0.19   0.02     0.02  -0.05   0.03    -0.19   0.11   0.02
    20   1     0.14  -0.08   0.25     0.18  -0.16  -0.05     0.05  -0.02  -0.24
    21   1     0.00   0.12  -0.22     0.04   0.08   0.18    -0.05   0.19  -0.17
    22   1     0.07  -0.13   0.38     0.13  -0.14  -0.00    -0.02   0.04  -0.25
    23   1    -0.02  -0.05  -0.08     0.09   0.16   0.19    -0.02   0.25  -0.11
    24   1     0.05  -0.00   0.20     0.04  -0.03   0.03    -0.15  -0.11  -0.12
    25   1     0.09   0.02   0.24     0.11   0.01   0.29    -0.22  -0.08   0.15
    26   1     0.02   0.03  -0.09    -0.14   0.24   0.03    -0.16  -0.15  -0.13
    27   1    -0.01   0.12  -0.19     0.06  -0.11   0.03     0.02   0.03   0.02
    28   1    -0.08  -0.02  -0.02    -0.05  -0.01   0.02     0.02  -0.00   0.03
    29   1    -0.04  -0.01  -0.02     0.06   0.00   0.08     0.03  -0.01   0.04
    30   1    -0.16  -0.04  -0.10    -0.11  -0.01  -0.01    -0.02  -0.00   0.01
    31   1     0.01  -0.03   0.04    -0.02  -0.20   0.03     0.01   0.07  -0.00
    32   1     0.01  -0.02   0.07    -0.03  -0.07   0.06     0.01   0.05  -0.02
    33   1     0.05   0.20   0.11    -0.03   0.11   0.10    -0.00  -0.02  -0.03
                     25                     26                     27
                      A                      A                      A
 Frequencies --    755.1811               766.4378               792.3186
 Red. masses --      2.3140                 2.1879                 2.0848
 Frc consts  --      0.7775                 0.7572                 0.7711
 IR Inten    --     11.0060                14.5765                12.1701
  Atom  AN      X      Y      Z        X      Y      Z        X      Y      Z
     1   8    -0.04  -0.01   0.00     0.02   0.00  -0.01    -0.03   0.02  -0.01
     2   6     0.02  -0.04   0.09     0.02  -0.01  -0.01     0.07  -0.04   0.13
     3   6     0.03  -0.04  -0.10    -0.07   0.02   0.02     0.07   0.00  -0.07
     4   6     0.03   0.03  -0.03    -0.05  -0.01   0.04     0.04   0.05  -0.08
     5   6     0.05  -0.02   0.13     0.09  -0.03   0.14     0.02  -0.05   0.04
     6   6    -0.03   0.06   0.01     0.02   0.04  -0.10    -0.06   0.00  -0.00
     7   6     0.08  -0.04   0.08     0.09  -0.01  -0.03    -0.11   0.02  -0.00
     8   6    -0.04  -0.02  -0.03    -0.10  -0.01  -0.10     0.03   0.08  -0.05
     9   6     0.02  -0.10   0.06    -0.03   0.01   0.04     0.02  -0.01  -0.05
    10   6    -0.09   0.04  -0.11    -0.07   0.07  -0.07     0.05  -0.06   0.03
    11   6     0.03   0.04  -0.05    -0.00   0.01   0.02    -0.04  -0.02  -0.06
    12   6     0.00   0.07   0.07     0.06  -0.05  -0.01    -0.08   0.03   0.02
    13   6     0.02   0.01  -0.03     0.00  -0.00   0.00     0.00   0.00  -0.02
    14   6    -0.00   0.00  -0.01    -0.01  -0.00  -0.01     0.01   0.00   0.00
    15   6     0.00   0.01  -0.00     0.00   0.01   0.00     0.00   0.01   0.00
    16   1     0.08  -0.08  -0.01    -0.07   0.01   0.05     0.11  -0.07   0.13
    17   1    -0.12  -0.06  -0.13    -0.07   0.00   0.01    -0.24  -0.06  -0.14
    18   1     0.14  -0.03   0.17    -0.10   0.08  -0.13     0.12  -0.11   0.23
    19   1    -0.17   0.11  -0.03    -0.07  -0.23  -0.05    -0.22   0.27  -0.03
    20   1    -0.29   0.20  -0.37     0.05  -0.05   0.05     0.09  -0.06   0.19
    21   1    -0.13   0.11  -0.29     0.33  -0.08   0.39     0.10  -0.26   0.39
    22   1    -0.27   0.16  -0.30     0.12  -0.19   0.40     0.29  -0.14   0.34
    23   1    -0.04  -0.04  -0.06     0.26  -0.14   0.43     0.06  -0.12   0.16
    24   1     0.14  -0.13  -0.21     0.07  -0.01   0.00    -0.11  -0.02  -0.07
    25   1     0.13  -0.08   0.17    -0.06   0.02   0.00     0.03  -0.04  -0.03
    26   1     0.01   0.11   0.07     0.03  -0.08  -0.03    -0.07   0.06   0.03
    27   1     0.03  -0.04  -0.00    -0.01   0.05  -0.04     0.04  -0.05   0.05
    28   1    -0.03  -0.00   0.00    -0.01   0.00  -0.02    -0.00  -0.01   0.04
    29   1     0.03   0.00   0.04    -0.02   0.00  -0.03     0.06  -0.01   0.06
    30   1    -0.06   0.00  -0.01     0.01   0.00  -0.01    -0.07  -0.00  -0.00
    31   1    -0.01  -0.08   0.01     0.00   0.04  -0.01    -0.01  -0.03   0.00
    32   1    -0.01  -0.00   0.04     0.01   0.02  -0.01    -0.01   0.02   0.02
    33   1    -0.01   0.08   0.06     0.01  -0.01  -0.02    -0.01   0.04   0.02
                     28                     29                     30
                      A                      A                      A
 Frequencies --    816.8619               862.9296               889.9131
 Red. masses --      2.7177                 2.3221                 1.5599
 Frc consts  --      1.0684                 1.0188                 0.7278
 IR Inten    --      1.1577                 1.8164                 1.9674
  Atom  AN      X      Y      Z        X      Y      Z        X      Y      Z
     1   8    -0.02  -0.04  -0.02    -0.01  -0.01   0.01     0.00  -0.01  -0.00
     2   6    -0.00  -0.02   0.05    -0.01  -0.04  -0.03    -0.02   0.04   0.02
     3   6    -0.04  -0.06  -0.04     0.01   0.01   0.04    -0.00   0.00  -0.01
     4   6     0.00  -0.04   0.00    -0.00   0.07  -0.02     0.03  -0.06  -0.02
     5   6    -0.03   0.06  -0.01     0.03  -0.06  -0.00    -0.03   0.04  -0.03
     6   6     0.01   0.06   0.02     0.02  -0.08   0.00     0.03   0.00   0.11
     7   6     0.06   0.01  -0.09    -0.06  -0.00   0.09     0.05  -0.03   0.01
     8   6    -0.07  -0.09   0.01     0.04   0.09  -0.02    -0.04  -0.02  -0.04
     9   6    -0.05  -0.00   0.01     0.01  -0.03  -0.07    -0.05   0.07  -0.05
    10   6     0.03  -0.01   0.12    -0.03  -0.01  -0.06     0.02  -0.00   0.05
    11   6     0.03   0.09  -0.13    -0.02   0.06   0.12     0.01  -0.05  -0.04
    12   6     0.07   0.15  -0.06     0.05   0.04  -0.10     0.00  -0.00   0.01
    13   6    -0.08   0.01   0.06    -0.08   0.05   0.03     0.01  -0.01   0.00
    14   6     0.07   0.02   0.08     0.06   0.03   0.08    -0.01  -0.01  -0.01
    15   6    -0.03  -0.10  -0.02    -0.04  -0.10  -0.02     0.01   0.01   0.01
    16   1    -0.08   0.00  -0.22     0.15  -0.05  -0.01    -0.12   0.06   0.00
    17   1     0.02   0.11   0.07    -0.05   0.06   0.06     0.00  -0.01  -0.01
    18   1     0.09  -0.05   0.08    -0.07   0.04  -0.04     0.08  -0.14   0.13
[...]
 59,-0.00006262,-0.00003639,0.00025920,-0.00007723,0.00074920,0.0890767
 9,-0.00081640,0.00003449,-0.00137377,0.00149500,-0.00027577,0.00094173
 ,-0.00040671,0.00004109,-0.00061455,0.00014785,-0.00012242,0.00003926,
 0.00009420,-0.00009230,0.00000489,-0.00002801,0.00003230,-0.00000418,0
 .00000565,0.00001176,0.00000418,-0.00004548,0.00001376,0.00000664,-0.0
 0001061,-0.00002002,0.00004524,-0.00003678,-0.00001301,0.00004043,-0.0
 0001100,0.00020240,0.00022170,0.00000031,0.00006551,-0.00012334,0.0001
 2612,-0.00216768,-0.00040450,0.08997610,-0.27530199,0.01136752,0.00090
 560,0.00100154,0.00148513,0.00001531,0.00005368,0.00001923,0.00010091,
 0.00003462,-0.00007819,-0.00003909,-0.00000171,-0.00005886,-0.00003512
 ,-0.00000414,-0.00004246,0.00000998,0.00001597,0.00000130,-0.00000228,
 0.00000602,-0.00000230,-0.00000280,0.00000075,-0.00000521,-0.00001150,
 0.00003999,-0.00004069,0.00002646,0.00000998,0.00009562,-0.00005442,0.
 00005160,-0.00013361,0.00007069,-0.00000358,0.00001309,0.00026324,0.00
 061243,0.00032502,-0.10077775,0.29839339,0.00075751,-0.00034589,-0.000
 10186,-0.00021165,0.00020719,-0.00198784,0.00016314,-0.00036276,-0.000
 27271,-0.00019048,0.00005644,-0.00011294,-0.00006908,0.00007829,-0.000
 00374,0.00001598,-0.00005148,0.00000657,0.00000834,-0.00001473,0.00000
 011,0.00005784,-0.00001072,-0.00001181,-0.00000327,0.00006720,-0.00004
 295,-0.00002107,-0.00003834,0.00001415,-0.00019470,-0.00020249,0.00005
 114,0.00017618,0.00051452,0.00150018,-0.00866447,0.02726784,-0.0000372
 4,-0.00447068,0.01059602,-0.05071769,-0.00281288,-0.00070455,-0.005065
 60,-0.00000875,-0.00001113,0.00005244,-0.00026433,-0.00020959,-0.00008
 068,0.00004607,0.00001405,0.00005729,0.00003919,-0.00000487,0.00006803
 ,-0.00000962,-0.00000597,0.00000032,0.00000985,-0.00000471,0.00000390,
 0.00001058,-0.00000078,0.00000298,0.00001256,-0.00004646,0.00005302,0.
 00002646,-0.00002454,0.00001637,0.00006006,-0.00005349,0.00018333,-0.0
 0000660,-0.00001992,-0.00007747,0.00053808,-0.00062417,0.00115122,0.00
 674349,-0.01133113,0.05361789,0.00009562,-0.00011033,0.00005013,0.0000
 5528,0.00014906,-0.00035968,0.00007547,0.00004972,0.00007689,-0.000031
 22,0.00003014,0.00003638,-0.00004229,0.00006953,-0.00002701,0.00004017
 ,0.00002239,-0.00001257,-0.00000453,0.00002131,-0.00000277,0.00000770,
 -0.00001920,-0.00000886,0.00008213,-0.00005181,-0.00001153,-0.00001356
 ,0.00000592,0.00005955,0.00011144,0.00017079,-0.00001811,0.00038522,0.
 00024779,0.00118015,-0.01516277,-0.01199300,-0.00079259,-0.20144357,-0
 .12811736,-0.00361634,0.00047807,-0.00116991,0.00078084,0.00003004,-0.
 00000384,-0.00003013,-0.00005894,0.00005305,0.00000425,0.00000451,-0.0
 0000443,0.00000722,0.00001223,-0.00000014,0.00000055,-0.00000162,-0.00
 000531,0.00000463,-0.00000398,-0.00000181,0.00000170,-0.00000702,0.000
 00039,0.00000294,-0.00000175,0.00001049,0.00000439,-0.00000729,0.00000
 673,-0.00004754,-0.00001778,0.00001234,-0.00002882,0.00062972,0.000080
 39,-0.00063178,-0.00096273,0.00120757,-0.00338776,0.01093796,0.0083971
 4,0.00063200,0.21831416,0.00075350,0.00040093,0.00040610,-0.00119526,-
 0.00050898,0.00027662,-0.00021675,0.00005897,-0.00002827,0.00008949,0.
 00002420,-0.00004843,0.00005050,-0.00003669,0.00000614,-0.00000848,0.0
 0000767,-0.00001216,0.00001780,0.00000398,-0.00000062,0.00000248,0.000
 00167,-0.00001046,-0.00000112,0.00003199,0.00001484,0.00001546,-0.0000
 0543,0.00010748,0.00018665,0.00005724,-0.00015056,-0.00008388,0.000096
 59,0.00002668,0.00372004,0.00257908,-0.00059765,-0.12776959,-0.1576005
 1,-0.00372692,0.00075929,0.00108761,-0.00011139,0.00001101,0.00000676,
 -0.00002990,0.00024370,0.00019570,-0.00001675,-0.00000278,0.00000085,-
 0.00000299,-0.00003290,-0.00000865,-0.00006759,0.00000359,0.00000428,0
 .00000507,-0.00000299,-0.00000101,0.00000305,0.00000069,0.00000251,0.0
 0000126,0.00000121,-0.00000339,0.00001028,-0.00002186,-0.00001008,-0.0
 0004896,0.00000743,-0.00000806,0.00002552,0.00011109,0.00011085,-0.000
 44646,0.00094297,0.00082628,0.00077088,-0.02433138,-0.01928952,-0.0003
 1462,0.14164725,0.16767077,0.00037462,0.00016412,0.00019087,-0.0004522
 9,-0.00022207,-0.00000500,-0.00007265,0.00007712,0.00008662,-0.0000193
 0,0.00005132,-0.00001214,0.00000218,0.00009550,-0.00006528,0.00003050,
 0.00002276,0.00000686,-0.00000390,0.00001243,0.00000540,0.00002174,-0.
 00002121,-0.00000184,0.00013874,-0.00001535,-0.00005701,-0.00006821,-0
 .00009028,-0.00001230,0.00002551,0.00027402,0.00008325,-0.00114918,-0.
 00112603,0.00174615,-0.02268761,-0.01951935,-0.00136143,-0.00331981,-0
 .00330285,-0.04945637,0.00074491,-0.00118309,0.00094090,0.00003909,0.0
 0002040,-0.00003143,0.00001544,0.00012643,-0.00005075,0.00001588,-0.00
 000010,0.00001084,0.00000447,-0.00001406,-0.00001329,0.00000039,-0.000
 00477,0.00000068,-0.00000182,-0.00000121,-0.00000242,0.00000034,0.0000
 0223,0.00000115,-0.00000649,0.00000374,0.00001001,0.00003359,0.0000134
 0,0.00001257,0.00000101,0.00000268,-0.00001395,0.00054668,0.00053344,-
 0.00035307,-0.00334188,0.00106874,-0.00463192,0.00109976,0.00031256,-0
 .00080010,0.00737360,0.00314618,0.05215005,0.00059731,0.00010646,0.000
 44419,-0.00108800,0.00016262,-0.00025639,0.00011264,-0.00003030,0.0000
 1181,-0.00004364,0.00003450,-0.00004924,-0.00003162,-0.00000437,0.0000
 2036,0.00001636,-0.00002135,-0.00000007,-0.00000767,-0.00000502,-0.000
 00461,-0.00000110,0.00000264,-0.00000234,-0.00002518,0.00000286,0.0000
 2989,0.00018860,0.00008109,0.00009008,0.00074079,-0.00016038,-0.000997
 37,-0.00194058,0.00063444,-0.00255469,0.01077740,-0.00246992,-0.016333
 66,-0.13436498,0.02228330,0.12204081,0.00078388,-0.00045309,-0.0004893
 8,-0.00000458,-0.00002912,-0.00000306,-0.00002726,-0.00000180,-0.00001
 080,0.00001743,0.00000468,0.00002513,0.00000137,0.00000625,0.00001394,
 -0.00000592,-0.00000183,-0.00000032,0.00000468,0.00000121,0.00000076,0
 .00000090,-0.00000245,-0.00000131,0.00000224,0.00000023,-0.00000794,-0
 .00017402,-0.00000057,-0.00035972,0.00003448,0.00000428,0.00007505,0.0
 0016642,0.00023346,-0.00023771,0.00092400,-0.00024960,0.00077024,-0.00
 705647,0.00083011,0.00872654,-0.01383600,0.00545885,0.02006599,0.14410
 960,-0.00038708,0.00007286,-0.00035997,0.00047822,-0.00013709,0.000601
 28,-0.00009383,0.00010189,-0.00016573,0.00010513,-0.00003584,0.0000639
 8,0.00002259,0.00000069,0.00000185,-0.00001238,0.00001076,-0.00000101,
 -0.00000414,0.00000426,0.00000673,-0.00001086,-0.00000765,-0.00000368,
 0.00001839,0.00001520,-0.00000950,-0.00005171,-0.00004716,0.00006275,0
 .00006560,0.00050026,0.00028545,0.00026182,0.00015055,0.00076177,-0.00
 262474,-0.00085911,0.00304524,0.02263992,-0.05593691,-0.03270478,-0.00
 060963,0.00026865,0.00113111,-0.00000472,0.00002712,0.00001590,0.00012
 980,0.00006994,0.00000908,-0.00001959,-0.00000995,-0.00003378,-0.00001
 937,-0.00000365,-0.00003327,0.00000523,-0.00000303,-0.00000533,-0.0000
 0707,-0.00000213,-0.00000298,-0.00000080,0.00000305,-0.00000222,0.0000
 0105,-0.00000809,0.00001192,0.00002448,0.00000834,0.00007907,-0.000052
 79,-0.00000025,-0.00009565,0.00027926,0.00010337,-0.00029153,0.0001654
 5,0.00001737,-0.00034911,0.01765852,-0.00357993,-0.02595444,-0.0119651
 3,0.00391298,0.01880503,-0.02628394,0.05542182,0.00038982,-0.00021907,
 0.00026516,-0.00103848,0.00114453,-0.00005474,0.00012037,-0.00006195,-
 0.00004346,0.00000174,0.00000247,0.00003886,-0.00005588,-0.00001240,0.
 00002581,0.00000677,0.00001481,0.00000760,-0.00004825,-0.00002320,-0.0
 0000072,-0.00001535,0.00000688,0.00002218,-0.00006628,-0.00013722,0.00
 003270,0.00031446,0.00023063,0.00000859,0.00151397,-0.00053035,-0.0009
 3856,-0.00494430,0.00036163,-0.00334456,0.01648435,-0.00380456,-0.0225
 3506,0.12107798,-0.03212073,-0.21990413,0.00159952,-0.00102296,0.00057
 952,-0.00000321,-0.00007921,-0.00000819,-0.00001453,0.00002444,0.00000
 538,-0.00002439,-0.00002768,-0.00001937,-0.00000153,0.00002831,0.00001
 691,-0.00000591,-0.00002208,-0.00000629,-0.00001598,-0.00000809,-0.000
 00830,-0.00003267,0.00000094,-0.00001160,0.00001731,0.00002373,-0.0000
 2805,-0.00036712,0.00010002,-0.00063566,-0.00004880,0.00008449,-0.0000
 3717,-0.00005689,0.00012698,0.00024531,-0.00006607,-0.00049245,0.00099
 275,-0.00147329,-0.00032668,0.00214522,-0.00089824,0.00089406,0.001526
 97,-0.13116855,0.03512281,0.24052302,0.00011795,-0.00012626,0.00005739
 ,0.00008844,0.00024391,-0.00026842,-0.00005395,0.00006060,0.00000882,-
 0.00002574,0.00000723,0.00000079,0.00003601,0.00006485,0.00001163,-0.0
 0006175,-0.00002328,-0.00000078,0.00004249,-0.00004141,0.00000976,0.00
 011813,0.00002811,-0.00002744,-0.00005415,0.00001988,-0.00018939,-0.00
 011212,0.00007390,-0.00001459,-0.00002237,-0.00014247,0.00001837,0.001
 39448,0.00039388,-0.00034273,0.00998753,0.00992691,-0.00070774,0.00112
 123,0.00014416,0.00039104,-0.18072390,-0.12864648,0.00831006,-0.000004
 03,0.00001571,0.00005595,-0.00005164,-0.00006213,0.00003696,0.00000394
 ,-0.00000674,0.00000415,0.00002079,0.00000153,0.00000517,0.00000411,-0
 .00000903,0.00000032,-0.00000500,-0.00001211,0.00000601,0.00000584,0.0
 0000340,0.00000750,0.00000432,-0.00013048,0.00013746,0.00002890,-0.000
 01884,-0.00000486,-0.00012606,-0.00002714,-0.00009589,0.00007914,-0.00
 039621,-0.00028231,-0.00013763,0.00309138,-0.00000142,0.00016032,-0.00
 011673,0.00019328,0.00006954,-0.00030619,0.00022158,-0.00008816,-0.000
 02774,-0.00009375,0.19439480,0.00015157,0.00006531,0.00004778,0.000177
 73,0.00018667,0.00020729,-0.00020841,0.00005789,0.00015449,0.00001529,
 0.00003141,0.00002929,-0.00000786,0.00001936,-0.00005037,0.00006969,0.
 00005213,-0.00001512,-0.00000917,0.00003867,0.00000015,-0.00000256,-0.
 00002979,-0.00000476,0.00009792,-0.00002168,0.00000165,-0.00005679,0.0
 0003845,0.00011771,0.00010038,-0.00008773,-0.00012943,-0.00197396,0.00
 098065,0.00125103,-0.02265916,-0.02380479,0.00104841,-0.00139543,0.001
 12007,-0.00092540,-0.12836877,-0.17436146,0.00890653,0.00006383,0.0000
 5228,-0.00009943,0.00009661,0.00015192,-0.00013199,0.00000166,-0.00000
 327,0.00000153,-0.00000103,-0.00000726,-0.00003677,0.00000418,0.000000
 70,0.00000707,-0.00000459,0.00000014,0.00000030,-0.00000478,0.00000265
 ,0.00000141,-0.00001269,0.00001221,-0.00000736,-0.00002286,0.00003201,
 -0.00007716,-0.00013243,-0.00005450,-0.00018548,0.00114045,0.00033838,
 -0.00065430,0.00357354,-0.00533698,0.00010757,0.00036470,0.00037787,-0
 .00016570,0.00097093,0.00028179,0.00064343,0.00010174,-0.00003704,0.00
 006104,0.14065338,0.19271333,-0.00010055,0.00011676,-0.00005040,0.0001
 1674,-0.00016493,0.00004936,-0.00000832,0.00001017,0.00000500,-0.00001
 759,0.00000660,0.00000005,0.00005371,0.00008140,-0.00001613,-0.0000445
 7,-0.00002861,-0.00000977,0.00003568,-0.00003747,0.00001726,0.00009631
 ,0.00001095,-0.00002008,-0.00001728,0.00007312,-0.00014629,-0.00013041
 ,-0.00000126,0.00005287,-0.00007718,-0.00011735,0.00010013,-0.00102761
 ,-0.00076486,0.00033625,-0.00037490,-0.00082483,-0.00111183,0.00086020
 ,0.00055242,0.00011585,0.00831315,0.00899282,-0.05094430,0.00001442,0.
 00001948,-0.00000713,0.00002362,0.00001104,-0.00001985,0.00001001,0.00
 000176,0.00000559,0.00001014,-0.00001258,-0.00000777,0.00000577,-0.000
 00141,0.00000303,-0.00000203,-0.00001064,0.00000097,0.00000652,0.00000
 554,-0.00000216,0.00001695,-0.00012680,0.00011527,0.00003785,0.0000610
 8,-0.00001169,-0.00014613,0.00007047,-0.00014594,0.00024885,0.00001712
 ,0.00015805,-0.00002785,-0.00029980,0.00060345,-0.00011457,-0.00020141
 ,-0.00007381,-0.00032236,0.00009291,0.00017397,0.00009953,0.00007894,0
 .00002074,-0.00974298,-0.00945624,0.04879760,0.00019584,-0.00003778,0.
 00000919,-0.00007600,0.00012320,0.00006185,0.00004700,0.00000107,-0.00
 010523,-0.00004462,0.00000311,-0.00004030,-0.00011573,0.00012939,0.000
 01711,-0.00008091,-0.00008621,0.00001035,-0.00001816,-0.00008660,0.000
 01552,0.00003587,-0.00003105,-0.00001564,-0.00034961,-0.00000537,-0.00
 034843,0.00050694,-0.00013345,0.00020467,-0.00010387,0.00099357,-0.000
 27796,-0.00014615,-0.00028120,-0.00069223,-0.00845482,0.00008338,-0.00
 917953,-0.00041770,0.00313278,0.00112929,-0.15617137,0.02157049,-0.128
 32781,0.00000545,-0.00000223,0.00002038,-0.00004528,-0.00004486,0.0000
 0429,0.00000300,-0.00001685,0.00002140,-0.00000141,0.00000986,0.000041
 19,-0.00001911,-0.00002457,-0.00001852,-0.00000811,-0.00001704,0.00000
 204,-0.00002546,-0.00000156,-0.00002645,0.00011735,-0.00025537,-0.0003
 0570,0.00007180,-0.00043160,0.00002897,-0.00001658,-0.00045237,0.00101
 411,-0.00003397,0.00007319,-0.00000247,0.00070804,-0.00009170,0.000384
 73,-0.00012912,0.00018253,-0.00098885,0.00038640,-0.00009381,0.0003343
 7,0.00016451,-0.00009383,-0.00022389,-0.01433406,0.00365937,-0.0181773
 0,0.16589966,-0.00023808,0.00002341,-0.00005320,0.00004689,0.00001458,
 0.00017279,-0.00006604,0.00003219,0.00004515,0.00009058,-0.00002180,0.
 00002267,0.00005297,-0.00022738,0.00005880,0.00014066,0.00008765,-0.00
 001472,-0.00009808,0.00017515,-0.00004435,-0.00037001,-0.00014471,0.00
 008741,-0.00004227,-0.00001988,0.00009214,0.00020434,-0.00020621,-0.00
 017143,0.00038811,0.00002787,-0.00055836,-0.00045815,0.00088420,0.0005
 0954,0.01892090,-0.00213633,0.02535130,0.00208729,-0.00623055,-0.00148
 260,0.02049082,-0.05374985,0.02501047,-0.00002211,-0.00000094,-0.00002
 203,0.00006302,0.00004230,0.00003519,-0.00002257,0.00001651,-0.0000253
 5,-0.00003872,0.00000444,-0.00002369,0.00000410,0.00003193,0.00000564,
 0.00001631,0.00003314,-0.00000507,0.00002952,-0.00000634,0.00000125,-0
 .00010040,0.00026107,-0.00040288,-0.00014575,0.00008161,-0.00003710,0.
 00014427,0.00010124,-0.00049164,0.00003644,-0.00001874,-0.00013030,-0.
 00071689,0.00128323,0.00021476,0.00142882,-0.00026836,0.00174331,0.000
 30429,0.00011277,-0.00008829,-0.00031888,-0.00002342,-0.00023142,-0.01
 369867,0.00369448,-0.01924941,-0.02508761,0.05635733,-0.00010696,0.000
 12385,0.00000372,-0.00003072,-0.00025085,0.00008719,0.00002721,0.00003
 622,-0.00003486,-0.00003979,0.00001606,-0.00003922,-0.00002912,0.00007
 763,0.00011110,-0.00004316,-0.00005211,-0.00001066,0.00008683,-0.00000
 382,0.00002507,0.00004835,0.00010684,-0.00003926,-0.00018828,-0.000362
 35,-0.00062455,0.00004075,-0.00022356,-0.00011748,0.00042916,-0.000193
 27,-0.00108808,0.00008907,0.00051922,0.00010065,0.00203468,0.00042591,
 0.00115020,0.00015140,0.00073319,0.00055583,-0.12882024,0.02620690,-0.
 20450625,0.00001313,0.00001378,0.00001154,-0.00003101,-0.00001213,-0.0
 0000080,0.00001251,0.00000484,0.00001748,0.00001610,-0.00001066,0.0000
 1350,0.00000528,-0.00000481,-0.00001688,-0.00000059,0.00000508,0.00000
 832,0.00003665,0.00000395,0.00001059,-0.00032196,-0.00032581,-0.000415
 98,0.00005446,-0.00014569,0.00011053,0.00078133,-0.00098807,-0.0010651
 9,0.00004309,-0.00001785,-0.00000104,-0.00005944,0.00044621,0.00008241
 ,-0.00030207,-0.00009708,0.00018575,0.00000642,-0.00013547,-0.00005590
 ,0.00000341,-0.00018081,0.00054429,0.00263044,-0.00115350,0.00233691,0
 .14198890,-0.02766392,0.22358525,-0.00055904,0.00028848,-0.00025109,0.
 00060548,-0.00064251,0.00113001,-0.00011490,0.00016512,-0.00016125,-0.
 00003354,-0.00002662,-0.00006175,0.00000049,0.00006031,0.00001202,-0.0
 0003251,-0.00003783,-0.00000663,0.00000602,-0.00003746,0.00001494,0.00
 006084,-0.00002427,-0.00001669,-0.00007155,0.00016068,-0.00005769,0.00
 002430,-0.00006323,0.00008128,0.00002915,0.00013762,-0.00049366,-0.000
 81326,0.00357615,-0.00053026,-0.00790745,0.00113972,0.01070654,-0.0000
 3710,-0.00047937,0.00119491,-0.11739100,0.01609145,0.11351072,0.000016
 47,0.00008469,0.00000179,0.00004246,0.00003549,-0.00000084,0.00001588,
 0.00000643,0.00001959,-0.00000374,-0.00001736,0.00000308,-0.00000338,0
 .00000091,-0.00000424,0.00000439,-0.00000767,0.00000351,0.00000127,0.0
 0000126,-0.00000915,0.00005208,-0.00008978,0.00005279,0.00005959,-0.00
 014176,0.00005247,-0.00000336,-0.00030235,0.00010591,0.00044895,-0.000
 00832,-0.00032869,0.00058964,0.00000736,-0.00043674,0.00027909,-0.0002
 5250,-0.00030073,-0.00012061,0.00004399,0.00003274,0.00005257,0.000413
 91,-0.00086296,-0.01187738,0.00361754,0.02038218,0.01245019,-0.0030251
 3,-0.01852580,0.12422995,0.00100480,-0.00072314,0.00055364,0.00006370,
 0.00171493,-0.00202669,-0.00004350,-0.00013990,0.00022017,0.00006171,0
 .00001113,0.00009683,0.00004974,-0.00003365,0.00000099,-0.00000475,0.0
 0002835,0.00000787,-0.00002527,-0.00000634,0.00000325,-0.00004560,0.00
 001187,0.00002182,-0.00002791,-0.00008061,0.00004380,0.00007762,0.0001
 9411,-0.00001739,0.00000271,-0.00013796,0.00071169,0.00204183,-0.00663
 903,0.00083390,0.01692703,-0.00465086,-0.02665461,-0.00026640,0.001112
 37,-0.00134626,0.01575087,-0.05213417,-0.02779206,-0.00001285,-0.00005
 775,0.00000734,-0.00004110,-0.00010842,-0.00000964,-0.00002171,-0.0000
 1141,-0.00002627,0.00000211,0.00002446,0.00000066,0.00000422,-0.000001
 09,-0.00000265,-0.00000757,0.00000019,-0.00000789,-0.00001483,0.000001
 59,-0.00000808,-0.00001179,0.00002462,-0.00004480,-0.00004913,0.000110
 69,-0.00004721,-0.00017786,0.00019536,-0.00018141,0.00025632,0.0001212
 3,0.00006609,-0.00076406,0.00107999,-0.00009358,-0.00049854,0.00014129
 ,-0.00004237,-0.00001496,-0.00000316,0.00021312,0.00008392,0.00000213,
 0.00089229,-0.01093693,0.00349612,0.02109503,-0.00268686,-0.00021055,0
 .00310207,-0.02067497,0.05666758,0.00025547,-0.00018434,0.00001153,-0.
 00031358,0.00048393,-0.00000594,0.00006209,-0.00005721,-0.00004940,-0.
 00001116,-0.00000654,0.00001988,-0.00006213,0.00004851,0.00000852,-0.0
 0003662,-0.00003553,-0.00000038,-0.00003941,-0.00007426,0.00002477,0.0
 0008470,-0.00003925,0.00000472,-0.00016104,0.00013019,-0.00010166,0.00
 025065,0.00001852,0.00007351,0.00009493,0.00038050,-0.00011813,-0.0007
 6014,-0.00038574,0.00095646,-0.00052591,0.00002310,-0.00071969,-0.0008
 9027,0.00092056,0.00063164,0.11441287,-0.02841401,-0.23907544,0.000004
 97,-0.00003291,-0.00000341,-0.00000500,0.00001658,0.00000038,-0.000010
 92,-0.00002208,-0.00000742,-0.00000269,0.00001661,0.00001309,-0.000008
 95,-0.00002133,-0.00000986,-0.00001603,-0.00002457,-0.00000513,-0.0000
 4167,0.00000547,-0.00003287,0.00010807,-0.00012595,0.00006024,0.000027
 26,-0.00017123,-0.00001489,0.00002731,-0.00034847,0.00030826,-0.000065
 54,0.00011103,0.00000488,-0.00010898,-0.00048102,0.00010889,-0.0001534
 7,-0.00008559,0.00027654,-0.00002555,-0.00003785,-0.00002209,0.0000594
 5,0.00011089,0.00057485,-0.00033438,0.00050632,-0.00032520,0.01344197,
 -0.00265466,-0.02092418,-0.12525631,0.03043035,0.25833755\\0.00004017,
 -0.00000941,-0.00000976,0.00000670,-0.00000317,-0.00003513,-0.00002353
 ,-0.00004188,0.00010500,0.00004195,0.00002208,-0.00004591,-0.00002653,
 0.00000385,-0.00000785,-0.00001614,-0.00000421,0.00000391,-0.00000549,
 0.00000670,0.00001000,0.00000400,0.00000072,-0.00000338,-0.00001498,-0
 .00000035,-0.00000056,0.00000413,-0.00001991,-0.00000490,0.00004131,0.
 00002188,0.00002454,-0.00003764,0.00003274,-0.00000749,-0.00000203,-0.
 00001931,-0.00004834,0.00002342,-0.00000592,0.00003210,0.00004563,-0.0
 0006106,-0.00000476,-0.00000894,0.00000746,-0.00000705,-0.00000535,0.0
 0000242,-0.00001999,0.00000327,0.00000097,0.00000432,-0.00000580,-0.00
 000578,0.00001513,-0.00000189,0.00000847,-0.00000550,0.00000952,0.0000
 0806,-0.00000460,0.00000975,-0.00000558,-0.00000263,0.00000032,-0.0000
 1445,-0.00000283,-0.00001069,0.00000630,-0.00000330,-0.00001901,-0.000
 00808,0.00000241,-0.00000354,-0.00000510,-0.00001181,-0.00000329,-0.00
 000069,0.00000149,-0.00000059,-0.00000060,0.00001646,-0.00000038,0.000
 00208,0.00000345,-0.00000862,0.00000313,-0.00001265,0.00006786,0.00006
 495,-0.00000447,-0.00005486,0.00001157,-0.00006754,-0.00004873,0.00000
 211,0.00009166\\\@


 THE WHOLE OF SCIENCE IS NOTHING MORE THAN A REFINEMENT OF EVERYDAY THINKING.
                                                              -- A. EINSTEIN
 Job cpu time:       0 days  0 hours  4 minutes 21.3 seconds.
 Elapsed time:       0 days  0 hours  4 minutes 41.4 seconds.
 File lengths (MBytes):  RWF=    268 Int=      0 D2E=      0 Chk=     16 Scr=      1
 Normal termination of Gaussian 16 at Sat Feb 24 01:24:21 2024.
