 Entering Gaussian System, Link 0=g16
 Input=/Volumes/SSD-PMU3/b3lyp_6-31gd_freq/ASNHUYVMPRNXNB-NAKRPEOUSA-N_calculating/gaussianinput0.gjf
 Output=/Volumes/SSD-PMU3/b3lyp_6-31gd_freq/ASNHUYVMPRNXNB-NAKRPEOUSA-N_calculating/gaussianinput0.log
 Initial command:
 /Applications/g16/l1.exe "/Users/macmini_m1_2022/PycharmProjects/sphere_model/sphere_model_lib/Gau-90548.inp" -scrdir="/Users/macmini_m1_2022/PycharmProjects/sphere_model/sphere_model_lib/"
 Entering Link 1 = /Applications/g16/l1.exe PID=     90549.
  
 Copyright (c) 1988,1990,1992,1993,1995,1998,2003,2009,2016,
            Gaussian, Inc.  All Rights Reserved.
  
 This is part of the Gaussian(R) 16 program.  It is based on
 the Gaussian(R) 09 system (copyright 2009, Gaussian, Inc.),
 the Gaussian(R) 03 system (copyright 2003, Gaussian, Inc.),
 the Gaussian(R) 98 system (copyright 1998, Gaussian, Inc.),
 the Gaussian(R) 94 system (copyright 1995, Gaussian, Inc.),
 the Gaussian 92(TM) system (copyright 1992, Gaussian, Inc.),
 the Gaussian 90(TM) system (copyright 1990, Gaussian, Inc.),
 the Gaussian 88(TM) system (copyright 1988, Gaussian, Inc.),
 the Gaussian 86(TM) system (copyright 1986, Carnegie Mellon
 University), and the Gaussian 82(TM) system (copyright 1983,
 Carnegie Mellon University). Gaussian is a federally registered
 trademark of Gaussian, Inc.
  
 This software contains proprietary and confidential information,
 including trade secrets, belonging to Gaussian, Inc.
  
 This software is provided under written license and may be
 used, copied, transmitted, or stored only in accord with that
 written license.
  
 The following legend is applicable only to US Government
 contracts under FAR:
  
                    RESTRICTED RIGHTS LEGEND
  
 Use, reproduction and disclosure by the US Government is
 subject to restrictions as set forth in subparagraphs (a)
 and (c) of the Commercial Computer Software - Restricted
 Rights clause in FAR 52.227-19.
  
 Gaussian, Inc.
 340 Quinnipiac St., Bldg. 40, Wallingford CT 06492
  
  
 ---------------------------------------------------------------
 Warning -- This program may not be used in any manner that
 competes with the business of Gaussian, Inc. or will provide
 assistance to any competitor of Gaussian, Inc.  The licensee
 of this program is prohibited from giving any competitor of
 Gaussian, Inc. access to this program.  By using this program,
 the user acknowledges that Gaussian, Inc. is engaged in the
 business of creating and licensing software in the field of
 computational chemistry and represents and warrants to the
 licensee that it is not a competitor of Gaussian, Inc. and that
 it will not use this program in any manner prohibited above.
 ---------------------------------------------------------------
  

 Cite this work as:
 Gaussian 16, Revision A.03,
 M. J. Frisch, G. W. Trucks, H. B. Schlegel, G. E. Scuseria, 
 M. A. Robb, J. R. Cheeseman, G. Scalmani, V. Barone, 
 G. A. Petersson, H. Nakatsuji, X. Li, M. Caricato, A. V. Marenich, 
 J. Bloino, B. G. Janesko, R. Gomperts, B. Mennucci, H. P. Hratchian, 
 J. V. Ortiz, A. F. Izmaylov, J. L. Sonnenberg, D. Williams-Young, 
 F. Ding, F. Lipparini, F. Egidi, J. Goings, B. Peng, A. Petrone, 
 T. Henderson, D. Ranasinghe, V. G. Zakrzewski, J. Gao, N. Rega, 
 G. Zheng, W. Liang, M. Hada, M. Ehara, K. Toyota, R. Fukuda, 
 J. Hasegawa, M. Ishida, T. Nakajima, Y. Honda, O. Kitao, H. Nakai, 
 T. Vreven, K. Throssell, J. A. Montgomery, Jr., J. E. Peralta, 
 F. Ogliaro, M. J. Bearpark, J. J. Heyd, E. N. Brothers, K. N. Kudin, 
 V. N. Staroverov, T. A. Keith, R. Kobayashi, J. Normand, 
 K. Raghavachari, A. P. Rendell, J. C. Burant, S. S. Iyengar, 
 J. Tomasi, M. Cossi, J. M. Millam, M. Klene, C. Adamo, R. Cammi, 
 J. W. Ochterski, R. L. Martin, K. Morokuma, O. Farkas, 
 J. B. Foresman, and D. J. Fox, Gaussian, Inc., Wallingford CT, 2016.
 
 ******************************************
 Gaussian 16:  EM64M-G16RevA.03 25-Dec-2016
                24-Feb-2024 
 ******************************************
 %nprocshared=10
 Will use up to   10 processors via shared memory.
 %mem=12GB
 %chk= 0.chk
 ---------------------
 # freq b3lyp/6-31g(d)
 ---------------------
 1/10=4,30=1,38=1/1,3;
 2/12=2,17=6,18=5,40=1/2;
 3/5=1,6=6,7=1,11=2,25=1,30=1,71=2,74=-5,140=1/1,2,3;
 4//1;
 5/5=2,38=5,98=1/2;
 8/6=4,10=90,11=11/1;
 11/6=1,8=1,9=11,15=111,16=1/1,2,10;
 10/6=1/2;
 6/7=2,8=2,9=2,10=2,28=1/1;
 7/8=1,10=1,25=1/1,2,3,16;
 1/10=4,30=1/3;
 99//99;
 ---------
 good luck
 ---------
 Symbolic Z-matrix:
 Charge =  0 Multiplicity = 1
 O                     1.21499   0.        0. 
 C                     0.        0.        0. 
 C                    -0.84505  -1.27569   0.00348 
 C                    -2.33826  -0.90107   0.02763 
 C                    -2.62033  -0.08142   1.32168 
 C                    -4.09379   0.16308   1.52851 
 C                    -4.80637  -0.34336   2.5358 
 C                    -1.7205    1.22917   1.3106 
 C                    -2.47195   2.52374   1.49477 
 C                    -2.24228   3.39073   2.4818 
 C                    -0.86161   1.25488   0.00348 
 C                    -1.76494   1.21041  -1.2534 
 C                    -2.65333  -0.06825  -1.23187 
 H                    -0.58958  -1.86665  -0.88635 
 H                    -0.55909  -1.88356   0.87209 
 H                    -2.95534  -1.80677   0.04197 
 H                    -2.2842   -0.69505   2.16732 
 H                    -4.60656   0.77477   0.78676 
 H                    -4.34864  -0.95824   3.3086 
 H                    -5.87308  -0.1594    2.6322 
 H                    -1.02147   1.15318   2.15218 
 H                    -3.23333   2.76748   0.75466 
 H                    -1.49499   3.19964   3.24959 
 H                    -2.79422   4.32322   2.56402 
 H                    -0.21262   2.13484  -0.00375 
 H                    -1.13488   1.23378  -2.14953 
 H                    -2.37789   2.1172   -1.29065 
 H                    -2.46789  -0.6803   -2.12258 
 H                    -3.71659   0.19294  -1.25839 
 

 GradGradGradGradGradGradGradGradGradGradGradGradGradGradGradGradGradGrad
 Berny optimization.
 Initialization pass.
 Trust Radius=3.00D-01 FncErr=1.00D-07 GrdErr=1.00D-07 EigMax=2.50D+02 EigMin=1.00D-04
 Number of steps in this run=      2 maximum allowed number of steps=      2.
 GradGradGradGradGradGradGradGradGradGradGradGradGradGradGradGradGradGrad

                          Input orientation:                          
 ---------------------------------------------------------------------
 Center     Atomic      Atomic             Coordinates (Angstroms)
 Number     Number       Type             X           Y           Z
 ---------------------------------------------------------------------
      1          8           0        1.214988    0.000000    0.000000
      2          6           0        0.000000    0.000000    0.000000
      3          6           0       -0.845045   -1.275690    0.003481
      4          6           0       -2.338256   -0.901070    0.027625
      5          6           0       -2.620332   -0.081423    1.321685
      6          6           0       -4.093792    0.163080    1.528510
      7          6           0       -4.806367   -0.343356    2.535797
      8          6           0       -1.720496    1.229166    1.310596
      9          6           0       -2.471948    2.523735    1.494768
     10          6           0       -2.242278    3.390727    2.481797
     11          6           0       -0.861607    1.254880    0.003481
     12          6           0       -1.764942    1.210410   -1.253396
     13          6           0       -2.653330   -0.068245   -1.231871
     14          1           0       -0.589581   -1.866650   -0.886345
     15          1           0       -0.559085   -1.883562    0.872093
     16          1           0       -2.955336   -1.806771    0.041968
     17          1           0       -2.284203   -0.695052    2.167322
     18          1           0       -4.606564    0.774774    0.786755
     19          1           0       -4.348639   -0.958238    3.308604
     20          1           0       -5.873075   -0.159402    2.632200
     21          1           0       -1.021470    1.153176    2.152184
     22          1           0       -3.233331    2.767478    0.754658
     23          1           0       -1.494989    3.199640    3.249592
     24          1           0       -2.794223    4.323225    2.564019
     25          1           0       -0.212618    2.134841   -0.003746
     26          1           0       -1.134880    1.233777   -2.149526
     27          1           0       -2.377888    2.117195   -1.290651
     28          1           0       -2.467890   -0.680302   -2.122577
     29          1           0       -3.716589    0.192936   -1.258391
 ---------------------------------------------------------------------
                    Distance matrix (angstroms):
                    1          2          3          4          5
     1  O    0.000000
     2  C    1.214988   0.000000
     3  C    2.423042   1.530195   0.000000
     4  C    3.665820   2.506019   1.539676   0.000000
     5  C    4.057482   2.935919   2.513082   1.557556   0.000000
     6  C    5.526851   4.372879   3.866540   2.543025   1.507860
     7  C    6.542544   5.445119   4.793114   3.562800   2.514245
     8  C    3.441740   2.487693   2.957916   2.562332   1.589802
     9  C    4.711376   3.835896   4.393903   3.728226   2.615114
    10  C    5.441418   4.762789   5.465323   4.944865   3.680300
    11  C    2.426311   1.522203   2.530624   2.613273   2.572252
    12  C    3.451967   2.480144   2.933708   2.535360   3.005257
    13  C    4.060301   2.926145   2.500782   1.542465   2.553803
    14  H    2.743439   2.148859   1.098310   2.196713   3.490900
    15  H    2.730510   2.149634   1.098075   2.200879   2.774631
    16  H    4.545084   3.464130   2.176432   1.096033   2.174104
    17  H    4.174293   3.224588   2.662804   2.150272   1.097554
    18  H    5.925346   4.737055   4.355106   2.920608   2.228080
    19  H    6.543625   5.547589   4.826985   3.848341   2.775553
    20  H    7.562706   6.437926   5.782504   4.452957   3.507687
    21  H    3.311111   2.646717   3.247682   3.235368   2.184107
    22  H    5.293013   4.322369   4.755564   3.845514   2.968758
    23  H    5.304858   4.799222   5.566708   5.282802   3.968450
    24  H    6.429482   5.750839   6.457825   5.825329   4.579799
    25  H    2.568194   2.145406   3.468680   3.706221   3.530677
    26  H    3.415340   2.725916   3.319167   3.278059   3.998203
    27  H    4.365438   3.435498   3.941580   3.293835   3.423010
    28  H    4.304850   3.325451   2.740116   2.165390   3.499262
    29  H    5.093253   3.928588   3.463372   2.179561   2.816708
                    6          7          8          9         10
     6  C    0.000000
     7  C    1.333742   0.000000
     8  C    2.610854   3.673764   0.000000
     9  C    2.864299   3.841024   1.508147   0.000000
    10  C    3.841167   4.529994   2.513228   1.333660   0.000000
    11  C    3.736945   4.952587   1.564257   2.535178   3.551077
    12  C    3.776168   5.101219   2.564446   3.126833   4.351241
    13  C    3.122202   4.348169   3.002931   3.766407   5.091638
    14  H    4.714957   5.640281   3.961009   5.337461   6.458777
    15  H    4.136881   4.814515   3.351154   4.844692   5.765623
    16  H    2.717757   3.433232   3.514422   4.593210   5.785776
    17  H    2.102162   2.573087   2.180449   3.293656   4.098078
    18  H    1.089635   2.085494   2.968210   2.848988   3.912317
    19  H    2.119206   1.088497   3.960291   4.351564   4.902434
    20  H    2.118484   1.086738   4.573693   4.478911   5.080229
    21  H    3.287616   4.088057   1.096669   2.101075   2.570146
    22  H    2.849935   3.914612   2.228035   1.089439   2.086536
    23  H    4.351620   4.901790   2.773685   2.119128   1.088331
    24  H    4.479728   5.081978   3.506731   2.117858   1.086718
    25  H    4.615101   5.804590   2.195777   2.738860   3.445968
    26  H    4.840403   6.157874   3.509332   4.090553   5.227611
    27  H    3.835435   5.156891   2.826172   2.816502   3.983922
    28  H    4.084763   5.223261   3.998918   4.832293   6.150158
    29  H    2.812471   3.983853   3.414360   3.815972   5.136971
                   11         12         13         14         15
    11  C    0.000000
    12  C    1.548461   0.000000
    13  C    2.546964   1.557130   0.000000
    14  H    3.257259   3.314287   2.759114   0.000000
    15  H    3.270447   3.942646   3.479641   1.758784   0.000000
    16  H    3.709298   3.492619   2.176315   2.542075   2.537129
    17  H    3.241639   3.949902   3.476155   3.683649   2.462967
    18  H    3.855998   3.525168   2.932687   5.090436   4.843152
    19  H    5.289718   5.673656   4.927684   5.705552   4.599297
    20  H    5.833110   5.818161   5.030518   6.573444   5.857405
    21  H    2.157041   3.486259   3.950527   4.305640   3.327794
    22  H    2.911579   2.934776   3.510559   5.581886   5.366335
    23  H    3.836730   4.930194   5.666069   6.602502   5.689232
    24  H    4.439155   5.032067   5.806345   7.421591   6.810482
    25  H    1.093421   2.196795   3.509837   4.114974   4.127311
    26  H    2.170383   1.095707   2.200691   3.391994   4.379443
    27  H    2.171974   1.095148   2.203513   4.385490   4.898118
    28  H    3.293205   2.196452   1.096521   2.542388   3.749589
    29  H    3.297115   2.200955   1.095189   3.762777   4.338276
                   16         17         18         19         20
    16  H    0.000000
    17  H    2.490676   0.000000
    18  H    3.153670   3.075665   0.000000
    19  H    3.651330   2.373539   3.070762   0.000000
    20  H    4.235130   3.658283   2.425366   1.849207   0.000000
    21  H    4.117540   2.238453   3.854930   4.106754   5.048896
    22  H    4.637776   3.858183   2.420262   4.652689   4.365780
    23  H    6.122550   4.118591   4.650531   5.043288   5.552655
    24  H    6.630501   5.059703   4.362883   5.555580   5.438559
    25  H    4.802176   4.124718   4.667059   6.135590   6.652258
    26  H    4.166730   4.865851   4.570013   6.702564   6.874325
    27  H    4.184116   4.458148   3.329370   5.873269   5.726079
    28  H    2.488331   4.293855   3.892992   5.754319   5.871501
    29  H    2.503851   3.817822   2.305041   4.752066   4.462205
                   21         22         23         24         25
    21  H    0.000000
    22  H    3.074310   0.000000
    23  H    2.369924   3.071367   0.000000
    24  H    3.655335   2.426304   1.849449   0.000000
    25  H    2.503186   3.178068   3.655473   4.248191   0.000000
    26  H    4.303959   3.897438   5.757150   5.874999   2.503369
    27  H    3.823914   2.310398   4.750264   4.460760   2.518895
    28  H    4.871073   4.555389   6.697812   6.863378   4.183387
    29  H    4.451713   3.303660   5.856423   5.702707   4.197969
                   26         27         28         29
    26  H    0.000000
    27  H    1.750189   0.000000
    28  H    2.332668   2.919964   0.000000
    29  H    2.922789   2.344341   1.751745   0.000000
 Stoichiometry    C12H16O
 Framework group  C1[X(C12H16O)]
 Deg. of freedom    81
 Full point group                 C1      NOp   1
 Largest Abelian subgroup         C1      NOp   1
 Largest concise Abelian subgroup C1      NOp   1
                         Standard orientation:                         
 ---------------------------------------------------------------------
 Center     Atomic      Atomic             Coordinates (Angstroms)
 Number     Number       Type             X           Y           Z
 ---------------------------------------------------------------------
      1          8           0       -2.979551    0.843091   -1.096892
      2          6           0       -2.032622    0.289652   -0.574181
      3          6           0       -1.720590   -1.197999   -0.750332
      4          6           0       -0.440857   -1.549047    0.030469
      5          6           0        0.732586   -0.696165   -0.536631
      6          6           0        2.064382   -1.112314    0.035018
      7          6           0        3.049341   -1.662938   -0.675992
      8          6           0        0.383097    0.845030   -0.363288
      9          6           0        1.426299    1.661290    0.357793
     10          6           0        2.040716    2.723603   -0.164348
     11          6           0       -1.016295    0.983371    0.321886
     12          6           0       -1.033106    0.268869    1.695544
     13          6           0       -0.677930   -1.237292    1.522382
     14          1           0       -2.582883   -1.780104   -0.398351
     15          1           0       -1.619768   -1.410710   -1.822879
     16          1           0       -0.199284   -2.610535   -0.096706
     17          1           0        0.779781   -0.895840   -1.614837
     18          1           0        2.212904   -0.972909    1.105444
     19          1           0        2.960357   -1.823637   -1.748878
     20          1           0        3.985321   -1.969424   -0.216637
     21          1           0        0.292067    1.274857   -1.368099
     22          1           0        1.668980    1.369522    1.378996
     23          1           0        1.839016    3.060325   -1.179435
     24          1           0        2.772019    3.296094    0.399926
     25          1           0       -1.285757    2.038627    0.418818
     26          1           0       -2.023062    0.387455    2.149964
     27          1           0       -0.328653    0.766183    2.370654
     28          1           0       -1.491908   -1.869728    1.896311
     29          1           0        0.207150   -1.501280    2.110924
 ---------------------------------------------------------------------
 Rotational constants (GHZ):           1.0765360           0.7140595           0.5635070
 Standard basis: 6-31G(d) (6D, 7F)
 There are   227 symmetry adapted cartesian basis functions of A   symmetry.
 There are   227 symmetry adapted basis functions of A   symmetry.
   227 basis functions,   428 primitive gaussians,   227 cartesian basis functions
    48 alpha electrons       48 beta electrons
       nuclear repulsion energy       817.3396368766 Hartrees.
 NAtoms=   29 NActive=   29 NUniq=   29 SFac= 1.00D+00 NAtFMM=   60 NAOKFM=F Big=F
 Integral buffers will be    131072 words long.
 Raffenetti 2 integral format.
 Two-electron integral symmetry is turned on.
 One-electron integrals computed using PRISM.
 NBasis=   227 RedAO= T EigKep=  1.03D-03  NBF=   227
 NBsUse=   227 1.00D-06 EigRej= -1.00D+00 NBFU=   227
 ExpMin= 1.61D-01 ExpMax= 5.48D+03 ExpMxC= 8.25D+02 IAcc=3 IRadAn=         5 AccDes= 0.00D+00
 Harris functional with IExCor=  402 and IRadAn=       5 diagonalized for initial guess.
 HarFok:  IExCor=  402 AccDes= 0.00D+00 IRadAn=         5 IDoV= 1 UseB2=F ITyADJ=14
 ICtDFT=  3500011 ScaDFX=  1.000000  1.000000  1.000000  1.000000
 FoFCou: FMM=F IPFlag=           0 FMFlag=      100000 FMFlg1=           0
         NFxFlg=           0 DoJE=T BraDBF=F KetDBF=T FulRan=T
         wScrn=  0.000000 ICntrl=       500 IOpCl=  0 I1Cent=   200000004 NGrid=           0
         NMat0=    1 NMatS0=      1 NMatT0=    0 NMatD0=    1 NMtDS0=    0 NMtDT0=    0
 Petite list used in FoFCou.
 Requested convergence on RMS density matrix=1.00D-08 within 128 cycles.
 Requested convergence on MAX density matrix=1.00D-06.
 Requested convergence on             energy=1.00D-06.
 No special actions if energy rises.
 Integral accuracy reduced to 1.0D-05 until final iterations.
 Initial convergence to 1.0D-05 achieved.  Increase integral accuracy.
 SCF Done:  E(RB3LYP) =  -542.080654232     A.U. after   14 cycles
            NFock= 14  Conv=0.87D-08     -V/T= 2.0097
 DoSCS=F DFT=T ScalE2(SS,OS)=  1.000000  1.000000
 Range of M.O.s used for correlation:     1   227
 NBasis=   227 NAE=    48 NBE=    48 NFC=     0 NFV=     0
 NROrb=    227 NOA=    48 NOB=    48 NVA=   179 NVB=   179
 Symmetrizing basis deriv contribution to polar:
 IMax=3 JMax=2 DiffMx= 0.00D+00
 G2DrvN: will do    30 centers at a time, making    1 passes.
 Calling FoFCou, ICntrl=  3107 FMM=F I1Cent=   0 AccDes= 0.00D+00.
 End of G2Drv F.D. properties file   721 does not exist.
 End of G2Drv F.D. properties file   722 does not exist.
 End of G2Drv F.D. properties file   788 does not exist.
          IDoAtm=11111111111111111111111111111
          Differentiating once with respect to electric field.
                with respect to dipole field.
          Differentiating once with respect to nuclear coordinates.
 Keep R1 ints in memory in canonical form, NReq=345395561.
          There are    90 degrees of freedom in the 1st order CPHF.  IDoFFX=6 NUNeed=     3.
     87 vectors produced by pass  0 Test12= 9.55D-15 1.11D-09 XBig12= 1.04D+02 3.25D+00.
 AX will form    87 AO Fock derivatives at one time.
     87 vectors produced by pass  1 Test12= 9.55D-15 1.11D-09 XBig12= 1.05D+01 7.71D-01.
     87 vectors produced by pass  2 Test12= 9.55D-15 1.11D-09 XBig12= 1.32D-01 4.40D-02.
     87 vectors produced by pass  3 Test12= 9.55D-15 1.11D-09 XBig12= 4.37D-04 2.51D-03.
     87 vectors produced by pass  4 Test12= 9.55D-15 1.11D-09 XBig12= 5.63D-07 6.34D-05.
     48 vectors produced by pass  5 Test12= 9.55D-15 1.11D-09 XBig12= 3.82D-10 2.23D-06.
      4 vectors produced by pass  6 Test12= 9.55D-15 1.11D-09 XBig12= 2.58D-13 5.73D-08.
      1 vectors produced by pass  7 Test12= 9.55D-15 1.11D-09 XBig12= 1.50D-16 1.23D-09.
 InvSVY:  IOpt=1 It=  1 EMax= 1.07D-14
 Solved reduced A of dimension   488 with    90 vectors.
 Isotropic polarizability for W=    0.000000      119.97 Bohr**3.
 End of Minotr F.D. properties file   721 does not exist.
 End of Minotr F.D. properties file   722 does not exist.
 End of Minotr F.D. properties file   788 does not exist.

 **********************************************************************

            Population analysis using the SCF density.

 **********************************************************************

 Orbital symmetries:
       Occupied  (A) (A) (A) (A) (A) (A) (A) (A) (A) (A) (A) (A)
                 (A) (A) (A) (A) (A) (A) (A) (A) (A) (A) (A) (A)
                 (A) (A) (A) (A) (A) (A) (A) (A) (A) (A) (A) (A)
                 (A) (A) (A) (A) (A) (A) (A) (A) (A) (A) (A) (A)
       Virtual   (A) (A) (A) (A) (A) (A) (A) (A) (A) (A) (A) (A)
                 (A) (A) (A) (A) (A) (A) (A) (A) (A) (A) (A) (A)
                 (A) (A) (A) (A) (A) (A) (A) (A) (A) (A) (A) (A)
                 (A) (A) (A) (A) (A) (A) (A) (A) (A) (A) (A) (A)
                 (A) (A) (A) (A) (A) (A) (A) (A) (A) (A) (A) (A)
                 (A) (A) (A) (A) (A) (A) (A) (A) (A) (A) (A) (A)
                 (A) (A) (A) (A) (A) (A) (A) (A) (A) (A) (A) (A)
                 (A) (A) (A) (A) (A) (A) (A) (A) (A) (A) (A) (A)
                 (A) (A) (A) (A) (A) (A) (A) (A) (A) (A) (A) (A)
                 (A) (A) (A) (A) (A) (A) (A) (A) (A) (A) (A) (A)
                 (A) (A) (A) (A) (A) (A) (A) (A) (A) (A) (A) (A)
                 (A) (A) (A) (A) (A) (A) (A) (A) (A) (A) (A) (A)
                 (A) (A) (A) (A) (A) (A) (A) (A) (A) (A) (A) (A)
                 (A) (A) (A) (A) (A) (A) (A) (A) (A) (A) (A) (A)
                 (A) (A) (A) (A) (A) (A) (A) (A) (A) (A) (A)
 The electronic state is 1-A.
 Alpha  occ. eigenvalues --  -19.13204 -10.26679 -10.20462 -10.20076 -10.19821
 Alpha  occ. eigenvalues --  -10.19433 -10.19410 -10.19231 -10.19158 -10.19056
 Alpha  occ. eigenvalues --  -10.19053 -10.18235 -10.18214  -1.03133  -0.86819
 Alpha  occ. eigenvalues --   -0.79403  -0.78678  -0.74928  -0.73187  -0.70840
 Alpha  occ. eigenvalues --   -0.62847  -0.61812  -0.58309  -0.57448  -0.53827
 Alpha  occ. eigenvalues --   -0.51325  -0.49434  -0.47826  -0.46621  -0.44977
 Alpha  occ. eigenvalues --   -0.44061  -0.41990  -0.41476  -0.41231  -0.40278
 Alpha  occ. eigenvalues --   -0.39250  -0.38148  -0.37726  -0.37059  -0.36455
 Alpha  occ. eigenvalues --   -0.35730  -0.33339  -0.32200  -0.30952  -0.30367
 Alpha  occ. eigenvalues --   -0.25830  -0.25515  -0.23107
 Alpha virt. eigenvalues --   -0.01555   0.00933   0.02780   0.06945   0.07947
 Alpha virt. eigenvalues --    0.11522   0.12187   0.12984   0.13672   0.13938
 Alpha virt. eigenvalues --    0.14663   0.15547   0.16078   0.16990   0.17673
 Alpha virt. eigenvalues --    0.18100   0.18631   0.19856   0.20500   0.21151
 Alpha virt. eigenvalues --    0.21611   0.22884   0.23976   0.25399   0.26631
 Alpha virt. eigenvalues --    0.28206   0.30172   0.32430   0.34213   0.35216
 Alpha virt. eigenvalues --    0.36174   0.38339   0.41401   0.45156   0.50535
 Alpha virt. eigenvalues --    0.51714   0.52468   0.53103   0.55181   0.56014
 Alpha virt. eigenvalues --    0.57209   0.59072   0.59908   0.60745   0.61285
 Alpha virt. eigenvalues --    0.62588   0.63060   0.63960   0.65523   0.65701
 Alpha virt. eigenvalues --    0.67572   0.68536   0.68667   0.69447   0.70328
 Alpha virt. eigenvalues --    0.72540   0.74902   0.75406   0.78537   0.81254
 Alpha virt. eigenvalues --    0.81966   0.83357   0.83560   0.84650   0.84944
 Alpha virt. eigenvalues --    0.85596   0.86356   0.87103   0.88219   0.88906
 Alpha virt. eigenvalues --    0.89404   0.89668   0.90367   0.92965   0.93707
 Alpha virt. eigenvalues --    0.94606   0.95347   0.95525   0.96139   0.98166
 Alpha virt. eigenvalues --    0.99786   1.01100   1.03223   1.07039   1.08257
 Alpha virt. eigenvalues --    1.11250   1.12090   1.20065   1.20154   1.22371
 Alpha virt. eigenvalues --    1.26757   1.27666   1.37312   1.39330   1.42276
 Alpha virt. eigenvalues --    1.43147   1.47310   1.48557   1.51215   1.52263
 Alpha virt. eigenvalues --    1.53983   1.55637   1.60292   1.64751   1.66531
 Alpha virt. eigenvalues --    1.67156   1.68154   1.69997   1.72309   1.72977
 Alpha virt. eigenvalues --    1.75778   1.79641   1.81283   1.82534   1.83749
 Alpha virt. eigenvalues --    1.84501   1.86080   1.87730   1.90775   1.92897
 Alpha virt. eigenvalues --    1.93536   1.95606   1.97714   1.99720   2.01456
 Alpha virt. eigenvalues --    2.01704   2.04882   2.05125   2.08252   2.09796
 Alpha virt. eigenvalues --    2.11353   2.12488   2.15809   2.18611   2.20149
 Alpha virt. eigenvalues --    2.21954   2.23391   2.26972   2.28028   2.30802
 Alpha virt. eigenvalues --    2.31741   2.36304   2.38853   2.41764   2.43040
 Alpha virt. eigenvalues --    2.44854   2.48685   2.49341   2.50946   2.54045
 Alpha virt. eigenvalues --    2.55524   2.60138   2.66065   2.67990   2.70044
 Alpha virt. eigenvalues --    2.72259   2.75038   2.76711   2.77283   2.82207
 Alpha virt. eigenvalues --    2.83171   2.89137   2.89684   2.95097   3.01392
 Alpha virt. eigenvalues --    3.09292   4.06915   4.09342   4.14215   4.14593
 Alpha virt. eigenvalues --    4.24863   4.30478   4.39433   4.41404   4.54666
 Alpha virt. eigenvalues --    4.57450   4.66995   4.70761   4.98645
          Condensed to atoms (all electrons):
               1          2          3          4          5          6
     1  O    8.020977   0.567342  -0.077742   0.003339   0.000105  -0.000000
     2  C    0.567342   4.516211   0.302114  -0.024924  -0.015244   0.000286
     3  C   -0.077742   0.302114   5.415019   0.285285  -0.037416   0.004545
     4  C    0.003339  -0.024924   0.285285   5.013414   0.364938  -0.043499
     5  C    0.000105  -0.015244  -0.037416   0.364938   5.064696   0.404589
     6  C   -0.000000   0.000286   0.004545  -0.043499   0.404589   4.778898
     7  C   -0.000000  -0.000004  -0.000005  -0.001316  -0.024605   0.670158
     8  C   -0.000596  -0.029631  -0.007399  -0.046268   0.304870  -0.041662
     9  C   -0.000068   0.003526  -0.000177   0.000984  -0.040671  -0.002807
    10  C   -0.000001   0.000006  -0.000002  -0.000076   0.000589   0.000601
    11  C   -0.062152   0.347943  -0.145335   0.027324  -0.042743   0.000850
    12  C    0.000358  -0.027889  -0.007669  -0.050480  -0.018877   0.000137
    13  C    0.000073  -0.019205  -0.039965   0.376452  -0.040390  -0.005723
    14  H   -0.000377  -0.021859   0.347394  -0.027772   0.004327  -0.000146
    15  H   -0.000303  -0.022003   0.349960  -0.029994  -0.004445   0.000042
    16  H   -0.000066   0.003411  -0.030703   0.363902  -0.041337  -0.000086
    17  H   -0.000029  -0.000309  -0.004156  -0.044795   0.364718  -0.046675
    18  H   -0.000000  -0.000018   0.000010  -0.004707  -0.052694   0.362698
    19  H   -0.000000  -0.000000  -0.000027   0.000140  -0.012561  -0.036108
    20  H    0.000000   0.000000   0.000003  -0.000126   0.004345  -0.022550
    21  H    0.001226  -0.001302   0.001454   0.002882  -0.035763   0.003691
    22  H   -0.000000  -0.000028  -0.000011   0.000427  -0.004514   0.002261
    23  H   -0.000000  -0.000026   0.000002  -0.000004   0.000101   0.000047
    24  H   -0.000000   0.000003  -0.000000   0.000002  -0.000151   0.000008
    25  H    0.003489  -0.031253   0.008513  -0.000753   0.005239  -0.000075
    26  H    0.000832  -0.003521   0.001874   0.001419  -0.000026  -0.000005
    27  H   -0.000075   0.003832  -0.000529   0.001954   0.001562  -0.000108
    28  H   -0.000016   0.000532  -0.005857  -0.032975   0.005215   0.000014
    29  H    0.000002   0.000308   0.005064  -0.032308  -0.009039   0.004999
               7          8          9         10         11         12
     1  O   -0.000000  -0.000596  -0.000068  -0.000001  -0.062152   0.000358
     2  C   -0.000004  -0.029631   0.003526   0.000006   0.347943  -0.027889
     3  C   -0.000005  -0.007399  -0.000177  -0.000002  -0.145335  -0.007669
     4  C   -0.001316  -0.046268   0.000984  -0.000076   0.027324  -0.050480
     5  C   -0.024605   0.304870  -0.040671   0.000589  -0.042743  -0.018877
     6  C    0.670158  -0.041662  -0.002807   0.000601   0.000850   0.000137
     7  C    5.027059   0.000711   0.000587  -0.000441  -0.000075   0.000003
     8  C    0.000711   5.095542   0.401332  -0.025456   0.334214  -0.031821
     9  C    0.000587   0.401332   4.775526   0.672215  -0.039974  -0.008750
    10  C   -0.000441  -0.025456   0.672215   5.022294  -0.001340   0.000022
    11  C   -0.000075   0.334214  -0.039974  -0.001340   5.207689   0.341706
    12  C    0.000003  -0.031821  -0.008750   0.000022   0.341706   5.105616
    13  C    0.000068  -0.018910   0.000315   0.000001  -0.043237   0.340882
    14  H   -0.000000   0.000163   0.000003  -0.000000   0.003783  -0.000185
    15  H   -0.000005  -0.000059   0.000029  -0.000001   0.003879   0.000118
    16  H    0.002077   0.005919  -0.000082   0.000001  -0.000553   0.005804
    17  H   -0.008298  -0.037082   0.003875   0.000111   0.003350  -0.000022
    18  H   -0.048840  -0.004678   0.002399   0.000343   0.000457  -0.000138
    19  H    0.368379   0.000110   0.000050   0.000004  -0.000003  -0.000001
    20  H    0.363122  -0.000157   0.000008   0.000010   0.000002  -0.000000
    21  H    0.000135   0.367304  -0.047215  -0.007872  -0.047982   0.005783
    22  H    0.000343  -0.053459   0.363599  -0.048242  -0.004499   0.002112
    23  H    0.000004  -0.012621  -0.035652   0.368857   0.000161   0.000009
    24  H    0.000011   0.004491  -0.022937   0.363159  -0.000134   0.000006
    25  H    0.000001  -0.035434  -0.000293   0.001839   0.346259  -0.034067
    26  H    0.000000   0.005050   0.000036  -0.000013  -0.035887   0.372558
    27  H    0.000001  -0.010835   0.006184   0.000282  -0.029204   0.366793
    28  H   -0.000014  -0.000000  -0.000006   0.000000   0.001883  -0.032833
    29  H    0.000245   0.001422  -0.000174  -0.000001   0.001369  -0.031621
              13         14         15         16         17         18
     1  O    0.000073  -0.000377  -0.000303  -0.000066  -0.000029  -0.000000
     2  C   -0.019205  -0.021859  -0.022003   0.003411  -0.000309  -0.000018
     3  C   -0.039965   0.347394   0.349960  -0.030703  -0.004156   0.000010
     4  C    0.376452  -0.027772  -0.029994   0.363902  -0.044795  -0.004707
     5  C   -0.040390   0.004327  -0.004445  -0.041337   0.364718  -0.052694
     6  C   -0.005723  -0.000146   0.000042  -0.000086  -0.046675   0.362698
     7  C    0.000068  -0.000000  -0.000005   0.002077  -0.008298  -0.048840
     8  C   -0.018910   0.000163  -0.000059   0.005919  -0.037082  -0.004678
     9  C    0.000315   0.000003   0.000029  -0.000082   0.003875   0.002399
    10  C    0.000001  -0.000000  -0.000001   0.000001   0.000111   0.000343
    11  C   -0.043237   0.003783   0.003879  -0.000553   0.003350   0.000457
    12  C    0.340882  -0.000185   0.000118   0.005804  -0.000022  -0.000138
    13  C    5.081316  -0.004316   0.004927  -0.039947   0.005774   0.002229
    14  H   -0.004316   0.550182  -0.021772  -0.003068   0.000056   0.000004
    15  H    0.004927  -0.021772   0.548428  -0.002762   0.005412   0.000002
    16  H   -0.039947  -0.003068  -0.002762   0.614127  -0.002574  -0.000099
    17  H    0.005774   0.000056   0.005412  -0.002574   0.628261   0.005913
    18  H    0.002229   0.000004   0.000002  -0.000099   0.005913   0.610386
    19  H    0.000010   0.000000   0.000001   0.000102   0.008056   0.006045
    20  H    0.000008  -0.000000   0.000000  -0.000066   0.000128  -0.007474
    21  H   -0.000046  -0.000005  -0.000135  -0.000153  -0.012566  -0.000170
    22  H   -0.000109   0.000000  -0.000000  -0.000010  -0.000169   0.000203
    23  H   -0.000001  -0.000000  -0.000000   0.000000  -0.000049  -0.000002
    24  H   -0.000000   0.000000   0.000000  -0.000000   0.000003  -0.000010
    25  H    0.005018  -0.000185  -0.000166   0.000013  -0.000162  -0.000006
    26  H   -0.031603  -0.000104  -0.000010  -0.000116   0.000010   0.000007
    27  H   -0.030235   0.000054   0.000009  -0.000162   0.000003  -0.000064
    28  H    0.370048   0.004717   0.000010  -0.002916  -0.000173  -0.000067
    29  H    0.368654  -0.000063  -0.000169  -0.002091   0.000002   0.003381
              19         20         21         22         23         24
     1  O   -0.000000   0.000000   0.001226  -0.000000  -0.000000  -0.000000
     2  C   -0.000000   0.000000  -0.001302  -0.000028  -0.000026   0.000003
     3  C   -0.000027   0.000003   0.001454  -0.000011   0.000002  -0.000000
     4  C    0.000140  -0.000126   0.002882   0.000427  -0.000004   0.000002
     5  C   -0.012561   0.004345  -0.035763  -0.004514   0.000101  -0.000151
     6  C   -0.036108  -0.022550   0.003691   0.002261   0.000047   0.000008
     7  C    0.368379   0.363122   0.000135   0.000343   0.000004   0.000011
     8  C    0.000110  -0.000157   0.367304  -0.053459  -0.012621   0.004491
     9  C    0.000050   0.000008  -0.047215   0.363599  -0.035652  -0.022937
    10  C    0.000004   0.000010  -0.007872  -0.048242   0.368857   0.363159
    11  C   -0.000003   0.000002  -0.047982  -0.004499   0.000161  -0.000134
    12  C   -0.000001  -0.000000   0.005783   0.002112   0.000009   0.000006
    13  C    0.000010   0.000008  -0.000046  -0.000109  -0.000001  -0.000000
    14  H    0.000000  -0.000000  -0.000005   0.000000  -0.000000   0.000000
    15  H    0.000001   0.000000  -0.000135  -0.000000  -0.000000   0.000000
    16  H    0.000102  -0.000066  -0.000153  -0.000010   0.000000  -0.000000
    17  H    0.008056   0.000128  -0.012566  -0.000169  -0.000049   0.000003
    18  H    0.006045  -0.007474  -0.000170   0.000203  -0.000002  -0.000010
    19  H    0.571444  -0.042956  -0.000051  -0.000002  -0.000002   0.000000
    20  H   -0.042956   0.565322   0.000003  -0.000010   0.000000  -0.000000
    21  H   -0.000051   0.000003   0.614472   0.005762   0.007865   0.000126
    22  H   -0.000002  -0.000010   0.005762   0.609068   0.005987  -0.007428
    23  H   -0.000002   0.000000   0.007865   0.005987   0.567239  -0.042577
    24  H    0.000000  -0.000000   0.000126  -0.007428  -0.042577   0.564311
    25  H    0.000000  -0.000000  -0.001893  -0.000140   0.000117  -0.000071
    26  H   -0.000000   0.000000  -0.000160  -0.000055   0.000000  -0.000000
    27  H    0.000000  -0.000000  -0.000018   0.003152   0.000002   0.000014
    28  H    0.000000  -0.000000   0.000010   0.000007  -0.000000   0.000000
    29  H    0.000002   0.000008   0.000004  -0.000035   0.000000  -0.000000
              25         26         27         28         29
     1  O    0.003489   0.000832  -0.000075  -0.000016   0.000002
     2  C   -0.031253  -0.003521   0.003832   0.000532   0.000308
     3  C    0.008513   0.001874  -0.000529  -0.005857   0.005064
     4  C   -0.000753   0.001419   0.001954  -0.032975  -0.032308
     5  C    0.005239  -0.000026   0.001562   0.005215  -0.009039
     6  C   -0.000075  -0.000005  -0.000108   0.000014   0.004999
     7  C    0.000001   0.000000   0.000001  -0.000014   0.000245
     8  C   -0.035434   0.005050  -0.010835  -0.000000   0.001422
     9  C   -0.000293   0.000036   0.006184  -0.000006  -0.000174
    10  C    0.001839  -0.000013   0.000282   0.000000  -0.000001
    11  C    0.346259  -0.035887  -0.029204   0.001883   0.001369
    12  C   -0.034067   0.372558   0.366793  -0.032833  -0.031621
    13  C    0.005018  -0.031603  -0.030235   0.370048   0.368654
    14  H   -0.000185  -0.000104   0.000054   0.004717  -0.000063
    15  H   -0.000166  -0.000010   0.000009   0.000010  -0.000169
    16  H    0.000013  -0.000116  -0.000162  -0.002916  -0.002091
    17  H   -0.000162   0.000010   0.000003  -0.000173   0.000002
    18  H   -0.000006   0.000007  -0.000064  -0.000067   0.003381
    19  H    0.000000  -0.000000   0.000000   0.000000   0.000002
    20  H   -0.000000   0.000000  -0.000000  -0.000000   0.000008
    21  H   -0.001893  -0.000160  -0.000018   0.000010   0.000004
    22  H   -0.000140  -0.000055   0.003152   0.000007  -0.000035
    23  H    0.000117   0.000000   0.000002  -0.000000   0.000000
    24  H   -0.000071  -0.000000   0.000014   0.000000  -0.000000
    25  H    0.592293  -0.001970  -0.002613  -0.000129  -0.000127
    26  H   -0.001970   0.579824  -0.035618  -0.010568   0.003815
    27  H   -0.002613  -0.035618   0.582385   0.003875  -0.010061
    28  H   -0.000129  -0.010568   0.003875   0.592814  -0.035430
    29  H   -0.000127   0.003815  -0.010061  -0.035430   0.588658
 Mulliken charges:
               1
     1  O   -0.456319
     2  C    0.451704
     3  C   -0.364242
     4  C   -0.102466
     5  C   -0.144817
     6  C   -0.034379
     7  C   -0.349300
     8  C   -0.165062
     9  C   -0.031860
    10  C   -0.346890
    11  C   -0.167749
    12  C   -0.297552
    13  C   -0.282089
    14  H    0.169172
    15  H    0.169011
    16  H    0.131435
    17  H    0.131387
    18  H    0.124890
    19  H    0.137367
    20  H    0.140381
    21  H    0.144615
    22  H    0.125790
    23  H    0.140544
    24  H    0.141176
    25  H    0.146556
    26  H    0.154231
    27  H    0.149422
    28  H    0.141859
    29  H    0.143184
 Sum of Mulliken charges =  -0.00000
 Mulliken charges with hydrogens summed into heavy atoms:
               1
     1  O   -0.456319
     2  C    0.451704
     3  C   -0.026059
     4  C    0.028969
     5  C   -0.013430
     6  C    0.090511
     7  C   -0.071553
     8  C   -0.020447
     9  C    0.093930
    10  C   -0.065170
    11  C   -0.021193
    12  C    0.006102
    13  C    0.002954
 APT charges:
               1
     1  O   -0.673349
     2  C    0.762899
     3  C   -0.055526
     4  C    0.100548
     5  C    0.085263
     6  C    0.038086
     7  C   -0.084519
     8  C    0.111481
     9  C    0.034975
    10  C   -0.081919
    11  C   -0.104676
    12  C    0.101204
    13  C    0.084236
    14  H   -0.019241
    15  H   -0.008951
    16  H   -0.058816
    17  H   -0.067584
    18  H    0.003507
    19  H    0.019944
    20  H    0.014272
    21  H   -0.058905
    22  H    0.003595
    23  H    0.021955
    24  H    0.016010
    25  H   -0.038764
    26  H   -0.037714
    27  H   -0.026712
    28  H   -0.048316
    29  H   -0.032983
 Sum of APT charges =  -0.00000
 APT charges with hydrogens summed into heavy atoms:
               1
     1  O   -0.673349
     2  C    0.762899
     3  C   -0.083718
     4  C    0.041731
     5  C    0.017679
     6  C    0.041593
     7  C   -0.050303
     8  C    0.052576
     9  C    0.038570
    10  C   -0.043954
    11  C   -0.143439
    12  C    0.036778
    13  C    0.002937
 Electronic spatial extent (au):  <R**2>=           2300.3745
 Charge=             -0.0000 electrons
 Dipole moment (field-independent basis, Debye):
    X=              2.1218    Y=             -1.4454    Z=              1.3797  Tot=              2.9146
 Quadrupole moment (field-independent basis, Debye-Ang):
   XX=            -87.7384   YY=            -78.5563   ZZ=            -76.2347
   XY=              5.3152   XZ=             -4.1204   YZ=              1.7927
 Traceless Quadrupole moment (field-independent basis, Debye-Ang):
   XX=             -6.8953   YY=              2.2868   ZZ=              4.6084
   XY=              5.3152   XZ=             -4.1204   YZ=              1.7927
 Octapole moment (field-independent basis, Debye-Ang**2):
  XXX=             23.9846  YYY=              5.9566  ZZZ=             -4.9810  XYY=              1.0247
  XXY=            -16.8234  XXZ=             20.6493  XZZ=              4.3688  YZZ=             -1.1074
  YYZ=             -3.0202  XYZ=             -4.0881
 Hexadecapole moment (field-independent basis, Debye-Ang**3):
 XXXX=          -1664.9884 YYYY=          -1028.8644 ZZZZ=           -481.7418 XXXY=             22.6686
 XXXZ=            -34.5010 YYYX=             24.4181 YYYZ=             -8.7699 ZZZX=              5.7652
 ZZZY=              2.4844 XXYY=           -415.4020 XXZZ=           -351.0970 YYZZ=           -245.1299
 XXYZ=             21.9863 YYXZ=             -2.1470 ZZXY=              2.6742
 N-N= 8.173396368766D+02 E-N=-2.891608887870D+03  KE= 5.368761188332D+02
  Exact polarizability: 134.950   1.771 119.871  -1.682  -0.215 105.081
 Approx polarizability: 185.947  -1.030 167.699  -1.833  -4.234 163.926
 Calling FoFJK, ICntrl=    100127 FMM=F ISym2X=0 I1Cent= 0 IOpClX= 0 NMat=1 NMatS=1 NMatT=0.
 Full mass-weighted force constant matrix:
 Low frequencies ---  -14.6812   -6.3381   -1.4886   -0.0007   -0.0005    0.0001
 Low frequencies ---    9.9173   73.4490   82.8345
 ******    1 imaginary frequencies (negative Signs) ****** 
 Diagonal vibrational polarizability:
       31.3021051      19.6211577     138.3534888
 Harmonic frequencies (cm**-1), IR intensities (KM/Mole), Raman scattering
 activities (A**4/AMU), depolarization ratios for plane and unpolarized
 incident light, reduced masses (AMU), force constants (mDyne/A),
 and normal coordinates:
                      1                      2                      3
                      A                      A                      A
 Frequencies --    -14.1384                73.4475                82.8329
 Red. masses --      3.6790                 3.1538                 2.8529
 Frc consts  --      0.0004                 0.0100                 0.0115
 IR Inten    --      1.2222                 0.0080                 0.7659
  Atom  AN      X      Y      Z        X      Y      Z        X      Y      Z
     1   8    -0.07   0.06   0.17    -0.04  -0.01   0.01     0.10   0.09  -0.07
     2   6    -0.01   0.04   0.05    -0.03  -0.01   0.00     0.03   0.03   0.00
     3   6     0.02   0.06  -0.12    -0.02  -0.01  -0.00    -0.05   0.01   0.04
     4   6    -0.01  -0.01  -0.11    -0.03  -0.01   0.01    -0.06  -0.04   0.03
     5   6     0.03   0.00   0.00    -0.03  -0.01   0.02    -0.03  -0.09   0.02
     6   6    -0.02   0.01   0.12    -0.02   0.03   0.02    -0.04  -0.11   0.02
     7   6     0.04  -0.00   0.22     0.09   0.28  -0.03     0.08   0.17  -0.03
     8   6    -0.01  -0.00  -0.02    -0.03  -0.01   0.02     0.02  -0.08  -0.01
     9   6     0.01   0.05  -0.10    -0.00  -0.04   0.02     0.06  -0.08  -0.06
    10   6    -0.02   0.03  -0.18     0.22  -0.21  -0.07    -0.16   0.08  -0.01
    11   6     0.03  -0.02   0.05    -0.03  -0.00   0.00     0.04  -0.01   0.02
    12   6     0.08  -0.09   0.01    -0.05  -0.00   0.00     0.05   0.01   0.02
    13   6    -0.07  -0.11  -0.09    -0.05  -0.00   0.01    -0.05  -0.02   0.03
    14   1     0.01   0.00  -0.24    -0.02  -0.01  -0.01    -0.08   0.06   0.07
    15   1     0.08   0.20  -0.15    -0.01  -0.00  -0.00    -0.08  -0.03   0.04
    16   1    -0.03  -0.01  -0.17    -0.03  -0.01   0.02    -0.11  -0.05   0.04
    17   1     0.13   0.01   0.00    -0.02  -0.00   0.02    -0.03  -0.11   0.02
    18   1    -0.11   0.03   0.14    -0.09  -0.12   0.05    -0.13  -0.33   0.07
    19   1     0.13  -0.02   0.22     0.16   0.44  -0.06     0.18   0.41  -0.07
    20   1     0.00   0.00   0.31     0.11   0.32  -0.03     0.09   0.18  -0.03
    21   1    -0.07  -0.04  -0.03    -0.01  -0.01   0.01     0.00  -0.10  -0.02
    22   1     0.06   0.10  -0.10    -0.14   0.06   0.08     0.25  -0.19  -0.14
    23   1    -0.07  -0.02  -0.19     0.37  -0.32  -0.14    -0.37   0.20   0.07
    24   1    -0.01   0.07  -0.24     0.25  -0.25  -0.08    -0.15   0.10  -0.04
    25   1     0.04  -0.02   0.11    -0.03  -0.00   0.00     0.09  -0.00   0.01
    26   1     0.13  -0.03   0.11    -0.06  -0.01  -0.01     0.08   0.08   0.07
    27   1     0.18  -0.19  -0.03    -0.06  -0.01   0.02     0.11  -0.03  -0.02
    28   1    -0.16  -0.06  -0.20    -0.05  -0.00  -0.00    -0.10   0.04   0.02
    29   1    -0.13  -0.26  -0.06    -0.05  -0.00   0.02    -0.08  -0.08   0.05
                      4                      5                      6
                      A                      A                      A
 Frequencies --     96.2827               183.2907               222.3850
 Red. masses --      4.6929                 2.7950                 1.9948
 Frc consts  --      0.0256                 0.0553                 0.0581
 IR Inten    --      2.9156                 0.3005                 0.1378
  Atom  AN      X      Y      Z        X      Y      Z        X      Y      Z
     1   8    -0.22  -0.11   0.23    -0.01   0.03  -0.02     0.02  -0.07  -0.06
     2   6    -0.03  -0.02  -0.02    -0.05   0.00   0.02    -0.01  -0.05   0.01
     3   6     0.03   0.00  -0.07    -0.12  -0.02   0.10     0.02  -0.04  -0.02
     4   6    -0.01   0.02   0.00    -0.01  -0.00  -0.06    -0.01  -0.00   0.01
     5   6     0.03  -0.06  -0.02    -0.04   0.01  -0.12    -0.03   0.03   0.01
     6   6     0.01  -0.09   0.01    -0.07   0.06  -0.01    -0.03   0.05   0.00
     7   6     0.08   0.03   0.00     0.04   0.03   0.17    -0.06   0.01  -0.02
     8   6     0.09  -0.04  -0.08    -0.03   0.00  -0.10    -0.03   0.04  -0.03
     9   6     0.07  -0.09   0.01    -0.02  -0.07  -0.03    -0.02   0.01  -0.00
    10   6    -0.01   0.03   0.17     0.03  -0.03   0.11     0.05   0.00   0.06
    11   6     0.06   0.05  -0.17    -0.00  -0.01  -0.03    -0.02  -0.00   0.01
    12   6     0.00   0.15  -0.11     0.10  -0.01  -0.03     0.20   0.05   0.03
    13   6    -0.06   0.12  -0.02     0.17   0.00  -0.04    -0.11  -0.02  -0.00
    14   1     0.02  -0.04  -0.17    -0.07   0.03   0.30     0.02  -0.06  -0.05
    15   1     0.14   0.06  -0.07    -0.31  -0.13   0.10     0.05  -0.00  -0.02
    16   1    -0.04  -0.00   0.09    -0.02  -0.00  -0.09     0.04   0.01   0.02
    17   1     0.04  -0.10  -0.01    -0.01  -0.01  -0.12    -0.03   0.01   0.01
    18   1    -0.05  -0.21   0.03    -0.18   0.16  -0.01    -0.01   0.06  -0.00
    19   1     0.15   0.15  -0.02     0.19  -0.09   0.17    -0.11  -0.00  -0.01
    20   1     0.06   0.01   0.03    -0.02   0.11   0.33    -0.05   0.00  -0.05
    21   1     0.19  -0.05  -0.09    -0.04   0.05  -0.08    -0.03   0.03  -0.03
    22   1     0.11  -0.24  -0.04    -0.05  -0.17  -0.05    -0.03  -0.03  -0.01
    23   1    -0.05   0.19   0.23     0.08   0.09   0.14     0.10   0.07   0.07
    24   1    -0.04  -0.01   0.26     0.02  -0.13   0.21     0.06  -0.07   0.12
    25   1     0.08   0.06  -0.24     0.00  -0.01  -0.01    -0.06  -0.01  -0.01
    26   1    -0.00   0.22  -0.14     0.12  -0.06   0.02     0.35   0.25   0.32
    27   1     0.01   0.16  -0.14     0.10   0.03  -0.06     0.48  -0.05  -0.19
    28   1    -0.10   0.18  -0.02     0.25  -0.03   0.09    -0.30   0.15  -0.16
    29   1    -0.10   0.11   0.03     0.25   0.07  -0.15    -0.25  -0.25   0.11
                      7                      8                      9
                      A                      A                      A
 Frequencies --    266.3269               282.5610               310.7786
 Red. masses --      2.0998                 1.9491                 2.8426
 Frc consts  --      0.0878                 0.0917                 0.1618
 IR Inten    --      0.0766                 0.0140                 0.3078
  Atom  AN      X      Y      Z        X      Y      Z        X      Y      Z
     1   8    -0.02  -0.10  -0.04     0.01   0.00  -0.00    -0.02   0.01  -0.06
     2   6    -0.00  -0.04  -0.00     0.00   0.01   0.01    -0.04   0.03   0.01
     3   6     0.01  -0.03   0.01     0.04   0.01  -0.03     0.11   0.08  -0.11
     4   6     0.03   0.04  -0.03     0.00  -0.00   0.03     0.03   0.05  -0.00
     5   6    -0.02   0.10  -0.01    -0.02   0.00   0.00     0.02   0.00  -0.01
     6   6    -0.10  -0.07   0.04     0.04   0.17  -0.02    -0.00  -0.07   0.00
     7   6    -0.07   0.00   0.02    -0.01   0.02   0.01     0.03  -0.03   0.01
     8   6    -0.01   0.09   0.05    -0.03  -0.02  -0.00    -0.10  -0.03   0.03
     9   6     0.14   0.00  -0.04     0.10  -0.15  -0.07    -0.10  -0.10   0.04
    10   6     0.07   0.05  -0.02    -0.01  -0.05   0.01    -0.11  -0.14  -0.02
    11   6    -0.03   0.02   0.04    -0.02   0.00   0.03    -0.09   0.02   0.06
    12   6    -0.04  -0.02   0.02    -0.06  -0.00   0.03     0.08   0.07   0.07
    13   6     0.04   0.00  -0.02    -0.04   0.00   0.02     0.14   0.10   0.02
    14   1     0.03  -0.03   0.04     0.02  -0.02  -0.13     0.09  -0.05  -0.38
    15   1    -0.01  -0.04   0.01     0.13   0.07  -0.04     0.34   0.25  -0.13
    16   1     0.09   0.05  -0.05     0.00  -0.00   0.04    -0.01   0.03   0.04
    17   1     0.01   0.15  -0.02    -0.03  -0.04   0.01     0.03   0.03  -0.01
    18   1    -0.23  -0.39   0.10     0.15   0.44  -0.08    -0.07  -0.23   0.03
    19   1     0.05   0.31  -0.03    -0.13  -0.28   0.07     0.12   0.13  -0.02
    20   1    -0.17  -0.24   0.06     0.05   0.19  -0.01    -0.03  -0.15   0.05
    21   1    -0.05   0.12   0.06    -0.07   0.01   0.01    -0.10  -0.00   0.04
    22   1     0.39  -0.19  -0.15     0.35  -0.36  -0.19    -0.05  -0.14   0.02
    23   1    -0.17   0.24   0.09    -0.27   0.18   0.14    -0.19  -0.17  -0.01
    24   1     0.26  -0.09  -0.12     0.15  -0.19  -0.05    -0.04  -0.14  -0.10
    25   1    -0.10   0.00   0.05    -0.00   0.01   0.03    -0.05   0.03   0.03
    26   1    -0.06  -0.08  -0.00    -0.09  -0.02  -0.02     0.14   0.02   0.21
    27   1    -0.07  -0.00   0.04    -0.09  -0.00   0.06     0.14   0.12  -0.03
    28   1     0.08  -0.05  -0.02    -0.04  -0.01   0.00     0.21   0.06   0.12
    29   1     0.05   0.04  -0.03    -0.05   0.01   0.04     0.21   0.14  -0.08
                     10                     11                     12
                      A                      A                      A
 Frequencies --    347.3483               369.7177               382.3121
 Red. masses --      2.7418                 2.6454                 3.5850
 Frc consts  --      0.1949                 0.2131                 0.3087
 IR Inten    --      0.5155                 2.3314                 3.3094
  Atom  AN      X      Y      Z        X      Y      Z        X      Y      Z
     1   8    -0.04  -0.03  -0.04    -0.04  -0.03  -0.00     0.16  -0.01   0.12
     2   6    -0.05   0.01   0.03     0.01  -0.00  -0.06     0.14  -0.09   0.04
     3   6    -0.04   0.01   0.08    -0.06  -0.02   0.00     0.06  -0.09  -0.07
     4   6     0.03   0.05  -0.03    -0.02  -0.01  -0.06    -0.01  -0.02   0.01
     5   6     0.05   0.03  -0.08    -0.01   0.02   0.03    -0.12   0.02  -0.16
     6   6     0.10  -0.04  -0.15    -0.03   0.06   0.05    -0.18   0.02  -0.16
     7   6     0.21  -0.09   0.03    -0.08   0.05   0.00    -0.03   0.02   0.06
     8   6    -0.01   0.03   0.07     0.09  -0.01   0.13     0.02   0.02   0.01
     9   6     0.02  -0.00   0.07     0.09  -0.05   0.20     0.00   0.00   0.07
    10   6    -0.03  -0.03  -0.04    -0.09  -0.08  -0.07    -0.04  -0.02  -0.02
    11   6    -0.05   0.03   0.04     0.03   0.02  -0.06     0.08  -0.02   0.02
    12   6    -0.04   0.03   0.04     0.08   0.02  -0.07    -0.04   0.06   0.03
    13   6    -0.12   0.02  -0.03     0.04   0.01  -0.06    -0.04   0.07   0.02
    14   1     0.02   0.03   0.28    -0.05   0.06   0.15     0.00  -0.10  -0.22
    15   1    -0.24  -0.07   0.08    -0.19  -0.12   0.01     0.21   0.00  -0.07
    16   1     0.01   0.04  -0.01    -0.01  -0.00  -0.08     0.07  -0.01   0.11
    17   1    -0.05   0.11  -0.10     0.03   0.09   0.02    -0.24   0.04  -0.17
    18   1     0.02  -0.06  -0.13     0.04   0.18   0.02    -0.34   0.05  -0.14
    19   1     0.46  -0.16   0.01    -0.21  -0.04   0.03     0.25  -0.04   0.05
    20   1     0.10  -0.08   0.26    -0.01   0.12  -0.09    -0.14   0.08   0.32
    21   1    -0.01   0.09   0.10     0.25   0.07   0.15     0.02   0.12   0.06
    22   1     0.12  -0.02   0.04     0.20   0.05   0.20    -0.10   0.13   0.12
    23   1    -0.17  -0.07  -0.02    -0.36  -0.33  -0.10    -0.00  -0.19  -0.09
    24   1     0.06  -0.01  -0.17    -0.05   0.15  -0.36    -0.13   0.14  -0.06
    25   1    -0.03   0.03   0.03     0.03   0.02  -0.07    -0.01  -0.03  -0.08
    26   1     0.01   0.09   0.13     0.12   0.04   0.02    -0.10   0.07  -0.10
    27   1     0.05  -0.02  -0.02     0.14   0.02  -0.14    -0.12   0.05   0.12
    28   1    -0.24   0.06  -0.23     0.05   0.03   0.00    -0.05   0.07   0.01
    29   1    -0.25  -0.10   0.11     0.07   0.01  -0.11    -0.06   0.06   0.04
                     13                     14                     15
                      A                      A                      A
 Frequencies --    418.6177               462.0586               508.6359
 Red. masses --      2.6395                 4.0383                 3.8651
 Frc consts  --      0.2725                 0.5080                 0.5892
 IR Inten    --      2.3003                11.6685                 0.7946
  Atom  AN      X      Y      Z        X      Y      Z        X      Y      Z
     1   8     0.08   0.05   0.08     0.06   0.23   0.09    -0.09   0.13   0.01
     2   6     0.06  -0.01   0.04    -0.08  -0.16  -0.05    -0.01   0.07  -0.16
     3   6     0.05  -0.03   0.09    -0.10  -0.22  -0.12     0.09   0.01   0.05
     4   6     0.14   0.04  -0.04    -0.03  -0.01  -0.02     0.06  -0.01   0.19
     5   6     0.08   0.09  -0.01     0.03   0.03   0.05    -0.05   0.08   0.02
     6   6     0.02   0.04   0.08     0.08  -0.01   0.03    -0.04   0.04  -0.10
     7   6    -0.07   0.01  -0.01     0.06  -0.03  -0.01     0.01  -0.02   0.02
     8   6    -0.05   0.00  -0.08    -0.05   0.04   0.07    -0.00   0.08  -0.04
     9   6    -0.10  -0.09  -0.02     0.00   0.06   0.02    -0.01   0.00   0.05
    10   6    -0.09  -0.11   0.00     0.05   0.03  -0.01    -0.02  -0.03  -0.01
    11   6     0.02   0.01  -0.03    -0.11  -0.14  -0.05    -0.01  -0.04  -0.14
    12   6    -0.04   0.02  -0.05     0.00   0.07  -0.00     0.05  -0.13  -0.11
    13   6    -0.05   0.01  -0.06     0.01   0.08  -0.00     0.02  -0.16   0.19
    14   1     0.13   0.01   0.36    -0.03  -0.31  -0.08     0.03   0.03  -0.07
    15   1    -0.19  -0.16   0.09    -0.05  -0.27  -0.11     0.32  -0.14   0.10
    16   1     0.19   0.06  -0.03     0.06  -0.00   0.09     0.12   0.02   0.03
    17   1     0.17   0.05  -0.00     0.08   0.08   0.04    -0.23  -0.00   0.03
    18   1    -0.05  -0.20   0.12     0.14  -0.03   0.02    -0.14  -0.15  -0.06
    19   1    -0.14   0.27  -0.05     0.02  -0.01  -0.01     0.25   0.10  -0.02
    20   1    -0.12  -0.29  -0.12     0.07  -0.05  -0.05    -0.14  -0.18   0.22
    21   1    -0.07   0.02  -0.07    -0.06   0.02   0.06     0.12   0.10  -0.04
    22   1    -0.12  -0.18  -0.04     0.22  -0.07  -0.07     0.07  -0.08   0.01
    23   1    -0.11  -0.10   0.01    -0.11   0.19   0.08    -0.17  -0.04   0.01
    24   1    -0.05  -0.14  -0.01     0.26  -0.15  -0.09     0.10  -0.05  -0.14
    25   1     0.01   0.01  -0.07    -0.29  -0.17  -0.20    -0.04  -0.06   0.05
    26   1    -0.07   0.02  -0.11     0.06   0.09   0.12     0.09  -0.04  -0.07
    27   1    -0.08  -0.01   0.00     0.09   0.13  -0.15     0.09  -0.04  -0.22
    28   1    -0.17   0.03  -0.28     0.08   0.06   0.11    -0.05  -0.10   0.12
    29   1    -0.20  -0.06   0.13     0.08   0.13  -0.09    -0.05  -0.14   0.29
                     16                     17                     18
                      A                      A                      A
 Frequencies --    585.8147               609.3038               636.8690
 Red. masses --      3.1210                 2.5833                 3.1892
 Frc consts  --      0.6310                 0.5651                 0.7621
 IR Inten    --      1.3691                 0.7313                 2.2746
  Atom  AN      X      Y      Z        X      Y      Z        X      Y      Z
     1   8     0.07  -0.08   0.08     0.07   0.00  -0.04    -0.03   0.09  -0.00
     2   6     0.20   0.05  -0.05    -0.11  -0.04   0.24    -0.04   0.05   0.00
     3   6     0.02   0.05  -0.01    -0.04  -0.01   0.10     0.17  -0.02   0.08
     4   6    -0.08  -0.11  -0.01    -0.01  -0.07   0.01     0.18  -0.08  -0.01
     5   6    -0.07  -0.03   0.10    -0.02   0.01   0.03    -0.01  -0.14  -0.05
     6   6     0.02  -0.05  -0.01     0.02  -0.00   0.00    -0.12  -0.10  -0.01
     7   6     0.06  -0.02  -0.01     0.02  -0.01  -0.00    -0.05   0.04   0.01
     8   6    -0.13   0.09   0.05     0.00   0.06  -0.03    -0.04  -0.07   0.10
     9   6    -0.13   0.06  -0.00    -0.01   0.03   0.06     0.02   0.05   0.01
    10   6    -0.00  -0.03  -0.00     0.00  -0.01  -0.00     0.04   0.05  -0.00
    11   6    -0.03   0.11  -0.01     0.01   0.07  -0.07    -0.13   0.05   0.01
    12   6     0.02   0.01  -0.10     0.01   0.00  -0.15    -0.04   0.02  -0.06
    13   6     0.00  -0.02  -0.05    -0.00  -0.04  -0.05     0.04   0.03  -0.09
    14   1    -0.12   0.35   0.15     0.01  -0.36  -0.41     0.24  -0.07   0.17
    15   1    -0.14  -0.13   0.01     0.26   0.56   0.01     0.09  -0.09   0.09
    16   1    -0.09  -0.11  -0.04     0.01  -0.06  -0.06     0.11  -0.11   0.05
    17   1    -0.08   0.06   0.09    -0.02   0.01   0.03    -0.02  -0.06  -0.07
    18   1     0.14   0.01  -0.03     0.04  -0.02   0.00    -0.09   0.21  -0.05
    19   1     0.09  -0.15   0.01     0.03  -0.01  -0.00    -0.16  -0.25   0.06
    20   1     0.09   0.13   0.03     0.01  -0.01   0.00     0.11   0.46  -0.05
    21   1    -0.09   0.00   0.00     0.10   0.04  -0.04    -0.02  -0.12   0.08
    22   1     0.09  -0.16  -0.12     0.07  -0.06   0.01     0.12   0.10  -0.00
    23   1    -0.19   0.22   0.12    -0.15  -0.00   0.03     0.05   0.13   0.02
    24   1     0.32  -0.35  -0.10     0.14  -0.05  -0.14     0.09  -0.03   0.02
    25   1    -0.13   0.08   0.02    -0.01   0.06  -0.06    -0.06   0.07  -0.01
    26   1     0.05   0.01  -0.04    -0.03  -0.03  -0.24     0.05  -0.04   0.14
    27   1     0.07  -0.02  -0.12    -0.07  -0.02  -0.05     0.08   0.03  -0.18
    28   1     0.07   0.01   0.15    -0.02   0.02   0.01    -0.08   0.05  -0.30
    29   1     0.10   0.07  -0.15    -0.01   0.01  -0.01    -0.13  -0.01   0.16
                     19                     20                     21
                      A                      A                      A
 Frequencies --    683.5235               718.1607               759.3469
 Red. masses --      2.2112                 2.2702                 3.1979
 Frc consts  --      0.6087                 0.6899                 1.0864
 IR Inten    --      4.2467                 3.2731                 1.7107
  Atom  AN      X      Y      Z        X      Y      Z        X      Y      Z
     1   8     0.01  -0.02  -0.00    -0.02  -0.01  -0.02     0.09  -0.04   0.04
     2   6    -0.00  -0.04  -0.00    -0.00   0.03   0.01     0.04  -0.07   0.04
     3   6    -0.01   0.05   0.01    -0.01   0.06   0.00     0.01   0.18   0.07
     4   6    -0.00   0.17   0.00     0.00  -0.08  -0.01    -0.03   0.17   0.01
     5   6     0.03   0.02  -0.04     0.06  -0.10  -0.11    -0.01   0.04   0.06
     6   6    -0.06  -0.14   0.04     0.02   0.13  -0.02    -0.02   0.02  -0.04
     7   6    -0.00   0.02  -0.00    -0.04   0.01   0.01    -0.01   0.00  -0.00
     8   6     0.04   0.05  -0.07     0.01  -0.12   0.04    -0.00  -0.13   0.09
     9   6    -0.09   0.06   0.05    -0.10   0.12   0.07     0.02  -0.02  -0.04
    10   6    -0.01  -0.03  -0.00     0.03   0.02  -0.01     0.01   0.02  -0.01
    11   6     0.07  -0.10  -0.03     0.05  -0.08  -0.01    -0.10  -0.18  -0.08
    12   6     0.02  -0.04   0.05    -0.01   0.03   0.02    -0.06  -0.05  -0.12
    13   6     0.00   0.01   0.05    -0.00   0.03   0.03    -0.02   0.02  -0.02
    14   1     0.03  -0.02   0.00    -0.05   0.10  -0.01     0.04   0.13   0.05
    15   1     0.03   0.03   0.01    -0.06   0.08  -0.01     0.01   0.24   0.06
    16   1    -0.01   0.17  -0.02    -0.13  -0.11   0.04    -0.13   0.16  -0.11
    17   1     0.04  -0.03  -0.04     0.08  -0.09  -0.11    -0.07   0.05   0.05
    18   1     0.05   0.19  -0.02    -0.18  -0.06   0.03     0.00  -0.01  -0.04
    19   1    -0.18  -0.29   0.06    -0.03   0.27  -0.03     0.12  -0.01  -0.01
    20   1     0.22   0.49  -0.13    -0.18  -0.39   0.01    -0.08  -0.01   0.12
    21   1     0.04   0.08  -0.06     0.00  -0.09   0.05    -0.02  -0.16   0.09
    22   1     0.07  -0.15  -0.05     0.20  -0.01  -0.04     0.07   0.11  -0.02
    23   1    -0.26   0.09   0.09    -0.18   0.25   0.11     0.18   0.09  -0.02
    24   1     0.31  -0.24  -0.20     0.41  -0.30  -0.16    -0.11   0.01   0.17
    25   1     0.06  -0.11  -0.01     0.20  -0.04  -0.04    -0.13  -0.19  -0.15
    26   1    -0.05  -0.02  -0.10    -0.02   0.05  -0.02     0.12   0.12   0.21
    27   1    -0.09   0.02   0.11    -0.02   0.07   0.00     0.24   0.00  -0.47
    28   1    -0.05  -0.01  -0.09    -0.03   0.05   0.02     0.10  -0.11   0.01
    29   1    -0.04  -0.11   0.06    -0.04   0.01   0.08     0.07   0.16  -0.08
                     22                     23                     24
                      A                      A                      A
 Frequencies --    781.0102               835.7381               848.6180
 Red. masses --      2.5639                 1.4683                 2.6069
 Frc consts  --      0.9214                 0.6042                 1.1061
 IR Inten    --      2.0517                 5.6482                 1.6852
  Atom  AN      X      Y      Z        X      Y      Z        X      Y      Z
     1   8    -0.05   0.01  -0.04    -0.01   0.01  -0.01     0.01  -0.01  -0.00
     2   6    -0.05   0.02  -0.01    -0.02   0.03   0.03     0.00   0.01   0.02
     3   6    -0.00  -0.07  -0.02     0.06  -0.05   0.01    -0.06   0.02  -0.03
     4   6     0.02   0.06   0.00    -0.00   0.01   0.00     0.07  -0.10  -0.11
     5   6    -0.05   0.08   0.17     0.01   0.01   0.02     0.05   0.11  -0.01
     6   6    -0.05   0.01  -0.07    -0.02   0.00  -0.02    -0.04  -0.05  -0.01
     7   6    -0.01   0.00  -0.02    -0.01   0.01  -0.00    -0.01   0.01  -0.00
     8   6     0.01  -0.11   0.12     0.06  -0.01  -0.06     0.02  -0.04   0.07
     9   6    -0.08   0.01  -0.06    -0.03   0.02   0.02    -0.03  -0.02  -0.05
    10   6    -0.02  -0.02  -0.02    -0.00  -0.01   0.00    -0.02  -0.02  -0.02
    11   6     0.16  -0.01   0.03     0.03   0.04  -0.00     0.01   0.04  -0.07
    12   6     0.07   0.01  -0.02    -0.07  -0.02   0.05    -0.06   0.13   0.06
    13   6     0.02   0.04  -0.09    -0.09  -0.02  -0.05     0.01  -0.15   0.17
    14   1     0.09  -0.17   0.03     0.13  -0.11   0.09    -0.07   0.02  -0.06
    15   1     0.01  -0.08  -0.01     0.00  -0.08   0.01    -0.18   0.19  -0.08
    16   1     0.15   0.09   0.01     0.09   0.03   0.04     0.20  -0.04  -0.37
    17   1    -0.12   0.17   0.15    -0.03  -0.07   0.03     0.13   0.30  -0.04
    18   1     0.08  -0.04  -0.08     0.01  -0.00  -0.02     0.00   0.04  -0.03
    19   1     0.26  -0.09  -0.02     0.05  -0.00  -0.01     0.00  -0.12   0.01
    20   1    -0.12   0.07   0.26    -0.04   0.02   0.06     0.04   0.21   0.02
    21   1     0.00  -0.24   0.07     0.09  -0.03  -0.08     0.04  -0.05   0.06
    22   1     0.03   0.03  -0.08    -0.00  -0.05  -0.01     0.03   0.04  -0.04
    23   1     0.10   0.23   0.04    -0.09  -0.00   0.02     0.12   0.12   0.00
    24   1     0.05  -0.27   0.16     0.11  -0.06  -0.08    -0.07  -0.13   0.16
    25   1     0.34   0.04   0.03     0.14   0.07  -0.00     0.08   0.08  -0.27
    26   1    -0.06  -0.09  -0.27     0.08   0.28   0.30    -0.02   0.27   0.12
    27   1    -0.14  -0.02   0.21     0.27  -0.28  -0.11     0.04   0.16  -0.08
    28   1    -0.05   0.10  -0.13     0.27  -0.32   0.23     0.03  -0.16   0.20
    29   1    -0.02  -0.09  -0.08     0.19   0.35  -0.29     0.02  -0.01   0.23
                     25                     26                     27
                      A                      A                      A
 Frequencies --    866.9128               896.1297               942.4580
 Red. masses --      2.1450                 2.1381                 1.3583
 Frc consts  --      0.9498                 1.0116                 0.7108
 IR Inten    --      5.7676                 2.3250                38.5399
  Atom  AN      X      Y      Z        X      Y      Z        X      Y      Z
     1   8     0.03   0.01   0.01     0.00  -0.00   0.03    -0.00  -0.00   0.00
     2   6    -0.02  -0.06   0.02     0.07   0.01  -0.10     0.00   0.00  -0.01
     3   6     0.05   0.05  -0.03    -0.08  -0.06   0.13    -0.00   0.00   0.01
     4   6     0.00   0.03  -0.03    -0.05   0.07   0.04     0.00  -0.01   0.00
     5   6    -0.04  -0.06   0.11    -0.01   0.00  -0.06     0.00   0.00   0.00
     6   6    -0.01   0.04  -0.04     0.03   0.01   0.02     0.02   0.05  -0.01
     7   6    -0.02   0.01  -0.02     0.03  -0.00   0.01    -0.06  -0.14   0.03
     8   6     0.05  -0.03  -0.09     0.03  -0.03   0.06    -0.00  -0.00  -0.00
     9   6     0.01   0.02   0.04    -0.03  -0.00  -0.02    -0.01   0.01   0.01
    10   6     0.02   0.02   0.01    -0.02  -0.01  -0.02     0.04  -0.03  -0.02
    11   6    -0.10   0.05  -0.09    -0.02   0.10  -0.06     0.00  -0.01  -0.00
    12   6     0.01   0.06   0.14    -0.04  -0.01   0.10    -0.00   0.00   0.01
    13   6     0.05  -0.08  -0.03     0.05  -0.04  -0.08     0.00   0.00  -0.01
    14   1     0.13   0.05   0.18    -0.18  -0.18  -0.35    -0.02   0.01  -0.02
    15   1    -0.14  -0.05  -0.02     0.46   0.08   0.14     0.01   0.02   0.01
    16   1    -0.08   0.03  -0.13    -0.06   0.07   0.04     0.01  -0.01   0.01
    17   1    -0.08  -0.18   0.13    -0.02   0.04  -0.07     0.00  -0.01   0.00
    18   1     0.06  -0.06  -0.04    -0.05   0.05   0.03     0.00  -0.02   0.00
    19   1     0.20   0.00  -0.03    -0.12   0.07   0.01     0.26   0.59  -0.11
    20   1    -0.16  -0.07   0.21     0.06  -0.12  -0.13     0.24   0.60  -0.10
    21   1     0.24  -0.18  -0.17     0.10  -0.01   0.06    -0.01  -0.00  -0.00
    22   1    -0.01  -0.06   0.02     0.04   0.07  -0.02    -0.00  -0.01   0.00
    23   1    -0.14  -0.05   0.02     0.09   0.15   0.01    -0.18   0.13   0.08
    24   1     0.11   0.07  -0.15     0.00  -0.19   0.12    -0.16   0.15   0.07
    25   1    -0.24   0.04  -0.33    -0.01   0.12  -0.25     0.01  -0.00  -0.01
    26   1    -0.07  -0.18   0.04     0.02  -0.10   0.26    -0.00  -0.00   0.01
    27   1    -0.15   0.13   0.24     0.07  -0.07   0.03     0.00  -0.00   0.01
    28   1    -0.05  -0.02  -0.15     0.01  -0.11  -0.28     0.00   0.00  -0.01
    29   1     0.01  -0.31  -0.06    -0.01  -0.18  -0.05    -0.00  -0.00  -0.01
                     28                     29                     30
                      A                      A                      A
 Frequencies --    944.8024               950.0814               963.7703
 Red. masses --      1.3578                 1.9514                 2.7605
 Frc consts  --      0.7141                 1.0378                 1.5107
 IR Inten    --     29.0745                 3.2718                 1.8041
  Atom  AN      X      Y      Z        X      Y      Z        X      Y      Z
     1   8     0.00  -0.00   0.00    -0.00   0.02  -0.01    -0.05   0.03  -0.01
     2   6     0.00   0.00   0.00    -0.05  -0.05   0.02     0.01  -0.01  -0.09
     3   6    -0.01  -0.00  -0.01     0.14   0.01   0.02     0.06   0.06   0.17
     4   6     0.00   0.00   0.00    -0.08   0.07  -0.03    -0.02  -0.13  -0.04
     5   6    -0.00   0.00   0.00    -0.05  -0.03  -0.07    -0.00   0.05   0.04
     6   6     0.01   0.02  -0.00     0.03   0.00   0.02    -0.00  -0.01   0.01
     7   6    -0.02  -0.05   0.01     0.05  -0.03   0.03    -0.01   0.01  -0.02
     8   6     0.00  -0.01  -0.00    -0.06   0.01   0.07    -0.10   0.05  -0.02
     9   6     0.04  -0.03  -0.02     0.01  -0.01  -0.01     0.03  -0.00   0.00
    10   6    -0.11   0.10   0.06    -0.02   0.00  -0.02     0.03   0.03   0.04
    11   6    -0.01   0.00   0.00     0.04   0.02  -0.02     0.09  -0.17  -0.02
    12   6    -0.00  -0.00  -0.00     0.06   0.07  -0.02    -0.02   0.10   0.09
    13   6     0.01   0.00   0.00    -0.05  -0.10   0.03    -0.01  -0.00  -0.10
    14   1    -0.01   0.01  -0.01     0.32  -0.13   0.25    -0.01  -0.01  -0.11
    15   1    -0.01   0.00  -0.01     0.06  -0.21   0.06     0.31   0.13   0.18
    16   1     0.02   0.01   0.01    -0.24   0.05  -0.20    -0.16  -0.14  -0.16
    17   1    -0.01  -0.01   0.01    -0.15  -0.00  -0.08     0.14   0.13   0.03
    18   1     0.00  -0.01   0.00    -0.12   0.09   0.03     0.13  -0.10   0.00
    19   1     0.09   0.20  -0.04    -0.20   0.19   0.02     0.10  -0.15  -0.01
    20   1     0.09   0.21  -0.04     0.16  -0.13  -0.27    -0.06   0.08   0.12
    21   1    -0.00  -0.00  -0.00    -0.04   0.09   0.10    -0.33   0.09   0.01
    22   1    -0.01   0.01   0.01     0.05   0.12   0.03    -0.08  -0.16  -0.01
    23   1     0.47  -0.39  -0.22     0.11   0.09  -0.01    -0.05  -0.28  -0.05
    24   1     0.48  -0.38  -0.23    -0.03  -0.09   0.10     0.03   0.25  -0.19
    25   1     0.00   0.00   0.00     0.00   0.02  -0.10     0.13  -0.15  -0.17
    26   1     0.00  -0.01   0.01    -0.05   0.09  -0.26    -0.06   0.18  -0.02
    27   1     0.00   0.01  -0.02    -0.10   0.05   0.15    -0.01   0.09   0.10
    28   1    -0.01   0.01  -0.02     0.04  -0.10   0.23     0.03  -0.01  -0.02
    29   1    -0.01  -0.01   0.02     0.12  -0.08  -0.23     0.03   0.01  -0.17
                     31                     32                     33
                      A                      A                      A
 Frequencies --    990.4654              1017.5997              1031.2373
 Red. masses --      2.1012                 2.0058                 1.1484
 Frc consts  --      1.2145                 1.2238                 0.7196
 IR Inten    --      0.9099                 1.2388                 9.9693
  Atom  AN      X      Y      Z        X      Y      Z        X      Y      Z
     1   8    -0.01   0.02  -0.00     0.01  -0.01   0.01     0.00  -0.00   0.00
     2   6    -0.02  -0.03  -0.01     0.02   0.01  -0.02    -0.00   0.01   0.01
     3   6     0.06   0.04   0.05    -0.01  -0.07   0.02     0.01  -0.01  -0.01
     4   6    -0.06  -0.09   0.00    -0.08   0.10  -0.04    -0.02  -0.00   0.01
     5   6     0.13   0.01  -0.01     0.14  -0.04  -0.04    -0.01   0.02  -0.00
     6   6    -0.03   0.00  -0.02    -0.01   0.01   0.00     0.02   0.05  -0.01
     7   6    -0.05   0.02  -0.02    -0.08   0.02  -0.05     0.01  -0.01   0.01
     8   6     0.13   0.10   0.02    -0.05  -0.05   0.02     0.02  -0.02  -0.01
     9   6    -0.02  -0.03  -0.03    -0.00   0.01  -0.00    -0.06   0.05   0.03
    10   6    -0.07  -0.05  -0.05     0.03   0.02   0.03     0.01  -0.00  -0.01
    11   6    -0.05  -0.02  -0.00    -0.03   0.09   0.06    -0.01   0.01  -0.00
    12   6     0.04  -0.03   0.03     0.01   0.01  -0.08     0.00  -0.01   0.00
    13   6    -0.05   0.05  -0.02    -0.00  -0.05   0.07     0.00   0.00  -0.00
    14   1     0.05   0.05   0.05     0.08  -0.22  -0.02     0.01   0.01   0.02
    15   1     0.05  -0.02   0.06     0.22  -0.18   0.06     0.01  -0.05   0.00
    16   1    -0.26  -0.15   0.08    -0.27   0.07  -0.13    -0.02  -0.00   0.01
    17   1     0.22   0.12  -0.03     0.39  -0.03  -0.03    -0.01   0.06  -0.01
    18   1     0.03  -0.00  -0.03     0.17  -0.06  -0.02    -0.21  -0.45   0.09
    19   1     0.13  -0.06  -0.02     0.30  -0.12  -0.05    -0.16  -0.25   0.06
    20   1    -0.12   0.13   0.18    -0.22   0.16   0.34     0.11   0.18  -0.08
    21   1     0.29   0.14   0.02    -0.17  -0.11   0.01     0.01   0.00   0.00
    22   1     0.07   0.10  -0.02    -0.03  -0.10  -0.02     0.45  -0.37  -0.21
    23   1     0.21   0.23  -0.01    -0.08  -0.15  -0.01     0.26  -0.20  -0.12
    24   1    -0.11  -0.34   0.29     0.04   0.17  -0.13    -0.18   0.14   0.09
    25   1    -0.28  -0.08   0.03     0.05   0.11   0.13     0.04   0.02  -0.01
    26   1    -0.01  -0.15  -0.05     0.01   0.00  -0.08    -0.00  -0.06   0.01
    27   1    -0.07  -0.02   0.14    -0.02   0.06  -0.08    -0.01   0.03  -0.01
    28   1    -0.03   0.14   0.17    -0.03   0.00   0.10    -0.00   0.02   0.02
    29   1     0.02   0.02  -0.14     0.02  -0.09   0.01     0.00  -0.03  -0.02
                     34                     35                     36
                      A                      A                      A
 Frequencies --   1034.7252              1045.1282              1055.5118
 Red. masses --      2.5319                 1.1696                 2.0534
 Frc consts  --      1.5972                 0.7527                 1.3478
 IR Inten    --      9.5898                11.7158                 0.3784
  Atom  AN      X      Y      Z        X      Y      Z        X      Y      Z
     1   8    -0.00   0.00   0.00    -0.00  -0.00  -0.00    -0.01  -0.00   0.00
     2   6     0.02   0.05   0.03     0.00   0.01  -0.00     0.02   0.04  -0.01
     3   6     0.07  -0.04   0.03    -0.01  -0.00  -0.01     0.01  -0.03   0.03
     4   6    -0.10  -0.07  -0.01     0.01   0.01  -0.00    -0.03   0.01  -0.08
     5   6    -0.01   0.20  -0.02    -0.01  -0.04   0.01    -0.09  -0.05   0.05
     6   6    -0.02  -0.07   0.00    -0.02  -0.05   0.01     0.03   0.05   0.00
     7   6     0.05  -0.00   0.02    -0.01   0.01  -0.01     0.01  -0.01   0.00
     8   6     0.09  -0.16  -0.07     0.01   0.04  -0.00     0.13   0.05  -0.06
     9   6    -0.02   0.02   0.00    -0.04   0.03   0.02    -0.01  -0.00  -0.00
    10   6     0.03   0.02   0.02    -0.01  -0.02  -0.01    -0.03  -0.02  -0.02
    11   6    -0.12  -0.02   0.05     0.02  -0.02   0.02    -0.01  -0.07   0.13
    12   6     0.02   0.01  -0.02    -0.02   0.03  -0.01    -0.08   0.09  -0.05
    13   6    -0.02   0.01  -0.01     0.02  -0.02  -0.01     0.07  -0.03   0.00
    14   1    -0.07   0.14  -0.00     0.01  -0.03  -0.00     0.08  -0.16  -0.01
    15   1     0.16  -0.17   0.07    -0.01   0.01  -0.01     0.18  -0.10   0.06
    16   1     0.12  -0.00  -0.10     0.02   0.01  -0.02    -0.05   0.04  -0.37
    17   1    -0.04   0.24  -0.03    -0.04  -0.14   0.02    -0.11  -0.11   0.05
    18   1     0.06   0.41  -0.07     0.26   0.49  -0.10    -0.05  -0.24   0.05
    19   1    -0.09   0.22  -0.00     0.16   0.30  -0.06    -0.03  -0.07   0.01
    20   1     0.09  -0.15  -0.17    -0.12  -0.21   0.08     0.04   0.01  -0.03
    21   1     0.08  -0.21  -0.09    -0.02   0.12   0.03     0.12   0.08  -0.04
    22   1    -0.01  -0.10  -0.03     0.41  -0.27  -0.17    -0.14   0.12   0.06
    23   1    -0.12  -0.09   0.02     0.26  -0.13  -0.10    -0.06   0.16   0.05
    24   1     0.11   0.10  -0.15    -0.18   0.05   0.13     0.04  -0.19   0.06
    25   1     0.06   0.02   0.08     0.01  -0.02   0.07    -0.04  -0.10   0.42
    26   1     0.00  -0.24  -0.00    -0.01   0.09   0.00    -0.01   0.21   0.07
    27   1    -0.10   0.20  -0.03     0.01   0.07  -0.07     0.02   0.29  -0.29
    28   1    -0.11   0.26   0.20     0.00  -0.04  -0.09    -0.05   0.05  -0.13
    29   1     0.01  -0.11  -0.12    -0.00  -0.04   0.02    -0.04  -0.08   0.15
                     37                     38                     39
                      A                      A                      A
 Frequencies --   1075.3894              1094.3843              1108.6952
 Red. masses --      2.5630                 1.8793                 1.8155
 Frc consts  --      1.7464                 1.3261                 1.3148
 IR Inten    --      0.1456                10.2810                14.6888
  Atom  AN      X      Y      Z        X      Y      Z        X      Y      Z
     1   8    -0.00  -0.00  -0.01     0.01  -0.01  -0.01    -0.00  -0.01   0.00
     2   6    -0.03  -0.02   0.03    -0.04   0.04   0.11     0.05   0.07  -0.00
     3   6    -0.04   0.02  -0.05     0.07  -0.02  -0.07     0.00  -0.04   0.03
     4   6     0.02   0.01   0.19    -0.10  -0.03   0.04     0.02   0.02  -0.03
     5   6     0.11   0.03  -0.03    -0.02   0.05  -0.02    -0.07   0.02  -0.05
     6   6    -0.02  -0.01  -0.01     0.01  -0.01   0.04     0.04  -0.00   0.08
     7   6    -0.02   0.01   0.00    -0.01   0.00  -0.02    -0.02   0.00  -0.04
     8   6     0.03  -0.01  -0.00    -0.04   0.02  -0.02    -0.08  -0.07  -0.07
     9   6     0.01  -0.01   0.00     0.03  -0.01   0.02     0.05   0.01   0.10
    10   6    -0.01  -0.01  -0.00    -0.01  -0.00  -0.02    -0.02   0.00  -0.05
    11   6    -0.03  -0.03   0.09     0.05  -0.02  -0.08    -0.06  -0.03  -0.02
    12   6     0.01   0.17  -0.06    -0.10  -0.03   0.02     0.05   0.00   0.03
    13   6     0.01  -0.16  -0.12     0.09   0.01  -0.00    -0.06  -0.00   0.01
    14   1    -0.31   0.40  -0.08     0.06   0.11   0.15    -0.06   0.01  -0.06
    15   1     0.03  -0.18   0.00    -0.03  -0.26  -0.03    -0.01   0.13  -0.01
    16   1     0.16   0.02   0.32    -0.22  -0.08   0.26     0.38   0.09   0.02
    17   1    -0.04  -0.16  -0.00     0.11   0.10  -0.02     0.04  -0.28   0.00
    18   1    -0.11  -0.07   0.01     0.16  -0.04   0.02     0.27  -0.17   0.07
    19   1    -0.05  -0.08   0.02     0.11  -0.06  -0.02     0.21  -0.14  -0.04
    20   1    -0.00   0.09   0.02    -0.04   0.05   0.07    -0.08   0.09   0.16
    21   1    -0.10   0.07   0.04    -0.12   0.21   0.07     0.03   0.17   0.02
    22   1    -0.05   0.07   0.04    -0.01   0.14   0.07     0.25   0.29   0.13
    23   1    -0.02   0.05   0.02     0.03   0.11   0.01     0.17   0.25  -0.01
    24   1     0.01  -0.05   0.01    -0.02  -0.07   0.06    -0.04  -0.16   0.15
    25   1    -0.04  -0.02  -0.02     0.38   0.07  -0.13     0.06  -0.01   0.05
    26   1    -0.05   0.19  -0.19     0.03  -0.05   0.29    -0.03  -0.06  -0.13
    27   1    -0.05   0.14   0.02     0.08   0.11  -0.27    -0.09   0.15   0.06
    28   1     0.11  -0.30  -0.13    -0.07   0.08  -0.23     0.01  -0.00   0.16
    29   1     0.11  -0.16  -0.27    -0.02  -0.29   0.04     0.06   0.00  -0.17
                     40                     41                     42
                      A                      A                      A
 Frequencies --   1137.5784              1187.4349              1189.5085
 Red. masses --      1.4092                 1.2203                 2.1028
 Frc consts  --      1.0744                 1.0138                 1.7530
[...]
 00002080,-0.00000074,0.00001164,0.00002152,0.00069144,-0.00055524,-0.0
 0002233,0.00623651,0.00282095,-0.00487837,0.18313014,-0.00014441,0.000
 06679,-0.00005218,0.00007358,-0.00024917,0.00019776,-0.00001206,0.0000
 0746,-0.00004523,-0.00007789,-0.00014291,0.00002769,0.00029443,-0.0002
 6261,-0.00036959,0.00005097,0.00012324,0.00000857,0.00003115,0.0000261
 8,0.00005263,-0.00433885,-0.00030245,0.00110059,-0.01404408,0.00739717
 ,-0.01557134,0.04514794,-0.06412861,0.03214150,-0.00011868,0.00072592,
 0.00021019,-0.00006078,0.00003953,-0.00011737,0.00001114,0.00002538,0.
 00000797,0.00000022,-0.00000374,0.00000741,0.00001497,-0.00000090,0.00
 000097,0.00002822,-0.00002408,-0.00002601,-0.00000611,-0.00007966,-0.0
 0000312,0.00005381,0.00002353,-0.00001288,-0.00001391,-0.00003133,0.00
 000239,0.00000257,-0.00000352,0.00000129,0.00054056,-0.00009068,0.0004
 1738,0.00279604,0.00043054,-0.00598737,-0.04692638,0.05791530,0.000243
 13,-0.00003385,0.00010756,-0.00013895,0.00019306,-0.00030836,0.0000062
 9,0.00000639,0.00005406,0.00015576,0.00021090,-0.00006846,-0.00022485,
 0.00034863,0.00060153,-0.00033245,0.00008438,-0.00014591,0.00012631,-0
 .00010532,-0.00000951,0.00235562,0.00412193,-0.00176504,-0.01863816,0.
 00507089,-0.01371114,-0.14188398,0.02932108,-0.18654673,0.00036211,-0.
 00097735,-0.00008067,-0.00015432,0.00020168,-0.00002653,-0.00002982,0.
 00003915,-0.00000423,0.00000531,0.00001300,0.00000183,-0.00000016,-0.0
 0001576,-0.00000020,-0.00002716,0.00005316,0.00007832,0.00004463,0.000
 00629,0.00002286,0.00014879,-0.00007473,0.00014413,-0.00000789,0.00002
 093,0.00006068,0.00000535,-0.00002001,-0.00002519,0.00079467,-0.000963
 95,0.00039580,-0.00463760,-0.00610161,0.00135874,0.15915360,-0.0299691
 2,0.19587332,0.00031676,-0.00024057,0.00020863,-0.00010159,0.00064066,
 -0.00069122,0.00005240,-0.00007136,0.00014188,0.00030471,0.00034914,-0
 .00021631,-0.00086527,0.00090186,0.00079864,-0.00025746,-0.00001788,0.
 00004598,0.00001828,-0.00001882,0.00000185,0.00632018,0.00375723,-0.00
 580921,0.00601150,-0.00675699,-0.00188806,-0.12277141,0.13431311,0.000
 22926,0.00101656,-0.00208942,-0.00031754,0.00001747,0.00003147,0.00018
 586,-0.00001927,0.00003633,-0.00002187,-0.00003083,0.00001643,0.000012
 71,-0.00002377,-0.00004982,-0.00000046,-0.00006909,0.00008458,0.000154
 12,0.00005232,0.00013788,0.00000506,0.00003965,-0.00005388,0.00002527,
 -0.00000746,0.00000789,0.00001926,-0.00000246,-0.00003356,-0.00001936,
 0.00021958,-0.00030933,0.00020394,-0.00285095,-0.00278478,0.00366649,-
 0.00696512,0.01654960,0.00249821,0.11973723,0.00040830,-0.00027759,0.0
 0015945,-0.00020270,0.00076685,-0.00059054,0.00000179,-0.00001582,0.00
 015173,-0.00002024,0.00004795,-0.00002254,-0.00003676,0.00051919,0.000
 03671,-0.00000674,-0.00007553,0.00002887,-0.00007838,0.00001569,0.0000
 3943,0.00228136,0.00279314,-0.00549694,0.01183130,-0.01425298,0.000267
 19,0.13190798,-0.25968625,-0.02214854,0.00058819,-0.00203311,-0.000204
 74,0.00012079,0.00002467,0.00007884,0.00002268,0.00003516,0.00001183,-
 0.00001691,0.00000801,-0.00000892,-0.00002633,-0.00002855,0.00000710,-
 0.00004472,-0.00001949,-0.00000241,-0.00000176,0.00002680,0.00000869,-
 0.00000364,-0.00003798,-0.00001422,-0.00000037,0.00000247,0.00000073,-
 0.00004708,-0.00003287,0.00000279,-0.00036189,0.00034734,-0.00000222,-
 0.00289040,-0.00070656,0.00213112,0.00113423,-0.00128942,-0.00129865,-
 0.14441307,0.27388671,-0.00001004,0.00010046,-0.00003855,-0.00004578,-
 0.00023710,0.00026929,-0.00007310,0.00009886,-0.00005163,-0.00033283,-
 0.00038462,0.00024995,0.00136126,-0.00106115,-0.00055459,0.00035459,0.
 00002425,0.00000764,-0.00008301,0.00005581,-0.00000646,-0.00710922,-0.
 00452379,0.00144428,0.01363034,-0.02241848,0.00120351,-0.00169483,-0.0
 1925532,-0.05169080,-0.00033717,0.00096317,0.00040875,-0.00005554,-0.0
 0000822,0.00002759,0.00003735,-0.00003347,0.00003813,0.00002937,-0.000
 00677,-0.00001230,0.00000371,0.00002236,0.00000339,0.00004797,-0.00010
 584,-0.00019431,-0.00013068,-0.00031970,-0.00001374,-0.00006930,0.0000
 3876,-0.00004747,0.00000632,-0.00002054,-0.00002487,-0.00000800,0.0000
 1858,0.00003667,0.00031984,-0.00002125,0.00025828,0.00343736,0.0022899
 4,-0.00158591,-0.01014099,0.01776608,0.00401107,0.00076681,0.02694463,
 0.04638891,0.00197968,-0.00214954,0.00001883,0.01174382,0.01811094,-0.
 00025648,-0.00227459,0.00268458,0.00004932,-0.00015232,0.00076081,-0.0
 0003244,-0.00043665,0.00081619,0.00277266,0.00007090,-0.00074344,0.000
 11283,-0.00024359,0.00008904,-0.00000600,-0.01080297,-0.01310077,0.000
 87081,0.00032974,-0.00111358,-0.00091156,0.00041815,0.00061237,0.00012
 804,-0.14260435,-0.13010263,0.00032936,-0.01058518,-0.01480696,0.00015
 750,-0.00056622,0.00090429,-0.00324795,0.00028036,0.00054963,-0.000005
 49,0.00031342,0.00056585,0.00000455,0.00004040,-0.00002712,0.00000627,
 -0.00035627,-0.00039761,0.00010364,-0.00004308,0.00001181,-0.00005322,
 -0.00000824,-0.00005903,-0.00004995,-0.00003618,0.00007969,0.00010031,
 0.00069458,0.00030095,-0.00000611,-0.00021162,0.00002671,0.00009823,-0
 .00004549,-0.00003414,0.00005032,-0.00003438,0.00000475,0.00005421,0.1
 5237722,0.00062479,0.00574177,-0.00000604,-0.02056977,-0.02564779,0.00
 032030,0.00362501,-0.00267287,-0.00008050,0.00101971,0.00036318,-0.000
 01216,0.00078436,0.00076477,-0.00051290,0.00005053,0.00014039,0.000120
 23,0.00002085,0.00003902,-0.00005316,0.00130897,0.00116131,0.00013770,
 0.00085654,0.00060508,-0.00026299,-0.00008856,0.00036297,0.00006131,-0
 .12641021,-0.22370492,0.00177717,0.00170895,0.00209839,-0.00026501,0.0
 0058105,0.00094053,0.00065892,-0.00036807,-0.00087517,-0.00001281,-0.0
 0036655,-0.00085438,0.00001044,-0.00007893,0.00010136,-0.00001010,0.00
 004560,0.00002777,-0.00002863,-0.00003398,-0.00000008,0.00000494,0.000
 01248,0.00001564,0.00000757,-0.00001579,-0.00004586,-0.00002533,-0.000
 08394,0.00005155,0.00045776,0.00000051,0.00002036,0.00004663,0.0000280
 4,0.00002933,-0.00000190,-0.00004181,-0.00001392,0.00008546,0.13751634
 ,0.24054991,-0.00003888,-0.00003121,-0.00106169,0.00016254,-0.00001592
 ,-0.00051504,0.00008885,0.00003855,0.00207851,-0.00002835,0.00001044,-
 0.00076046,0.00264042,-0.00150649,-0.00387130,-0.00011504,0.00146367,-
 0.00018622,0.00048127,-0.00011520,0.00005880,0.01687414,0.02121432,-0.
 00127658,-0.00040290,0.00135657,0.00116214,-0.00038271,-0.00037675,0.0
 0001686,0.00005233,0.00148388,-0.04856635,-0.01591570,-0.02279523,0.00
 019447,-0.00263132,0.00152805,-0.00414760,0.00011485,0.00034581,-0.000
 04357,-0.00011147,-0.00031763,-0.00004580,0.00003086,-0.00000171,0.000
 15173,0.00037593,0.00066517,-0.00006686,0.00014098,-0.00011523,0.00004
 989,0.00000392,0.00006531,0.00007766,0.00004596,-0.00014869,-0.0001848
 2,-0.00082403,0.00014424,0.00079401,0.00011925,-0.00011138,-0.00008369
 ,-0.00002318,0.00002691,-0.00008063,0.00002832,0.00002496,-0.00010294,
 -0.00084372,-0.00138323,0.05478628,0.00015857,-0.00036698,0.00023570,0
 .00165299,-0.00000316,-0.00054523,-0.00020139,0.00006406,0.00010696,-0
 .00158818,-0.00081055,-0.00095517,-0.00021292,-0.00016111,-0.00007274,
 -0.00006555,0.00019209,-0.00006267,0.00008020,-0.00001275,0.00003932,-
 0.00304352,0.00040481,-0.00351533,-0.00055149,0.00043080,-0.00006908,0
 .00020922,-0.00022654,0.00006502,0.01252747,0.00048783,-0.01819993,-0.
 13767276,0.00058739,0.12548405,-0.01031516,-0.00047071,0.01253809,-0.0
 0000875,-0.00001819,-0.00004732,0.00008371,0.00000123,0.00000006,0.000
 22512,-0.00022922,0.00049005,0.00002969,0.00003693,0.00009013,0.000131
 31,-0.00005708,-0.00003444,-0.00000633,-0.00002149,0.00001841,-0.00000
 660,-0.00001610,-0.00001317,0.00076875,-0.00005959,-0.00125475,0.00031
 396,-0.00024485,0.00010496,0.00005314,0.00007140,0.00005223,-0.0000314
 4,-0.00004684,0.00002749,0.00080741,-0.00011768,0.00092065,0.14750367,
 -0.00005553,0.00016346,-0.00021058,-0.00026822,-0.00019647,0.00111691,
 -0.00018788,0.00017773,0.00006468,-0.00270274,-0.00208467,-0.00072841,
 0.00010558,-0.00020512,-0.00043801,0.00007093,0.00005355,0.00003103,0.
 00002057,0.00004290,0.00001557,-0.00020809,0.00027911,-0.00021854,0.00
 038922,-0.00005383,0.00007038,-0.00018607,0.00020878,-0.00013854,0.000
 78931,-0.00028803,-0.00012462,0.00101719,-0.04944283,0.00212293,-0.016
 23412,-0.00260278,0.02114146,0.00007895,-0.00024425,0.00001405,0.00014
 987,-0.00000646,-0.00003158,0.00033109,-0.00058146,0.00083753,0.000065
 71,0.00008653,0.00005394,-0.00001561,-0.00006979,-0.00002825,-0.000003
 59,-0.00001958,-0.00001408,-0.00000311,-0.00000926,-0.00000672,-0.0000
 1978,0.00017072,-0.00007453,-0.00040072,0.00018735,-0.00000684,-0.0000
 3970,-0.00007764,-0.00004885,0.00002546,-0.00000507,-0.00000739,0.0002
 7520,0.00012020,-0.00020524,0.00270433,0.05454072,-0.00147187,0.000043
 96,0.00035067,0.00289748,-0.00107279,-0.00038781,0.00023393,0.00004385
 ,-0.00029184,-0.00001162,0.00018530,0.00029500,-0.00039692,-0.00058388
 ,0.00050512,-0.00007875,0.00016981,0.00002486,0.00006099,0.00000064,0.
 00002081,-0.00511213,0.00014940,-0.00351500,-0.00051091,0.00058109,0.0
 0035271,0.00005305,-0.00019308,-0.00003980,0.01394281,0.00094009,-0.02
 242376,0.12459790,0.00260379,-0.22196924,-0.00177315,-0.00106708,0.002
 07314,-0.00000744,0.00017330,0.00004908,-0.00006160,0.00005363,0.00004
 850,-0.00002898,0.00005818,-0.00005239,0.00000029,0.00004086,0.0000702
 3,0.00002089,-0.00002847,-0.00001243,-0.00000751,-0.00000372,0.0000021
 5,0.00001440,-0.00001845,-0.00002564,0.00116007,-0.00003263,-0.0015590
 6,0.00009218,-0.00004960,0.00011569,0.00004777,0.00003410,0.00001831,0
 .00000743,-0.00006747,0.00000003,0.00001688,-0.00049317,0.00081487,-0.
 13214897,-0.00070007,0.24216910,-0.00111282,0.00136908,0.00074591,-0.0
 0080505,-0.00402369,-0.00396093,-0.00011324,0.00044800,0.00084121,-0.0
 0128275,-0.00187326,-0.00070832,0.00009191,0.00000081,-0.00006645,0.00
 007298,0.00002127,0.00005598,-0.00000818,0.00000726,-0.00003212,0.0006
 3425,-0.00042079,0.00134840,-0.00019563,0.00028880,0.00016410,0.000171
 98,-0.00038136,0.00009078,-0.01264089,0.01717418,-0.00344160,-0.131644
 26,0.12453017,-0.00120083,0.01002594,-0.01832927,0.00072579,0.00008469
 ,0.00016464,-0.00006662,0.00008704,-0.00012535,0.00000548,0.00014307,-
 0.00038162,0.00067410,-0.00001578,0.00002623,0.00006452,-0.00003339,0.
 00000337,-0.00000061,0.00000468,0.00001666,-0.00000511,0.00000550,-0.0
 0001378,-0.00001204,-0.00006797,-0.00001987,0.00010504,0.00046125,0.00
 000873,0.00078046,0.00008430,0.00010268,0.00001211,-0.00005827,-0.0000
 6956,0.00001140,0.00016830,-0.00017852,0.00045589,-0.01133561,0.016029
 98,-0.00022022,0.14610628,-0.00019630,0.00005769,0.00031682,0.00012904
 ,0.00039260,-0.00076879,-0.00036836,0.00073967,-0.00027751,-0.00217462
 ,-0.00230657,-0.00132293,0.00007220,-0.00029567,-0.00016171,0.00027658
 ,-0.00007049,0.00024097,-0.00011167,0.00010339,-0.00002422,0.00054786,
 -0.00034700,-0.00008175,0.00105900,-0.00032511,-0.00000296,-0.00039793
 ,0.00026804,-0.00022978,-0.00127065,0.00262986,0.00057157,0.12338807,-
 0.22650749,0.00566526,0.01250234,-0.01963846,-0.00020376,-0.00004885,0
 .00011516,-0.00001033,0.00006413,-0.00000854,0.00007393,0.00017867,-0.
 00050465,0.00101250,-0.00002176,0.00010089,0.00009656,-0.00018996,-0.0
 0004445,-0.00000268,0.00000934,0.00000691,-0.00004481,-0.00002142,-0.0
 0002343,-0.00000087,-0.00013247,0.00005407,0.00013655,-0.00044179,0.00
 035207,-0.00100242,-0.00011101,-0.00012243,-0.00008967,0.00005983,0.00
 002674,-0.00002552,0.00023819,0.00048777,0.00046554,0.00031251,0.00043
 280,-0.00076485,-0.13181492,0.24519953,-0.00252475,0.00175696,0.001426
 94,-0.00090507,-0.00421127,-0.00551797,0.00027339,-0.00013503,0.000920
 48,0.00033713,0.00063931,-0.00031132,0.00016798,0.00029147,-0.00003814
 ,-0.00008861,0.00010554,-0.00017049,0.00008479,-0.00007741,0.00000892,
 0.00060428,0.00023400,0.00192340,-0.00025239,0.00020301,-0.00074004,0.
 00023051,-0.00039308,0.00021825,-0.01888277,0.02569717,-0.00390295,-0.
 00042494,0.00535434,-0.04824418,-0.00057617,0.00034836,-0.00068344,0.0
 0015179,0.00025385,0.00002080,0.00001934,-0.00013814,0.00000964,0.0001
 7312,0.00007996,-0.00021568,-0.00001919,-0.00006237,0.00001819,0.00014
 194,0.00001004,0.00004956,-0.00000732,-0.00000298,0.00003161,0.0000029
 3,0.00001011,0.00000175,-0.00003682,-0.00021883,0.00046025,0.00102426,
 -0.00074180,-0.00131339,0.00010119,0.00013377,0.00001415,-0.00005158,-
 0.00002288,0.00000199,0.00061621,-0.00048831,0.00096784,0.01659542,-0.
 02359174,0.00147869,0.00382285,-0.00447335,0.05238802,-0.00010056,0.00
 030992,0.00007487,0.00000137,-0.00081218,-0.00009738,0.00064905,-0.000
 68454,-0.00107811,0.00046204,-0.00363807,-0.00599599,-0.00020202,0.000
 66950,-0.00124466,-0.00038304,0.00045899,-0.00003432,0.00033224,-0.000
 12921,0.00014850,-0.00011591,0.00012264,0.00037613,-0.00004259,0.00008
 235,-0.00005984,0.00004702,0.00000448,-0.00000119,-0.00111162,-0.00220
 517,0.00023262,0.00168714,-0.01196865,-0.01509547,-0.05917242,0.028356
 53,0.03871859,-0.00003426,0.00030436,0.00011126,0.00011889,-0.00003015
 ,0.00015869,0.00014373,0.00000047,0.00047293,0.00028204,-0.00021151,-0
 .00034748,0.00042305,-0.00035825,0.00003733,-0.00006970,-0.00008263,0.
 00007034,-0.00000506,0.00002966,0.00001329,0.00006047,0.00007073,-0.00
 000565,-0.00001797,-0.00008019,0.00001858,-0.00000845,-0.00000290,0.00
 002093,-0.00000454,-0.00000220,0.00000331,-0.00048315,0.00008151,-0.00
 059818,0.00158723,-0.00000918,-0.00051023,-0.00071835,-0.00154468,-0.0
 0052218,0.06247996,-0.00029285,0.00031738,0.00011118,0.00049790,-0.000
 81095,-0.00020349,-0.00066922,0.00089882,0.00008780,-0.00335138,0.0110
 1701,0.01653351,0.00144612,-0.00212609,0.00323715,0.00045761,-0.000192
 52,0.00003373,-0.00015820,0.00007199,-0.00001490,-0.00008154,-0.000229
 44,0.00029519,0.00019067,0.00004750,0.00004356,-0.00002367,0.00007074,
 -0.00004230,-0.00083749,-0.00262695,0.00094078,0.00371363,-0.01534608,
 -0.01900894,0.02790120,-0.12843419,-0.11869814,-0.00005129,0.00015156,
 -0.00018956,-0.00031762,0.00014253,0.00000326,-0.00032656,0.00085818,-
 0.00074386,-0.00022229,0.00061724,0.00110835,-0.00021122,0.00008317,-0
 .00009431,0.00002370,0.00004336,-0.00003363,-0.00002971,-0.00003313,-0
 .00002191,0.00004850,0.00005507,-0.00008977,-0.00011056,0.00008094,0.0
 0004414,-0.00002228,-0.00001555,-0.00001168,-0.00001369,-0.00001550,0.
 00001325,-0.00050818,0.00011147,-0.00083748,-0.00002058,0.00162692,-0.
 00001537,-0.00227930,-0.00256526,-0.00044484,-0.02687902,0.14098316,-0
 .00013003,0.00022204,0.00003951,-0.00008704,-0.00089031,-0.00016310,0.
 00147489,-0.00113442,0.00111878,0.00538508,-0.01543678,-0.02444270,-0.
 00186422,0.00506974,-0.00322524,-0.00079685,0.00021533,0.00027177,0.00
 024360,0.00001050,-0.00003996,0.00047062,0.00061683,0.00044910,-0.0002
 0739,0.00000402,0.00003786,0.00001890,-0.00006061,0.00002535,-0.000216
 39,0.00009957,0.00030919,0.00029304,0.00271287,0.00241174,0.03722399,-
 0.11839858,-0.21792401,-0.00099876,0.00067873,0.00034783,0.00024062,0.
 00018784,0.00044987,0.00050758,0.00019362,0.00085949,0.00034234,-0.001
 00599,-0.00170262,0.00009264,-0.00006283,0.00009698,-0.00001721,-0.000
 07296,0.00000570,0.00008055,0.00004254,0.00000618,-0.00004367,-0.00003
 610,0.00007093,0.00003445,-0.00000663,-0.00001506,-0.00000018,0.000007
 86,0.00000267,0.00002755,-0.00000635,-0.00003069,-0.00003550,0.0000327
 5,-0.00004013,-0.00016144,0.00039445,0.00185159,-0.00022935,0.00081314
 ,-0.00001404,-0.04237853,0.12526193,0.23801458,-0.00028497,-0.00001777
 ,-0.00002277,0.00096800,0.00008513,0.00032972,0.00084874,0.00107705,-0
 .00168719,-0.00516880,0.00164188,-0.00054127,-0.00045134,0.00026643,0.
 00028365,-0.00083691,0.00083078,0.00037857,0.00053607,-0.00023769,0.00
 025363,-0.00025453,-0.00010612,0.00016722,-0.00015546,0.00021175,-0.00
 022214,0.00013570,-0.00006982,0.00001207,-0.00079674,-0.00170902,0.001
 09810,-0.01426933,0.00331168,0.00052995,-0.29503198,0.06291865,-0.0038
 8000,0.00023837,-0.00016298,0.00004945,-0.00051017,-0.00004049,0.00008
 500,0.00048989,0.00035994,-0.00027112,0.00009233,-0.00006777,-0.000064
 94,0.00062563,-0.00041289,0.00108003,-0.00010142,-0.00019699,0.0000884
 6,0.00002176,0.00007547,0.00001893,0.00009911,0.00002313,-0.00006258,0
 .00002549,-0.00016044,0.00001085,-0.00000011,0.00001094,0.00003998,-0.
 00001333,-0.00003176,-0.00000084,-0.00033970,0.00008857,-0.00062065,-0
 .00109276,-0.00171905,-0.00080576,0.00188998,0.00000863,-0.00005537,-0
 .00580460,0.00212733,0.00073073,0.31914107,0.00018618,0.00065653,-0.00
 002548,-0.00008487,-0.00176533,0.00011205,0.00007550,-0.00152320,0.004
 28991,0.01840943,-0.00507194,-0.00105443,-0.00027398,0.00046950,-0.000
 76508,0.00004569,0.00013514,-0.00031093,-0.00019985,-0.00008198,0.0000
 1330,-0.00006706,0.00000690,0.00012937,-0.00009160,0.00017053,-0.00015
 129,0.00006204,-0.00004222,0.00004258,-0.00190601,-0.00217133,0.000959
 66,-0.02733238,0.00431356,-0.00010940,0.06331167,-0.06371907,-0.000499
 24,-0.00053567,0.00023708,0.00005610,0.00144142,-0.00001096,0.00033961
 ,-0.00009604,0.00021553,-0.00065288,0.00006787,-0.00008263,-0.00009179
 ,0.00003147,0.00026393,-0.00042531,0.00003188,0.00005593,0.00001339,-0
 .00002943,-0.00003119,-0.00000138,0.00006692,-0.00002145,-0.00008067,0
 .00004169,-0.00008571,0.00000261,0.00001362,0.00001433,0.00002098,-0.0
 0001647,-0.00001006,0.00000758,-0.00050435,0.00008224,-0.00087200,-0.0
 0240997,-0.00220353,0.00001264,-0.00028054,0.00179239,-0.00011587,0.01
 814738,-0.00478137,0.00054780,-0.06810456,0.07318839,-0.00027924,-0.00
 036996,0.00006840,0.00072377,0.00075454,-0.00011002,0.00002865,0.00272
 880,-0.00494856,-0.02860693,0.00719193,0.00025582,-0.00037143,-0.00047
 424,0.00152639,-0.00022275,0.00028010,-0.00093588,0.00041090,-0.000076
 77,0.00019161,-0.00022627,-0.00028375,0.00000357,-0.00010604,0.0000488
 5,-0.00015992,0.00009414,-0.00004865,0.00000693,-0.00031958,-0.0004507
 0,-0.00035429,0.00041628,0.00033581,-0.00077726,-0.00225594,-0.0013110
 9,-0.05013998,-0.00003468,0.00028204,0.00014979,-0.00185483,0.00047330
 ,0.00007884,0.00066966,-0.00041348,0.00103744,0.00012029,0.00015094,0.
 00036427,0.00088882,-0.00071688,-0.00132154,-0.00007078,-0.00011627,0.
 00003628,-0.00000440,0.00004016,0.00000116,0.00005290,0.00004528,0.000
 00897,0.00005819,-0.00013719,0.00003459,0.00000045,0.00000916,0.000027
 57,-0.00001165,-0.00000765,0.00000477,-0.00004154,-0.00008492,-0.00011
 937,0.00031171,0.00071107,0.00003640,0.00004016,0.00009506,0.00121116,
 0.02751181,-0.00726366,0.00122842,0.00307831,-0.00139183,0.05259444\\0
 .00008053,0.00002473,0.00006012,-0.00006971,-0.00007379,-0.00011620,0.
 00008821,0.00002437,-0.00004796,-0.00008839,-0.00002160,-0.00002048,0.
 00001811,0.00004247,0.00009669,0.00000527,-0.00005549,-0.00011045,0.00
 000498,-0.00004103,0.00000596,0.00003864,-0.00000791,-0.00010653,0.000
 04666,0.00004669,0.00003271,0.00001932,0.00000654,0.00000987,-0.000063
 61,0.00008660,0.00021043,0.00001473,-0.00000152,-0.00003178,-0.0000426
 9,-0.00007648,-0.00001706,-0.00000521,-0.00000154,0.00001647,-0.000023
 40,0.00002288,0.00000840,-0.00000854,0.00000814,-0.00000472,-0.0000045
 3,0.00000315,0.00001606,0.00000465,0.00003992,0.00002738,0.00000354,0.
 00002573,0.00000573,0.00001512,0.00001443,0.00000116,0.00001132,-0.000
 00853,0.00001011,-0.00002907,-0.00002422,0.00000702,-0.00001894,0.0000
 0086,0.00000055,-0.00000385,-0.00001474,-0.00000154,0.00000763,-0.0000
 1708,-0.00003940,0.00000491,0.00001249,0.00001502,0.00000131,0.0000045
 6,-0.00002138,-0.00000810,-0.00000791,0.00000057,0.00000110,-0.0000117
 6,-0.00000677\\\@


 Human beings, who are almost unique in having the
 ability to learn from the experience of others, are
 also remarkable for their apparent disinclination to do so.
                               -- Douglas Adams,
                                Last Chance to See
 Job cpu time:       0 days  0 hours  3 minutes 18.8 seconds.
 Elapsed time:       0 days  0 hours  3 minutes 24.4 seconds.
 File lengths (MBytes):  RWF=    177 Int=      0 D2E=      0 Chk=     16 Scr=      1
 Normal termination of Gaussian 16 at Sat Feb 24 03:55:36 2024.
